                               Psi4 1.9.1 release

  ==> Input File <==

--------------------------------------------------------------------------
molecule {
0 1
Ne   0.00000        0.60000        0.00000
Si   0.00000       -0.60000        0.00000
}

set {
basis              cc-pvdz
reference          uks
maxiter            500
geom_maxiter       500
DAMPING_PERCENTAGE 1
guess              SAP
}

optimize('b3lyp')
--------------------------------------------------------------------------

    Molecular point group: c2v
  Charge       = 0
  Multiplicity = 1
  Basis Set: CC-PVDZ
    Blend: CC-PVDZ
  Basis Set: (CC-PVDZ AUX)
    Blend: CC-PVDZ-JKFIT
  @DF-UKS Final Energy:  -417.75390054643719
    Total Energy =                       -417.7539005464371940
 Dipole X            :          0.0000000            0.0000000            0.0000000
 Dipole Y            :          0.0000000            0.0000000            0.0000000
 Dipole Z            :          1.3701567           -0.0059043            1.3642524
 Magnitude           :                                                    1.3642524
    Molecular point group: c2v
  Basis Set: CC-PVDZ
    Blend: CC-PVDZ
  Basis Set: (CC-PVDZ AUX)
    Blend: CC-PVDZ-JKFIT
  Basis Set: CC-PVDZ
    Blend: CC-PVDZ
  Basis Set: (CC-PVDZ AUX)
    Blend: CC-PVDZ-JKFIT
  @DF-UKS Final Energy:  -417.97409758938448
    Total Energy =                       -417.9740975893844279
  Basis Set: CC-PVDZ
    Blend: CC-PVDZ
  Basis Set: (CC-PVDZ AUX)
    Blend: CC-PVDZ-JKFIT
  Basis Set: CC-PVDZ
    Blend: CC-PVDZ
  @DF-UKS Final Energy:  -418.10214700924126
    Total Energy =                       -418.1021470092412642
  @DF-UKS Final Energy:  -418.17428960218035
    Total Energy =                       -418.1742896021804086
  @DF-UKS Final Energy:  -418.21406808267045
    Total Energy =                       -418.2140680826703942
  @DF-UKS Final Energy:  -418.23596217136810
    Total Energy =                       -418.2359621713681008
  @DF-UKS Final Energy:  -418.24769449124881
    Total Energy =                       -418.2476944912488079
  @DF-UKS Final Energy:  -418.25374485862756
    Total Energy =                       -418.2537448586275559
  @DF-UKS Final Energy:  -418.25665129208721
    Total Energy =                       -418.2566512920872697
  @DF-UKS Final Energy:  -418.25787369273559
    Total Energy =                       -418.2578736927355862
  @DF-UKS Final Energy:  -418.25827992666558
    Total Energy =                       -418.2582799266655798
  @DF-UKS Final Energy:  -418.25835581591951
    Total Energy =                       -418.2583558159195150
  @DF-UKS Final Energy:  -418.25837518803615
    Total Energy =                       -418.2583751880361547
  Basis Set: (CC-PVDZ AUX)
    Blend: CC-PVDZ-JKFIT
  Basis Set: CC-PVDZ
    Blend: CC-PVDZ
  Basis Set: (CC-PVDZ AUX)
    Blend: CC-PVDZ-JKFIT
  @DF-UKS Final Energy:  -418.25837704670130
    Total Energy =                       -418.2583770467012982
  Basis Set: CC-PVDZ
    Blend: CC-PVDZ
  Basis Set: (CC-PVDZ AUX)
    Blend: CC-PVDZ-JKFIT
  Charge       = 0
  Multiplicity = 1
  Basis Set: CC-PVDZ
    Blend: CC-PVDZ
  Basis Set: (CC-PVDZ AUX)
    Blend: CC-PVDZ-JKFIT

    Orbital Energies [Eh]
    ---------------------

    Alpha Occupied:

       1A1   -66.180646     2A1   -30.999423     3A1    -5.319312
       4A1    -3.682649     1B2    -3.682613     1B1    -3.665943
       5A1    -1.462229     6A1    -0.576183     2B2    -0.569528
       2B1    -0.568593     7A1    -0.420203     3B1    -0.148938

    Alpha Virtual:

       3B2    -0.117700     8A1    -0.109787     9A1     0.255583
       4B2     0.310804    10A1     0.321514     4B1     0.327428
       5B2     0.357909    11A1     0.362264     5B1     0.373131
       1A2     0.373667    12A1     0.387324     6B2     1.343163
       6B1     1.345291    13A1     1.407049    14A1     1.917678
       7B2     4.693994     7B1     4.694647    15A1     4.695169
       2A2     4.696249    16A1     4.696600

    Beta Occupied:

       1A1   -66.180646     2A1   -30.999423     3A1    -5.319312
       4A1    -3.682649     1B2    -3.682613     1B1    -3.665943
       5A1    -1.462229     6A1    -0.576183     2B2    -0.569528
       2B1    -0.568593     7A1    -0.420203     3B1    -0.148938

    Beta Virtual:

       3B2    -0.117700     8A1    -0.109787     9A1     0.255583
       4B2     0.310804    10A1     0.321514     4B1     0.327428
       5B2     0.357909    11A1     0.362264     5B1     0.373131
       1A2     0.373667    12A1     0.387324     6B2     1.343163
       6B1     1.345291    13A1     1.407049    14A1     1.917678
       7B2     4.693994     7B1     4.694647    15A1     4.695169
       2A2     4.696249    16A1     4.696600

    Final Occupation by Irrep:
             A1    A2    B1    B2
    DOCC [     7,    0,    3,    2 ]
    SOCC [     0,    0,    0,    0 ]
    NA   [     7,    0,    3,    2 ]
    NB   [     7,    0,    3,    2 ]

  @DF-UKS Final Energy:  -418.25837716242415

   => Energetics <=

    Nuclear Repulsion Energy =             26.4388886828387832
    One-Electron Energy =                -635.6574036782482153
    Two-Electron Energy =                 217.8297101274135628
    DFT Exchange-Correlation Energy =     -26.8695722944283091
    Empirical Dispersion Energy =           0.0000000000000000
    VV10 Nonlocal Energy =                  0.0000000000000000
    Total Energy =                       -418.2583771624241535

  UHF NO Occupations:
  HONO-2 :    7 A1 2.0000000
  HONO-1 :    1 B2 2.0000000
  HONO-0 :    2 B2 2.0000000
  LUNO+0 :    8 A1 0.0000000
  LUNO+1 :    4 B1 0.0000000
  LUNO+2 :    9 A1 0.0000000
  LUNO+3 :   10 A1 0.0000000

Computation Completed

Properties will be evaluated at   0.000000,   0.000000,   0.000000 [a0]

Properties computed using the SCF density matrix

 Multipole Moments:

 ------------------------------------------------------------------------------------
     Multipole            Electronic (a.u.)      Nuclear  (a.u.)        Total (a.u.)
 ------------------------------------------------------------------------------------

 L = 1.  Multiply by 2.5417464519 to convert [e a0] to [Debye]
 Dipole X            :          0.0000000            0.0000000            0.0000000
 Dipole Y            :          0.0000000            0.0000000            0.0000000
 Dipole Z            :          0.1568125           -0.0137871            0.1430254
 Magnitude           :                                                    0.1430254

 ------------------------------------------------------------------------------------

*** tstop() called on Joses-MacBook-Pro-2.local at Wed Jul 16 19:35:09 2025
Module time:
	user time   =       2.96 seconds =       0.05 minutes
	system time =       2.28 seconds =       0.04 minutes
	total time  =          1 seconds =       0.02 minutes
Total time:
	user time   =      77.42 seconds =       1.29 minutes
	system time =      72.84 seconds =       1.21 minutes
	total time  =         15 seconds =       0.25 minutes

*** tstart() called on Joses-MacBook-Pro-2.local
*** at Wed Jul 16 19:35:09 2025

         ------------------------------------------------------------
                                   SCF GRAD
                          Rob Parrish, Justin Turney,
                       Andy Simmonett, and Alex Sokolov
         ------------------------------------------------------------

  ==> Geometry <==

    Molecular point group: c2v
    Full point group: C_inf_v

    Geometry (in Angstrom), charge = 0, multiplicity = 1:

       Center              X                  Y                   Z               Mass
    ------------   -----------------  -----------------  -----------------  -----------------
         NE           0.000000000000     0.000000000000     1.634263155319    19.992440176200
         SI           0.000000000000     0.000000000000    -1.167851955590    27.976926534650

  Nuclear repulsion =   26.438888682838783

  ==> Basis Set <==

  Basis Set: CC-PVDZ
    Blend: CC-PVDZ
    Number of shells: 14
    Number of basis functions: 32
    Number of Cartesian functions: 34
    Spherical Harmonics?: true
    Max angular momentum: 2

  ==> DFJKGrad: Density-Fitted SCF Gradients <==

    Gradient:                    1
    J tasked:                  Yes
    K tasked:                  Yes
    wK tasked:                  No
    OpenMP threads:              1
    Integrals threads:           1
    Memory [MiB]:              375
    Schwarz Cutoff:          1E-12
    Fitting Condition:       1E-10

   => Auxiliary Basis Set <=

  Basis Set: (CC-PVDZ AUX)
    Blend: CC-PVDZ-JKFIT
    Number of shells: 60
    Number of basis functions: 182
    Number of Cartesian functions: 211
    Spherical Harmonics?: true
    Max angular momentum: 3

  ==> DFT Potential <==

   => LibXC <=

    Version 6.2.2
    S. Lehtola, C. Steigemann, M. J.T. Oliveira, and M. A.L. Marques.,  SoftwareX 7, 1â€“5 (2018) (10.1016/j.softx.2017.11.002)

   => Composite Functional: B3LYP <=

    B3LYP Hyb-GGA Exchange-Correlation Functional

    P. J. Stephens, F. J. Devlin, C. F. Chabalowski, and M. J. Frisch.,  J. Phys. Chem. 98, 11623 (1994) (10.1021/j100096a001)

    Deriv               =              1
    GGA                 =           TRUE
    Meta                =          FALSE

    Exchange Hybrid     =           TRUE
    MP2 Hybrid          =          FALSE

   => Exchange Functionals <=

    0.0800   Slater exchange
    0.7200         Becke 88

   => Exact (HF) Exchange <=

    0.2000               HF

   => Correlation Functionals <=

    0.1900   Vosko, Wilk & Nusair (VWN5_RPA)
    0.8100   Lee, Yang & Parr

   => LibXC Density Thresholds  <==

    XC_HYB_GGA_XC_B3LYP:  1.00E-15

   => Molecular Quadrature <=

    Radial Scheme          =       TREUTLER
    Pruning Scheme         =           NONE
    Nuclear Scheme         =       TREUTLER

    Blocking Scheme        =         OCTREE
    BS radius alpha        =              1
    Pruning alpha          =              1
    Radial Points          =             75
    Spherical Points       =            302
    Total Points           =          43021
    Total Blocks           =            392
    Max Points             =            254
    Max Functions          =             32
    Weights Tolerance      =       1.00E-15

  -Total Gradient:
     Atom            X                  Y                   Z
    ------   -----------------  -----------------  -----------------
       1        0.000000000000     0.000000000000    -0.000031069614
       2        0.000000000000    -0.000000000000     0.000003934721

*** tstop() called on Joses-MacBook-Pro-2.local at Wed Jul 16 19:35:09 2025
Module time:
	user time   =       1.11 seconds =       0.02 minutes
	system time =       1.33 seconds =       0.02 minutes
	total time  =          0 seconds =       0.00 minutes
Total time:
	user time   =      78.53 seconds =       1.31 minutes
	system time =      74.17 seconds =       1.24 minutes
	total time  =         15 seconds =       0.25 minutes

    			-----------------------------------------

    			 OPTKING 3.0: for geometry optimizations

    			     By R.A. King, Bethel University

    			        with contributions from

    			    A.V. Copan, J. Cayton, A. Heide

    			-----------------------------------------

	                            ===> Fragment 1 <==

	 Z (Atomic Numbers)          Masses                          Geom
	      10.000000            19.992440          0.00000000  0.00000000  3.08830978
	      14.000000            27.976927          0.00000000  0.00000000 -2.20692035

	 - Coordinate -           - BOHR/RAD -       - ANG/DEG -
	 R(1,2)           =         5.295230           2.802115

	        --- Internal Coordinate Step in ANG or DEG, aJ/ANG or AJ/DEG ---
	-------------------------------------------------------------------------------
	           Coordinate      Previous         Force          Change          New
	           ----------      --------        ------          ------        ------
	               R(1,2)       2.80212        0.00014        0.00156       2.80368
	-------------------------------------------------------------------------------

	                                 ==> Convergence Check <==

	Measures of convergence in internal coordinates in au.

	Criteria marked as inactive (o), active & met (*), and active & unmet ( ).

	----------------------------------------------------------------------------------------------
	   Step    Total Energy     Delta E     Max Force     RMS Force      Max Disp      RMS Disp
	----------------------------------------------------------------------------------------------
	  Convergence Criteria     1.00e-06 *    3.00e-04 *             o    1.20e-03 *             o
	----------------------------------------------------------------------------------------------
	    15    -418.25837716   -1.16e-07 *    1.75e-05 *    1.75e-05 o    2.95e-03      2.95e-03 o  ~
	----------------------------------------------------------------------------------------------

Next Geometry in Ang
	Fragment 1 (Ang)

	   Ne   0.0000000000   0.0000000000   1.6350437138
	   Si   0.0000000000   0.0000000000  -1.1686325141

    Final optimized geometry and variables:
    Molecular point group: c2v
    Full point group: C_inf_v

    Geometry (in Angstrom), charge = 0, multiplicity = 1:

    NE           0.000000000000     0.000000000000     1.634263155319
    SI           0.000000000000     0.000000000000    -1.167851955590

    Psi4 stopped on: Wednesday, 16 July 2025 07:35PM
    Psi4 wall time for execution: 0:00:15.41

*** Psi4 exiting successfully. Buy a developer a beer!
