                               Psi4 1.9.1 release

  ==> Input File <==

--------------------------------------------------------------------------
molecule {
0 1
C   0.00000        0.60000        0.00000
S   0.00000       -0.60000        0.00000
}

set {
basis              cc-pvdz
reference          uks
maxiter            500
geom_maxiter       500
DAMPING_PERCENTAGE 1
guess              SAP
}

optimize('b3lyp')
--------------------------------------------------------------------------

    Molecular point group: c2v
  Charge       = 0
  Multiplicity = 1
  Basis Set: CC-PVDZ
    Blend: CC-PVDZ
  Basis Set: (CC-PVDZ AUX)
    Blend: CC-PVDZ-JKFIT
  @DF-UKS Final Energy:  -435.98683421547696
    Total Energy =                       -435.9868342154769607
 Dipole X            :          0.0000000            0.0000000            0.0000000
 Dipole Y            :          0.0000000            0.0000000            0.0000000
 Dipole Z            :         -1.1868809           -0.0086419           -1.1955227
 Magnitude           :                                                    1.1955227
    Molecular point group: c2v
  Basis Set: CC-PVDZ
    Blend: CC-PVDZ
  Basis Set: (CC-PVDZ AUX)
    Blend: CC-PVDZ-JKFIT
  Basis Set: CC-PVDZ
    Blend: CC-PVDZ
  Basis Set: (CC-PVDZ AUX)
    Blend: CC-PVDZ-JKFIT
  @DF-UKS Final Energy:  -436.15362077513964
    Total Energy =                       -436.1536207751395864
  Basis Set: CC-PVDZ
    Blend: CC-PVDZ
  Basis Set: (CC-PVDZ AUX)
    Blend: CC-PVDZ-JKFIT
  Basis Set: CC-PVDZ
    Blend: CC-PVDZ
  @DF-UKS Final Energy:  -436.21240748071762
    Total Energy =                       -436.2124074807176157
  @DF-UKS Final Energy:  -436.22733172780619
    Total Energy =                       -436.2273317278061882
  @DF-UKS Final Energy:  -436.23311810913157
    Total Energy =                       -436.2331181091316239
  @DF-UKS Final Energy:  -436.23420260263316
    Total Energy =                       -436.2342026026331610
  @DF-UKS Final Energy:  -436.23442885386544
    Total Energy =                       -436.2344288538655519
  @DF-UKS Final Energy:  -436.23448697263564
    Total Energy =                       -436.2344869726356364
  Basis Set: (CC-PVDZ AUX)
    Blend: CC-PVDZ-JKFIT
  Basis Set: CC-PVDZ
    Blend: CC-PVDZ
  Basis Set: (CC-PVDZ AUX)
    Blend: CC-PVDZ-JKFIT
  @DF-UKS Final Energy:  -436.23449272148764
    Total Energy =                       -436.2344927214876407
  Basis Set: CC-PVDZ
    Blend: CC-PVDZ
  Basis Set: (CC-PVDZ AUX)
    Blend: CC-PVDZ-JKFIT
  Charge       = 0
  Multiplicity = 1
  Basis Set: CC-PVDZ
    Blend: CC-PVDZ
  Basis Set: (CC-PVDZ AUX)
    Blend: CC-PVDZ-JKFIT

    Orbital Energies [Eh]
    ---------------------

    Alpha Occupied:

       1A1   -88.925706     2A1   -10.285055     3A1    -7.992578
       4A1    -5.952044     1B2    -5.951896     1B1    -5.951896
       5A1    -0.835736     6A1    -0.522404     2B1    -0.353105
       2B2    -0.353105     7A1    -0.311883

    Alpha Virtual:

       3B1    -0.085247     3B2    -0.085247     8A1     0.115911
       9A1     0.380485     4B2     0.436956     4B1     0.436956
      10A1     0.472567    11A1     0.520599     5B2     0.529260
       5B1     0.529260    12A1     0.547525     1A2     0.547526
       6B2     0.614052     6B1     0.614052    13A1     0.869182
      14A1     1.103760    15A1     1.172394     2A2     1.172394
       7B1     1.456955     7B2     1.456955    16A1     1.826909

    Beta Occupied:

       1A1   -88.925706     2A1   -10.285055     3A1    -7.992578
       4A1    -5.952044     1B2    -5.951896     1B1    -5.951896
       5A1    -0.835736     6A1    -0.522404     2B1    -0.353105
       2B2    -0.353105     7A1    -0.311883

    Beta Virtual:

       3B1    -0.085247     3B2    -0.085247     8A1     0.115911
       9A1     0.380485     4B2     0.436956     4B1     0.436956
      10A1     0.472567    11A1     0.520599     5B2     0.529260
       5B1     0.529260    12A1     0.547525     1A2     0.547526
       6B2     0.614052     6B1     0.614052    13A1     0.869182
      14A1     1.103760    15A1     1.172394     2A2     1.172394
       7B1     1.456955     7B2     1.456955    16A1     1.826909

    Final Occupation by Irrep:
             A1    A2    B1    B2
    DOCC [     7,    0,    2,    2 ]
    SOCC [     0,    0,    0,    0 ]
    NA   [     7,    0,    2,    2 ]
    NB   [     7,    0,    2,    2 ]

  @DF-UKS Final Energy:  -436.23449294792329

   => Energetics <=

    Nuclear Repulsion Energy =             32.7412739603907212
    One-Electron Energy =                -665.2767926112337591
    Two-Electron Energy =                 221.2766796800301279
    DFT Exchange-Correlation Energy =     -24.9756539771103725
    Empirical Dispersion Energy =           0.0000000000000000
    VV10 Nonlocal Energy =                  0.0000000000000000
    Total Energy =                       -436.2344929479232860

  UHF NO Occupations:
  HONO-2 :    6 A1 2.0000000
  HONO-1 :    2 B1 2.0000000
  HONO-0 :    7 A1 2.0000000
  LUNO+0 :    8 A1 0.0000000
  LUNO+1 :    9 A1 0.0000000
  LUNO+2 :   10 A1 0.0000000
  LUNO+3 :    3 B1 0.0000000

Computation Completed

Properties will be evaluated at   0.000000,   0.000000,   0.000000 [a0]

Properties computed using the SCF density matrix

 Multipole Moments:

 ------------------------------------------------------------------------------------
     Multipole            Electronic (a.u.)      Nuclear  (a.u.)        Total (a.u.)
 ------------------------------------------------------------------------------------

 L = 1.  Multiply by 2.5417464519 to convert [e a0] to [Debye]
 Dipole X            :          0.0000000            0.0000000            0.0000000
 Dipole Y            :          0.0000000            0.0000000            0.0000000
 Dipole Z            :         -0.6612134           -0.0111738           -0.6723873
 Magnitude           :                                                    0.6723873

 ------------------------------------------------------------------------------------

*** tstop() called on Joses-MacBook-Pro-2.local at Wed Jul 16 19:05:03 2025
Module time:
	user time   =       3.84 seconds =       0.06 minutes
	system time =       3.24 seconds =       0.05 minutes
	total time  =          0 seconds =       0.00 minutes
Total time:
	user time   =      50.07 seconds =       0.83 minutes
	system time =      58.37 seconds =       0.97 minutes
	total time  =         10 seconds =       0.17 minutes

*** tstart() called on Joses-MacBook-Pro-2.local
*** at Wed Jul 16 19:05:03 2025

         ------------------------------------------------------------
                                   SCF GRAD
                          Rob Parrish, Justin Turney,
                       Andy Simmonett, and Alex Sokolov
         ------------------------------------------------------------

  ==> Geometry <==

    Molecular point group: c2v
    Full point group: C_inf_v

    Geometry (in Angstrom), charge = 0, multiplicity = 1:

       Center              X                  Y                   Z               Mass
    ------------   -----------------  -----------------  -----------------  -----------------
         C            0.000000000000     0.000000000000     1.128159853357    12.000000000000
         S            0.000000000000     0.000000000000    -0.423429504033    31.972071174400

  Nuclear repulsion =   32.741273960390721

  ==> Basis Set <==

  Basis Set: CC-PVDZ
    Blend: CC-PVDZ
    Number of shells: 14
    Number of basis functions: 32
    Number of Cartesian functions: 34
    Spherical Harmonics?: true
    Max angular momentum: 2

  ==> DFJKGrad: Density-Fitted SCF Gradients <==

    Gradient:                    1
    J tasked:                  Yes
    K tasked:                  Yes
    wK tasked:                  No
    OpenMP threads:              1
    Integrals threads:           1
    Memory [MiB]:              375
    Schwarz Cutoff:          1E-12
    Fitting Condition:       1E-10

   => Auxiliary Basis Set <=

  Basis Set: (CC-PVDZ AUX)
    Blend: CC-PVDZ-JKFIT
    Number of shells: 60
    Number of basis functions: 182
    Number of Cartesian functions: 211
    Spherical Harmonics?: true
    Max angular momentum: 3

  ==> DFT Potential <==

   => LibXC <=

    Version 6.2.2
    S. Lehtola, C. Steigemann, M. J.T. Oliveira, and M. A.L. Marques.,  SoftwareX 7, 1â€“5 (2018) (10.1016/j.softx.2017.11.002)

   => Composite Functional: B3LYP <=

    B3LYP Hyb-GGA Exchange-Correlation Functional

    P. J. Stephens, F. J. Devlin, C. F. Chabalowski, and M. J. Frisch.,  J. Phys. Chem. 98, 11623 (1994) (10.1021/j100096a001)

    Deriv               =              1
    GGA                 =           TRUE
    Meta                =          FALSE

    Exchange Hybrid     =           TRUE
    MP2 Hybrid          =          FALSE

   => Exchange Functionals <=

    0.0800   Slater exchange
    0.7200         Becke 88

   => Exact (HF) Exchange <=

    0.2000               HF

   => Correlation Functionals <=

    0.1900   Vosko, Wilk & Nusair (VWN5_RPA)
    0.8100   Lee, Yang & Parr

   => LibXC Density Thresholds  <==

    XC_HYB_GGA_XC_B3LYP:  1.00E-15

   => Molecular Quadrature <=

    Radial Scheme          =       TREUTLER
    Pruning Scheme         =           NONE
    Nuclear Scheme         =       TREUTLER

    Blocking Scheme        =         OCTREE
    BS radius alpha        =              1
    Pruning alpha          =              1
    Radial Points          =             75
    Spherical Points       =            302
    Total Points           =          41341
    Total Blocks           =            369
    Max Points             =            256
    Max Functions          =             32
    Weights Tolerance      =       1.00E-15

  -Total Gradient:
     Atom            X                  Y                   Z
    ------   -----------------  -----------------  -----------------
       1        0.000000000000    -0.000000000000    -0.000057104220
       2       -0.000000000000     0.000000000000     0.000039066225

*** tstop() called on Joses-MacBook-Pro-2.local at Wed Jul 16 19:05:04 2025
Module time:
	user time   =       1.19 seconds =       0.02 minutes
	system time =       1.59 seconds =       0.03 minutes
	total time  =          1 seconds =       0.02 minutes
Total time:
	user time   =      51.26 seconds =       0.85 minutes
	system time =      59.96 seconds =       1.00 minutes
	total time  =         11 seconds =       0.18 minutes

    			-----------------------------------------

    			 OPTKING 3.0: for geometry optimizations

    			     By R.A. King, Bethel University

    			        with contributions from

    			    A.V. Copan, J. Cayton, A. Heide

    			-----------------------------------------

	                            ===> Fragment 1 <==

	 Z (Atomic Numbers)          Masses                          Geom
	       6.000000            12.000000          0.00000000  0.00000000  2.13191315
	      16.000000            31.972071          0.00000000  0.00000000 -0.80016580

	 - Coordinate -           - BOHR/RAD -       - ANG/DEG -
	 R(1,2)           =         2.932079           1.551589

	        --- Internal Coordinate Step in ANG or DEG, aJ/ANG or AJ/DEG ---
	-------------------------------------------------------------------------------
	           Coordinate      Previous         Force          Change          New
	           ----------      --------        ------          ------        ------
	               R(1,2)       1.55159        0.00040        0.00004       1.55163
	-------------------------------------------------------------------------------

	                                 ==> Convergence Check <==

	Measures of convergence in internal coordinates in au.

	Criteria marked as inactive (o), active & met (*), and active & unmet ( ).

	----------------------------------------------------------------------------------------------
	   Step    Total Energy     Delta E     Max Force     RMS Force      Max Disp      RMS Disp
	----------------------------------------------------------------------------------------------
	  Convergence Criteria     1.00e-06 *    3.00e-04 *             o    1.20e-03 *             o
	----------------------------------------------------------------------------------------------
	    10    -436.23449295   -2.26e-07 *    4.81e-05 *    4.81e-05 o    8.25e-05 *    8.25e-05 o  ~
	----------------------------------------------------------------------------------------------

Next Geometry in Ang
	Fragment 1 (Ang)

	    C   0.0000000000   0.0000000000   1.1281816773
	    S   0.0000000000   0.0000000000  -0.4234513279

    Final optimized geometry and variables:
    Molecular point group: c2v
    Full point group: C_inf_v

    Geometry (in Angstrom), charge = 0, multiplicity = 1:

    C            0.000000000000     0.000000000000     1.128159853357
    S            0.000000000000     0.000000000000    -0.423429504033

    Psi4 stopped on: Wednesday, 16 July 2025 07:05PM
    Psi4 wall time for execution: 0:00:11.82

*** Psi4 exiting successfully. Buy a developer a beer!
