                               Psi4 1.9.1 release

  ==> Input File <==

--------------------------------------------------------------------------
molecule {
0 1
N   0.00000        0.60000        0.00000
Al   0.00000       -0.60000        0.00000
}

set {
basis              cc-pvdz
reference          uks
maxiter            500
geom_maxiter       500
DAMPING_PERCENTAGE 1
guess              SAP
}

optimize('b3lyp')
--------------------------------------------------------------------------

    Molecular point group: c2v
  Charge       = 0
  Multiplicity = 1
  Basis Set: CC-PVDZ
    Blend: CC-PVDZ
  Basis Set: (CC-PVDZ AUX)
    Blend: CC-PVDZ-JKFIT
  @DF-UKS Final Energy:  -296.69379686659670
    Total Energy =                       -296.6937968665966991
 Dipole X            :          0.0000000            0.0000000            0.0000000
 Dipole Y            :          0.0000000            0.0000000            0.0000000
 Dipole Z            :         -1.5271213            0.3779474           -1.1491740
 Magnitude           :                                                    1.1491740
    Molecular point group: c2v
  Basis Set: CC-PVDZ
    Blend: CC-PVDZ
  Basis Set: (CC-PVDZ AUX)
    Blend: CC-PVDZ-JKFIT
  Basis Set: CC-PVDZ
    Blend: CC-PVDZ
  Basis Set: (CC-PVDZ AUX)
    Blend: CC-PVDZ-JKFIT
  @DF-UKS Final Energy:  -296.87752816770291
    Total Energy =                       -296.8775281677029625
  Basis Set: CC-PVDZ
    Blend: CC-PVDZ
  Basis Set: (CC-PVDZ AUX)
    Blend: CC-PVDZ-JKFIT
  Basis Set: CC-PVDZ
    Blend: CC-PVDZ
  @DF-UKS Final Energy:  -296.97326860218391
    Total Energy =                       -296.9732686021839072
  @DF-UKS Final Energy:  -297.00106430122071
    Total Energy =                       -297.0010643012207083
  @DF-UKS Final Energy:  -297.01362444275230
    Total Energy =                       -297.0136244427523025
  @DF-UKS Final Energy:  -297.01815821091606
    Total Energy =                       -297.0181582109160559
  @DF-UKS Final Energy:  -297.01896677897554
    Total Energy =                       -297.0189667789755390
  @DF-UKS Final Energy:  -297.01912998165540
    Total Energy =                       -297.0191299816553965
  @DF-UKS Final Energy:  -297.01916945785268
    Total Energy =                       -297.0191694578527404
  Basis Set: (CC-PVDZ AUX)
    Blend: CC-PVDZ-JKFIT
  Basis Set: CC-PVDZ
    Blend: CC-PVDZ
  Basis Set: (CC-PVDZ AUX)
    Blend: CC-PVDZ-JKFIT
  @DF-UKS Final Energy:  -297.01917456634965
    Total Energy =                       -297.0191745663496476
  Basis Set: CC-PVDZ
    Blend: CC-PVDZ
  Basis Set: (CC-PVDZ AUX)
    Blend: CC-PVDZ-JKFIT
  Charge       = 0
  Multiplicity = 1
  Basis Set: CC-PVDZ
    Blend: CC-PVDZ
  Basis Set: (CC-PVDZ AUX)
    Blend: CC-PVDZ-JKFIT

    Orbital Energies [Eh]
    ---------------------

    Alpha Occupied:

       1A1   -56.096789     2A1   -14.339592     3A1    -4.179043
       4A1    -2.733335     1B2    -2.730010     1B1    -2.730010
       5A1    -0.705618     6A1    -0.320953     2B2    -0.236491
       2B1    -0.236491

    Alpha Virtual:

       7A1    -0.178569     3B2    -0.038903     3B1    -0.038903
       8A1     0.043648     9A1     0.154941     4B2     0.211827
       4B1     0.211827    10A1     0.262944     1A2     0.262944
      11A1     0.268917     5B2     0.344240     5B1     0.344240
      12A1     0.570271     6B2     0.847456     6B1     0.847456
      13A1     0.851653    14A1     1.305305    15A1     1.832248
       2A2     1.832248     7B2     1.913180     7B1     1.913180
      16A1     2.204017

    Beta Occupied:

       1A1   -56.096789     2A1   -14.339592     3A1    -4.179043
       4A1    -2.733335     1B2    -2.730010     1B1    -2.730010
       5A1    -0.705618     6A1    -0.320953     2B2    -0.236491
       2B1    -0.236491

    Beta Virtual:

       7A1    -0.178569     3B2    -0.038903     3B1    -0.038903
       8A1     0.043648     9A1     0.154941     4B2     0.211827
       4B1     0.211827    10A1     0.262944     1A2     0.262944
      11A1     0.268917     5B1     0.344240     5B2     0.344240
      12A1     0.570271     6B2     0.847456     6B1     0.847456
      13A1     0.851653    14A1     1.305305    15A1     1.832248
       2A2     1.832248     7B2     1.913180     7B1     1.913180
      16A1     2.204017

    Final Occupation by Irrep:
             A1    A2    B1    B2
    DOCC [     6,    0,    2,    2 ]
    SOCC [     0,    0,    0,    0 ]
    NA   [     6,    0,    2,    2 ]
    NB   [     6,    0,    2,    2 ]

  @DF-UKS Final Energy:  -297.01917482549555

   => Energetics <=

    Nuclear Repulsion Energy =             28.3817657765318998
    One-Electron Energy =                -467.5171078048394406
    Two-Electron Energy =                 162.6240384648353086
    DFT Exchange-Correlation Energy =     -20.5078712620233290
    Empirical Dispersion Energy =           0.0000000000000000
    VV10 Nonlocal Energy =                  0.0000000000000000
    Total Energy =                       -297.0191748254955542

  UHF NO Occupations:
  HONO-2 :    2 B1 2.0000000
  HONO-1 :    5 A1 2.0000000
  HONO-0 :    6 A1 2.0000000
  LUNO+0 :    7 A1 0.0000000
  LUNO+1 :    3 B1 0.0000000
  LUNO+2 :    8 A1 0.0000000
  LUNO+3 :    3 B2 0.0000000

Computation Completed

Properties will be evaluated at   0.000000,   0.000000,   0.000000 [a0]

Properties computed using the SCF density matrix

 Multipole Moments:

 ------------------------------------------------------------------------------------
     Multipole            Electronic (a.u.)      Nuclear  (a.u.)        Total (a.u.)
 ------------------------------------------------------------------------------------

 L = 1.  Multiply by 2.5417464519 to convert [e a0] to [Debye]
 Dipole X            :          0.0000000            0.0000000            0.0000000
 Dipole Y            :          0.0000000            0.0000000            0.0000000
 Dipole Z            :         -2.1601734            0.5343837           -1.6257897
 Magnitude           :                                                    1.6257897

 ------------------------------------------------------------------------------------

*** tstop() called on Joses-MacBook-Pro-2.local at Wed Jul 16 19:11:30 2025
Module time:
	user time   =       5.07 seconds =       0.08 minutes
	system time =       3.37 seconds =       0.06 minutes
	total time  =          1 seconds =       0.02 minutes
Total time:
	user time   =      77.22 seconds =       1.29 minutes
	system time =      66.42 seconds =       1.11 minutes
	total time  =         15 seconds =       0.25 minutes

*** tstart() called on Joses-MacBook-Pro-2.local
*** at Wed Jul 16 19:11:30 2025

         ------------------------------------------------------------
                                   SCF GRAD
                          Rob Parrish, Justin Turney,
                       Andy Simmonett, and Alex Sokolov
         ------------------------------------------------------------

  ==> Geometry <==

    Molecular point group: c2v
    Full point group: C_inf_v

    Geometry (in Angstrom), charge = 0, multiplicity = 1:

       Center              X                  Y                   Z               Mass
    ------------   -----------------  -----------------  -----------------  -----------------
         N            0.000000000000     0.000000000000     1.116989241047    14.003074004430
         AL           0.000000000000     0.000000000000    -0.579703154701    26.981538530000

  Nuclear repulsion =   28.381765776531900

  ==> Basis Set <==

  Basis Set: CC-PVDZ
    Blend: CC-PVDZ
    Number of shells: 14
    Number of basis functions: 32
    Number of Cartesian functions: 34
    Spherical Harmonics?: true
    Max angular momentum: 2

  ==> DFJKGrad: Density-Fitted SCF Gradients <==

    Gradient:                    1
    J tasked:                  Yes
    K tasked:                  Yes
    wK tasked:                  No
    OpenMP threads:              1
    Integrals threads:           1
    Memory [MiB]:              375
    Schwarz Cutoff:          1E-12
    Fitting Condition:       1E-10

   => Auxiliary Basis Set <=

  Basis Set: (CC-PVDZ AUX)
    Blend: CC-PVDZ-JKFIT
    Number of shells: 60
    Number of basis functions: 182
    Number of Cartesian functions: 211
    Spherical Harmonics?: true
    Max angular momentum: 3

  ==> DFT Potential <==

   => LibXC <=

    Version 6.2.2
    S. Lehtola, C. Steigemann, M. J.T. Oliveira, and M. A.L. Marques.,  SoftwareX 7, 1â€“5 (2018) (10.1016/j.softx.2017.11.002)

   => Composite Functional: B3LYP <=

    B3LYP Hyb-GGA Exchange-Correlation Functional

    P. J. Stephens, F. J. Devlin, C. F. Chabalowski, and M. J. Frisch.,  J. Phys. Chem. 98, 11623 (1994) (10.1021/j100096a001)

    Deriv               =              1
    GGA                 =           TRUE
    Meta                =          FALSE

    Exchange Hybrid     =           TRUE
    MP2 Hybrid          =          FALSE

   => Exchange Functionals <=

    0.0800   Slater exchange
    0.7200         Becke 88

   => Exact (HF) Exchange <=

    0.2000               HF

   => Correlation Functionals <=

    0.1900   Vosko, Wilk & Nusair (VWN5_RPA)
    0.8100   Lee, Yang & Parr

   => LibXC Density Thresholds  <==

    XC_HYB_GGA_XC_B3LYP:  1.00E-15

   => Molecular Quadrature <=

    Radial Scheme          =       TREUTLER
    Pruning Scheme         =           NONE
    Nuclear Scheme         =       TREUTLER

    Blocking Scheme        =         OCTREE
    BS radius alpha        =              1
    Pruning alpha          =              1
    Radial Points          =             75
    Spherical Points       =            302
    Total Points           =          43444
    Total Blocks           =            402
    Max Points             =            255
    Max Functions          =             32
    Weights Tolerance      =       1.00E-15

  -Total Gradient:
     Atom            X                  Y                   Z
    ------   -----------------  -----------------  -----------------
       1        0.000000000000     0.000000000000    -0.000058842568
       2       -0.000000000000    -0.000000000000     0.000024502879

*** tstop() called on Joses-MacBook-Pro-2.local at Wed Jul 16 19:11:30 2025
Module time:
	user time   =       1.05 seconds =       0.02 minutes
	system time =       1.73 seconds =       0.03 minutes
	total time  =          0 seconds =       0.00 minutes
Total time:
	user time   =      78.28 seconds =       1.30 minutes
	system time =      68.16 seconds =       1.14 minutes
	total time  =         15 seconds =       0.25 minutes

    			-----------------------------------------

    			 OPTKING 3.0: for geometry optimizations

    			     By R.A. King, Bethel University

    			        with contributions from

    			    A.V. Copan, J. Cayton, A. Heide

    			-----------------------------------------

	                            ===> Fragment 1 <==

	 Z (Atomic Numbers)          Masses                          Geom
	       7.000000            14.003074          0.00000000  0.00000000  2.11080375
	      13.000000            26.981539          0.00000000  0.00000000 -1.09548020

	 - Coordinate -           - BOHR/RAD -       - ANG/DEG -
	 R(1,2)           =         3.206284           1.696692

	        --- Internal Coordinate Step in ANG or DEG, aJ/ANG or AJ/DEG ---
	-------------------------------------------------------------------------------
	           Coordinate      Previous         Force          Change          New
	           ----------      --------        ------          ------        ------
	               R(1,2)       1.69669        0.00034        0.00007       1.69677
	-------------------------------------------------------------------------------

	                                 ==> Convergence Check <==

	Measures of convergence in internal coordinates in au.

	Criteria marked as inactive (o), active & met (*), and active & unmet ( ).

	----------------------------------------------------------------------------------------------
	   Step    Total Energy     Delta E     Max Force     RMS Force      Max Disp      RMS Disp
	----------------------------------------------------------------------------------------------
	  Convergence Criteria     1.00e-06 *    3.00e-04 *             o    1.20e-03 *             o
	----------------------------------------------------------------------------------------------
	    11    -297.01917483   -2.59e-07 *    4.17e-05 *    4.17e-05 o    1.38e-04 *    1.38e-04 o  ~
	----------------------------------------------------------------------------------------------

Next Geometry in Ang
	Fragment 1 (Ang)

	    N   0.0000000000   0.0000000000   1.1170257963
	   Al   0.0000000000   0.0000000000  -0.5797397100

    Final optimized geometry and variables:
    Molecular point group: c2v
    Full point group: C_inf_v

    Geometry (in Angstrom), charge = 0, multiplicity = 1:

    N            0.000000000000     0.000000000000     1.116989241047
    AL           0.000000000000     0.000000000000    -0.579703154701

    Psi4 stopped on: Wednesday, 16 July 2025 07:11PM
    Psi4 wall time for execution: 0:00:15.63

*** Psi4 exiting successfully. Buy a developer a beer!
