                               Psi4 1.9.1 release

  ==> Input File <==

--------------------------------------------------------------------------
molecule {
0 1
Ne   0.00000        0.60000        0.00000
Ar   0.00000       -0.60000        0.00000
}

set {
basis              cc-pvdz
reference          uks
maxiter            500
geom_maxiter       500
DAMPING_PERCENTAGE 1
guess              SAP
}

optimize('b3lyp')
--------------------------------------------------------------------------

    Molecular point group: c2v
  Charge       = 0
  Multiplicity = 1
  Basis Set: CC-PVDZ
    Blend: CC-PVDZ
  Basis Set: (CC-PVDZ AUX)
    Blend: CC-PVDZ-JKFIT
  @DF-UKS Final Energy:  -655.39782222896088
    Total Energy =                       -655.3978222289608766
 Dipole X            :          0.0000000            0.0000000            0.0000000
 Dipole Y            :          0.0000000            0.0000000            0.0000000
 Dipole Z            :         -0.1292985            1.5038390            1.3745405
 Magnitude           :                                                    1.3745405
    Molecular point group: c2v
  Basis Set: CC-PVDZ
    Blend: CC-PVDZ
  Basis Set: (CC-PVDZ AUX)
    Blend: CC-PVDZ-JKFIT
  Basis Set: CC-PVDZ
    Blend: CC-PVDZ
  Basis Set: (CC-PVDZ AUX)
    Blend: CC-PVDZ-JKFIT
  @DF-UKS Final Energy:  -655.90377406218022
    Total Energy =                       -655.9037740621802186
  Basis Set: CC-PVDZ
    Blend: CC-PVDZ
  Basis Set: (CC-PVDZ AUX)
    Blend: CC-PVDZ-JKFIT
  Basis Set: CC-PVDZ
    Blend: CC-PVDZ
  @DF-UKS Final Energy:  -656.20149660780555
    Total Energy =                       -656.2014966078055522
  @DF-UKS Final Energy:  -656.32753184611090
    Total Energy =                       -656.3275318461109009
  @DF-UKS Final Energy:  -656.39045005618198
    Total Energy =                       -656.3904500561819759
  @DF-UKS Final Energy:  -656.42187810737676
    Total Energy =                       -656.4218781073767559
  @DF-UKS Final Energy:  -656.43763672737691
    Total Energy =                       -656.4376367273770256
  @DF-UKS Final Energy:  -656.44544460183715
    Total Energy =                       -656.4454446018371527
  @DF-UKS Final Energy:  -656.44921778425066
    Total Energy =                       -656.4492177842505498
  @DF-UKS Final Energy:  -656.45096040929207
    Total Energy =                       -656.4509604092919517
  @DF-UKS Final Energy:  -656.45170791414705
    Total Energy =                       -656.4517079141470504
  @DF-UKS Final Energy:  -656.45199673371485
    Total Energy =                       -656.4519967337148501
  @DF-UKS Final Energy:  -656.45207286615357
    Total Energy =                       -656.4520728661535713
  @DF-UKS Final Energy:  -656.45210581464403
    Total Energy =                       -656.4521058146440282
  @DF-UKS Final Energy:  -656.45211437091655
    Total Energy =                       -656.4521143709164335
  @DF-UKS Final Energy:  -656.45211720278223
    Total Energy =                       -656.4521172027822331
  Basis Set: (CC-PVDZ AUX)
    Blend: CC-PVDZ-JKFIT
  Basis Set: CC-PVDZ
    Blend: CC-PVDZ
  Basis Set: (CC-PVDZ AUX)
    Blend: CC-PVDZ-JKFIT
  @DF-UKS Final Energy:  -656.45211862930933
    Total Energy =                       -656.4521186293093251
  Basis Set: CC-PVDZ
    Blend: CC-PVDZ
  Basis Set: (CC-PVDZ AUX)
    Blend: CC-PVDZ-JKFIT
  Charge       = 0
  Multiplicity = 1
  Basis Set: CC-PVDZ
    Blend: CC-PVDZ
  Basis Set: (CC-PVDZ AUX)
    Blend: CC-PVDZ-JKFIT

    Orbital Energies [Eh]
    ---------------------

    Alpha Occupied:

       1A1  -115.097104     2A1   -30.959457     3A1   -11.133264
       1B1    -8.683137     1B2    -8.683137     4A1    -8.683101
       5A1    -1.424799     6A1    -0.961733     7A1    -0.534145
       2B1    -0.533217     2B2    -0.533217     3B2    -0.419494
       3B1    -0.419494     8A1    -0.418719

    Alpha Virtual:

       9A1     0.580044     4B2     0.583938     4B1     0.583938
      10A1     0.727298    11A1     0.838312     1A2     0.838422
      12A1     0.838422     5B2     0.838449     5B1     0.838449
       6B1     1.366167     6B2     1.366167    13A1     1.390636
      14A1     1.831880     7B1     4.732248     7B2     4.732248
       2A2     4.732259    15A1     4.732486    16A1     4.732664

    Beta Occupied:

       1A1  -115.097104     2A1   -30.959457     3A1   -11.133264
       1B2    -8.683137     1B1    -8.683137     4A1    -8.683101
       5A1    -1.424799     6A1    -0.961733     7A1    -0.534145
       2B1    -0.533217     2B2    -0.533217     3B2    -0.419494
       3B1    -0.419494     8A1    -0.418719

    Beta Virtual:

       9A1     0.580044     4B2     0.583938     4B1     0.583938
      10A1     0.727298    11A1     0.838312     1A2     0.838422
      12A1     0.838422     5B2     0.838449     5B1     0.838449
       6B1     1.366167     6B2     1.366167    13A1     1.390636
      14A1     1.831880     7B1     4.732248     7B2     4.732248
       2A2     4.732259    15A1     4.732486    16A1     4.732664

    Final Occupation by Irrep:
             A1    A2    B1    B2
    DOCC [     8,    0,    3,    3 ]
    SOCC [     0,    0,    0,    0 ]
    NA   [     8,    0,    3,    3 ]
    NB   [     8,    0,    3,    3 ]

  @DF-UKS Final Energy:  -656.45211910036733

   => Energetics <=

    Nuclear Repulsion Energy =             30.2858546825582096
    One-Electron Energy =                -971.5930157986341555
    Two-Electron Energy =                 319.8643968997141087
    DFT Exchange-Correlation Energy =     -35.0093548840056243
    Empirical Dispersion Energy =           0.0000000000000000
    VV10 Nonlocal Energy =                  0.0000000000000000
    Total Energy =                       -656.4521191003674403

  UHF NO Occupations:
  HONO-2 :    6 A1 2.0000000
  HONO-1 :    7 A1 2.0000000
  HONO-0 :    8 A1 2.0000000
  LUNO+0 :    9 A1 0.0000000
  LUNO+1 :   10 A1 0.0000000
  LUNO+2 :   11 A1 0.0000000
  LUNO+3 :    4 B1 0.0000000

Computation Completed

Properties will be evaluated at   0.000000,   0.000000,   0.000000 [a0]

Properties computed using the SCF density matrix

 Multipole Moments:

 ------------------------------------------------------------------------------------
     Multipole            Electronic (a.u.)      Nuclear  (a.u.)        Total (a.u.)
 ------------------------------------------------------------------------------------

 L = 1.  Multiply by 2.5417464519 to convert [e a0] to [Debye]
 Dipole X            :          0.0000000            0.0000000            0.0000000
 Dipole Y            :          0.0000000            0.0000000            0.0000000
 Dipole Z            :         -3.9334355            3.9414309            0.0079954
 Magnitude           :                                                    0.0079954

 ------------------------------------------------------------------------------------

*** tstop() called on Joses-MacBook-Pro-2.local at Wed Jul 16 19:38:21 2025
Module time:
	user time   =       2.85 seconds =       0.05 minutes
	system time =       2.47 seconds =       0.04 minutes
	total time  =          0 seconds =       0.00 minutes
Total time:
	user time   =      79.37 seconds =       1.32 minutes
	system time =      80.46 seconds =       1.34 minutes
	total time  =         15 seconds =       0.25 minutes

*** tstart() called on Joses-MacBook-Pro-2.local
*** at Wed Jul 16 19:38:21 2025

         ------------------------------------------------------------
                                   SCF GRAD
                          Rob Parrish, Justin Turney,
                       Andy Simmonett, and Alex Sokolov
         ------------------------------------------------------------

  ==> Geometry <==

    Molecular point group: c2v
    Full point group: C_inf_v

    Geometry (in Angstrom), charge = 0, multiplicity = 1:

       Center              X                  Y                   Z               Mass
    ------------   -----------------  -----------------  -----------------  -----------------
         NE           0.000000000000     0.000000000000     2.096336786746    19.992440176200
         AR           0.000000000000     0.000000000000    -1.048758470396    39.962383123700

  Nuclear repulsion =   30.285854682558210

  ==> Basis Set <==

  Basis Set: CC-PVDZ
    Blend: CC-PVDZ
    Number of shells: 14
    Number of basis functions: 32
    Number of Cartesian functions: 34
    Spherical Harmonics?: true
    Max angular momentum: 2

  ==> DFJKGrad: Density-Fitted SCF Gradients <==

    Gradient:                    1
    J tasked:                  Yes
    K tasked:                  Yes
    wK tasked:                  No
    OpenMP threads:              1
    Integrals threads:           1
    Memory [MiB]:              375
    Schwarz Cutoff:          1E-12
    Fitting Condition:       1E-10

   => Auxiliary Basis Set <=

  Basis Set: (CC-PVDZ AUX)
    Blend: CC-PVDZ-JKFIT
    Number of shells: 60
    Number of basis functions: 182
    Number of Cartesian functions: 211
    Spherical Harmonics?: true
    Max angular momentum: 3

  ==> DFT Potential <==

   => LibXC <=

    Version 6.2.2
    S. Lehtola, C. Steigemann, M. J.T. Oliveira, and M. A.L. Marques.,  SoftwareX 7, 1â€“5 (2018) (10.1016/j.softx.2017.11.002)

   => Composite Functional: B3LYP <=

    B3LYP Hyb-GGA Exchange-Correlation Functional

    P. J. Stephens, F. J. Devlin, C. F. Chabalowski, and M. J. Frisch.,  J. Phys. Chem. 98, 11623 (1994) (10.1021/j100096a001)

    Deriv               =              1
    GGA                 =           TRUE
    Meta                =          FALSE

    Exchange Hybrid     =           TRUE
    MP2 Hybrid          =          FALSE

   => Exchange Functionals <=

    0.0800   Slater exchange
    0.7200         Becke 88

   => Exact (HF) Exchange <=

    0.2000               HF

   => Correlation Functionals <=

    0.1900   Vosko, Wilk & Nusair (VWN5_RPA)
    0.8100   Lee, Yang & Parr

   => LibXC Density Thresholds  <==

    XC_HYB_GGA_XC_B3LYP:  1.00E-15

   => Molecular Quadrature <=

    Radial Scheme          =       TREUTLER
    Pruning Scheme         =           NONE
    Nuclear Scheme         =       TREUTLER

    Blocking Scheme        =         OCTREE
    BS radius alpha        =              1
    Pruning alpha          =              1
    Radial Points          =             75
    Spherical Points       =            302
    Total Points           =          41520
    Total Blocks           =            377
    Max Points             =            254
    Max Functions          =             32
    Weights Tolerance      =       1.00E-15

  -Total Gradient:
     Atom            X                  Y                   Z
    ------   -----------------  -----------------  -----------------
       1        0.000000000000    -0.000000000000    -0.000018357500
       2       -0.000000000000     0.000000000000    -0.000004871009

*** tstop() called on Joses-MacBook-Pro-2.local at Wed Jul 16 19:38:22 2025
Module time:
	user time   =       0.60 seconds =       0.01 minutes
	system time =       1.49 seconds =       0.02 minutes
	total time  =          1 seconds =       0.02 minutes
Total time:
	user time   =      79.97 seconds =       1.33 minutes
	system time =      81.95 seconds =       1.37 minutes
	total time  =         16 seconds =       0.27 minutes

    			-----------------------------------------

    			 OPTKING 3.0: for geometry optimizations

    			     By R.A. King, Bethel University

    			        with contributions from

    			    A.V. Copan, J. Cayton, A. Heide

    			-----------------------------------------

	                            ===> Fragment 1 <==

	 Z (Atomic Numbers)          Masses                          Geom
	      10.000000            19.992440          0.00000000  0.00000000  3.96150239
	      18.000000            39.962383          0.00000000  0.00000000 -1.98186628

	 - Coordinate -           - BOHR/RAD -       - ANG/DEG -
	 R(1,2)           =         5.943369           3.145095

	        --- Internal Coordinate Step in ANG or DEG, aJ/ANG or AJ/DEG ---
	-------------------------------------------------------------------------------
	           Coordinate      Previous         Force          Change          New
	           ----------      --------        ------          ------        ------
	               R(1,2)       3.14510        0.00006        0.00171       3.14681
	-------------------------------------------------------------------------------

	                                 ==> Convergence Check <==

	Measures of convergence in internal coordinates in au.

	Criteria marked as inactive (o), active & met (*), and active & unmet ( ).

	----------------------------------------------------------------------------------------------
	   Step    Total Energy     Delta E     Max Force     RMS Force      Max Disp      RMS Disp
	----------------------------------------------------------------------------------------------
	  Convergence Criteria     1.00e-06 *    3.00e-04 *             o    1.20e-03 *             o
	----------------------------------------------------------------------------------------------
	    18    -656.45211910   -4.71e-07 *    6.74e-06 *    6.74e-06 o    3.24e-03      3.24e-03 o  ~
	----------------------------------------------------------------------------------------------

Next Geometry in Ang
	Fragment 1 (Ang)

	   Ne   0.0000000000   0.0000000000   2.0971929834
	   Ar   0.0000000000   0.0000000000  -1.0496146671

    Final optimized geometry and variables:
    Molecular point group: c2v
    Full point group: C_inf_v

    Geometry (in Angstrom), charge = 0, multiplicity = 1:

    NE           0.000000000000     0.000000000000     2.096336786746
    AR           0.000000000000     0.000000000000    -1.048758470396

    Psi4 stopped on: Wednesday, 16 July 2025 07:38PM
    Psi4 wall time for execution: 0:00:16.01

*** Psi4 exiting successfully. Buy a developer a beer!
