                               Psi4 1.9.1 release

  ==> Input File <==

--------------------------------------------------------------------------
molecule {
0 1
O   0.00000        0.60000        0.00000
Si   0.00000       -0.60000        0.00000
}

set {
basis              cc-pvdz
reference          uks
maxiter            500
geom_maxiter       500
DAMPING_PERCENTAGE 1
guess              SAP
}

optimize('b3lyp')
--------------------------------------------------------------------------

    Molecular point group: c2v
  Charge       = 0
  Multiplicity = 1
  Basis Set: CC-PVDZ
    Blend: CC-PVDZ
  Basis Set: (CC-PVDZ AUX)
    Blend: CC-PVDZ-JKFIT
  @DF-UKS Final Energy:  -364.50644004290513
    Total Energy =                       -364.5064400429051261
 Dipole X            :          0.0000000            0.0000000            0.0000000
 Dipole Y            :          0.0000000            0.0000000            0.0000000
 Dipole Z            :         -0.7348729           -0.0058478           -0.7407206
 Magnitude           :                                                    0.7407206
    Molecular point group: c2v
  Basis Set: CC-PVDZ
    Blend: CC-PVDZ
  Basis Set: (CC-PVDZ AUX)
    Blend: CC-PVDZ-JKFIT
  Basis Set: CC-PVDZ
    Blend: CC-PVDZ
  Basis Set: (CC-PVDZ AUX)
    Blend: CC-PVDZ-JKFIT
  @DF-UKS Final Energy:  -364.65846465492643
    Total Energy =                       -364.6584646549264335
  Basis Set: CC-PVDZ
    Blend: CC-PVDZ
  Basis Set: (CC-PVDZ AUX)
    Blend: CC-PVDZ-JKFIT
  Basis Set: CC-PVDZ
    Blend: CC-PVDZ
  @DF-UKS Final Energy:  -364.71349125120611
    Total Energy =                       -364.7134912512061078
  @DF-UKS Final Energy:  -364.72776853219642
    Total Energy =                       -364.7277685321964213
  @DF-UKS Final Energy:  -364.73218179550338
    Total Energy =                       -364.7321817955033794
  @DF-UKS Final Energy:  -364.73410864819181
    Total Energy =                       -364.7341086481918069
  @DF-UKS Final Energy:  -364.73448451237510
    Total Energy =                       -364.7344845123751611
  @DF-UKS Final Energy:  -364.73457522266290
    Total Energy =                       -364.7345752226628974
  Basis Set: (CC-PVDZ AUX)
    Blend: CC-PVDZ-JKFIT
  Basis Set: CC-PVDZ
    Blend: CC-PVDZ
  Basis Set: (CC-PVDZ AUX)
    Blend: CC-PVDZ-JKFIT
  @DF-UKS Final Energy:  -364.73458357871624
    Total Energy =                       -364.7345835787162969
  Basis Set: CC-PVDZ
    Blend: CC-PVDZ
  Basis Set: (CC-PVDZ AUX)
    Blend: CC-PVDZ-JKFIT
  Charge       = 0
  Multiplicity = 1
  Basis Set: CC-PVDZ
    Blend: CC-PVDZ
  Basis Set: (CC-PVDZ AUX)
    Blend: CC-PVDZ-JKFIT

    Orbital Energies [Eh]
    ---------------------

    Alpha Occupied:

       1A1   -66.174851     2A1   -19.130805     3A1    -5.321838
       1B1    -3.681058     1B2    -3.681058     4A1    -3.676082
       5A1    -0.938664     6A1    -0.438307     2B1    -0.326349
       2B2    -0.326349     7A1    -0.306873

    Alpha Virtual:

       3B2    -0.071284     3B1    -0.071284     8A1     0.050929
       9A1     0.247681     4B1     0.302171     4B2     0.302171
       1A2     0.351901    10A1     0.351901    11A1     0.373798
       5B1     0.448993     5B2     0.448993    12A1     0.712435
       6B1     1.035589     6B2     1.035589    13A1     1.054618
      14A1     1.729549    15A1     2.619406     2A2     2.619425
       7B1     2.734449     7B2     2.734449    16A1     3.094823

    Beta Occupied:

       1A1   -66.174851     2A1   -19.130805     3A1    -5.321838
       1B1    -3.681058     1B2    -3.681058     4A1    -3.676082
       5A1    -0.938664     6A1    -0.438307     2B1    -0.326349
       2B2    -0.326349     7A1    -0.306873

    Beta Virtual:

       3B2    -0.071284     3B1    -0.071284     8A1     0.050929
       9A1     0.247681     4B1     0.302171     4B2     0.302171
       1A2     0.351901    10A1     0.351901    11A1     0.373798
       5B1     0.448993     5B2     0.448993    12A1     0.712435
       6B1     1.035589     6B2     1.035589    13A1     1.054618
      14A1     1.729549    15A1     2.619406     2A2     2.619425
       7B1     2.734449     7B2     2.734449    16A1     3.094823

    Final Occupation by Irrep:
             A1    A2    B1    B2
    DOCC [     7,    0,    2,    2 ]
    SOCC [     0,    0,    0,    0 ]
    NA   [     7,    0,    2,    2 ]
    NB   [     7,    0,    2,    2 ]

  @DF-UKS Final Energy:  -364.73458388129291

   => Energetics <=

    Nuclear Repulsion Energy =             38.4597480897049024
    One-Electron Energy =                -581.4093767123814587
    Two-Electron Energy =                 201.9789887934142598
    DFT Exchange-Correlation Energy =     -23.7639440520306628
    Empirical Dispersion Energy =           0.0000000000000000
    VV10 Nonlocal Energy =                  0.0000000000000000
    Total Energy =                       -364.7345838812929060

  UHF NO Occupations:
  HONO-2 :    6 A1 2.0000000
  HONO-1 :    7 A1 2.0000000
  HONO-0 :    2 B2 2.0000000
  LUNO+0 :    8 A1 0.0000000
  LUNO+1 :    9 A1 0.0000000
  LUNO+2 :    3 B1 0.0000000
  LUNO+3 :    4 B1 0.0000000

Computation Completed

Properties will be evaluated at   0.000000,   0.000000,   0.000000 [a0]

Properties computed using the SCF density matrix

 Multipole Moments:

 ------------------------------------------------------------------------------------
     Multipole            Electronic (a.u.)      Nuclear  (a.u.)        Total (a.u.)
 ------------------------------------------------------------------------------------

 L = 1.  Multiply by 2.5417464519 to convert [e a0] to [Debye]
 Dipole X            :          0.0000000            0.0000000            0.0000000
 Dipole Y            :          0.0000000            0.0000000            0.0000000
 Dipole Z            :         -1.0811842           -0.0075097           -1.0886939
 Magnitude           :                                                    1.0886939

 ------------------------------------------------------------------------------------

*** tstop() called on Joses-MacBook-Pro-2.local at Wed Jul 16 19:21:21 2025
Module time:
	user time   =       2.38 seconds =       0.04 minutes
	system time =       3.31 seconds =       0.06 minutes
	total time  =          0 seconds =       0.00 minutes
Total time:
	user time   =      53.82 seconds =       0.90 minutes
	system time =      53.34 seconds =       0.89 minutes
	total time  =         11 seconds =       0.18 minutes

*** tstart() called on Joses-MacBook-Pro-2.local
*** at Wed Jul 16 19:21:21 2025

         ------------------------------------------------------------
                                   SCF GRAD
                          Rob Parrish, Justin Turney,
                       Andy Simmonett, and Alex Sokolov
         ------------------------------------------------------------

  ==> Geometry <==

    Molecular point group: c2v
    Full point group: C_inf_v

    Geometry (in Angstrom), charge = 0, multiplicity = 1:

       Center              X                  Y                   Z               Mass
    ------------   -----------------  -----------------  -----------------  -----------------
         O            0.000000000000     0.000000000000     0.980478493820    15.994914619570
         SI           0.000000000000     0.000000000000    -0.560557278354    27.976926534650

  Nuclear repulsion =   38.459748089704902

  ==> Basis Set <==

  Basis Set: CC-PVDZ
    Blend: CC-PVDZ
    Number of shells: 14
    Number of basis functions: 32
    Number of Cartesian functions: 34
    Spherical Harmonics?: true
    Max angular momentum: 2

  ==> DFJKGrad: Density-Fitted SCF Gradients <==

    Gradient:                    1
    J tasked:                  Yes
    K tasked:                  Yes
    wK tasked:                  No
    OpenMP threads:              1
    Integrals threads:           1
    Memory [MiB]:              375
    Schwarz Cutoff:          1E-12
    Fitting Condition:       1E-10

   => Auxiliary Basis Set <=

  Basis Set: (CC-PVDZ AUX)
    Blend: CC-PVDZ-JKFIT
    Number of shells: 60
    Number of basis functions: 182
    Number of Cartesian functions: 211
    Spherical Harmonics?: true
    Max angular momentum: 3

  ==> DFT Potential <==

   => LibXC <=

    Version 6.2.2
    S. Lehtola, C. Steigemann, M. J.T. Oliveira, and M. A.L. Marques.,  SoftwareX 7, 1â€“5 (2018) (10.1016/j.softx.2017.11.002)

   => Composite Functional: B3LYP <=

    B3LYP Hyb-GGA Exchange-Correlation Functional

    P. J. Stephens, F. J. Devlin, C. F. Chabalowski, and M. J. Frisch.,  J. Phys. Chem. 98, 11623 (1994) (10.1021/j100096a001)

    Deriv               =              1
    GGA                 =           TRUE
    Meta                =          FALSE

    Exchange Hybrid     =           TRUE
    MP2 Hybrid          =          FALSE

   => Exchange Functionals <=

    0.0800   Slater exchange
    0.7200         Becke 88

   => Exact (HF) Exchange <=

    0.2000               HF

   => Correlation Functionals <=

    0.1900   Vosko, Wilk & Nusair (VWN5_RPA)
    0.8100   Lee, Yang & Parr

   => LibXC Density Thresholds  <==

    XC_HYB_GGA_XC_B3LYP:  1.00E-15

   => Molecular Quadrature <=

    Radial Scheme          =       TREUTLER
    Pruning Scheme         =           NONE
    Nuclear Scheme         =       TREUTLER

    Blocking Scheme        =         OCTREE
    BS radius alpha        =              1
    Pruning alpha          =              1
    Radial Points          =             75
    Spherical Points       =            302
    Total Points           =          42667
    Total Blocks           =            390
    Max Points             =            256
    Max Functions          =             32
    Weights Tolerance      =       1.00E-15

  -Total Gradient:
     Atom            X                  Y                   Z
    ------   -----------------  -----------------  -----------------
       1        0.000000000000     0.000000000000    -0.000088691043
       2       -0.000000000000     0.000000000000     0.000051225728

*** tstop() called on Joses-MacBook-Pro-2.local at Wed Jul 16 19:21:21 2025
Module time:
	user time   =       0.72 seconds =       0.01 minutes
	system time =       1.70 seconds =       0.03 minutes
	total time  =          0 seconds =       0.00 minutes
Total time:
	user time   =      54.54 seconds =       0.91 minutes
	system time =      55.04 seconds =       0.92 minutes
	total time  =         11 seconds =       0.18 minutes

    			-----------------------------------------

    			 OPTKING 3.0: for geometry optimizations

    			     By R.A. King, Bethel University

    			        with contributions from

    			    A.V. Copan, J. Cayton, A. Heide

    			-----------------------------------------

	                            ===> Fragment 1 <==

	 Z (Atomic Numbers)          Masses                          Geom
	       8.000000            15.994915          0.00000000  0.00000000  1.85283583
	      14.000000            27.976927          0.00000000  0.00000000 -1.05929973

	 - Coordinate -           - BOHR/RAD -       - ANG/DEG -
	 R(1,2)           =         2.912136           1.541036

	        --- Internal Coordinate Step in ANG or DEG, aJ/ANG or AJ/DEG ---
	-------------------------------------------------------------------------------
	           Coordinate      Previous         Force          Change          New
	           ----------      --------        ------          ------        ------
	               R(1,2)       1.54104        0.00058        0.00006       1.54110
	-------------------------------------------------------------------------------

	                                 ==> Convergence Check <==

	Measures of convergence in internal coordinates in au.

	Criteria marked as inactive (o), active & met (*), and active & unmet ( ).

	----------------------------------------------------------------------------------------------
	   Step    Total Energy     Delta E     Max Force     RMS Force      Max Disp      RMS Disp
	----------------------------------------------------------------------------------------------
	  Convergence Criteria     1.00e-06 *    3.00e-04 *             o    1.20e-03 *             o
	----------------------------------------------------------------------------------------------
	    10    -364.73458388   -3.03e-07 *    7.00e-05 *    7.00e-05 o    1.18e-04 *    1.18e-04 o  ~
	----------------------------------------------------------------------------------------------

Next Geometry in Ang
	Fragment 1 (Ang)

	    O   0.0000000000   0.0000000000   0.9805098179
	   Si   0.0000000000   0.0000000000  -0.5605886024

    Final optimized geometry and variables:
    Molecular point group: c2v
    Full point group: C_inf_v

    Geometry (in Angstrom), charge = 0, multiplicity = 1:

    O            0.000000000000     0.000000000000     0.980478493820
    SI           0.000000000000     0.000000000000    -0.560557278354

    Psi4 stopped on: Wednesday, 16 July 2025 07:21PM
    Psi4 wall time for execution: 0:00:11.57

*** Psi4 exiting successfully. Buy a developer a beer!
