                               Psi4 1.9.1 release

  ==> Input File <==

--------------------------------------------------------------------------
molecule {
0 1
N   0.00000        0.60000        0.00000
P   0.00000       -0.60000        0.00000
}

set {
basis              cc-pvdz
reference          uks
maxiter            500
geom_maxiter       500
DAMPING_PERCENTAGE 1
guess              SAP
}

optimize('b3lyp')
--------------------------------------------------------------------------

    Molecular point group: c2v
  Charge       = 0
  Multiplicity = 1
  Basis Set: CC-PVDZ
    Blend: CC-PVDZ
  Basis Set: (CC-PVDZ AUX)
    Blend: CC-PVDZ-JKFIT
  @DF-UKS Final Energy:  -395.87820477158112
    Total Energy =                       -395.8782047715811245
 Dipole X            :          0.0000000            0.0000000            0.0000000
 Dipole Y            :          0.0000000            0.0000000            0.0000000
 Dipole Z            :         -1.3658703            0.3413456           -1.0245247
 Magnitude           :                                                    1.0245247
    Molecular point group: c2v
  Basis Set: CC-PVDZ
    Blend: CC-PVDZ
  Basis Set: (CC-PVDZ AUX)
    Blend: CC-PVDZ-JKFIT
  Basis Set: CC-PVDZ
    Blend: CC-PVDZ
  Basis Set: (CC-PVDZ AUX)
    Blend: CC-PVDZ-JKFIT
  @DF-UKS Final Energy:  -396.01896834071061
    Total Energy =                       -396.0189683407106713
  Basis Set: CC-PVDZ
    Blend: CC-PVDZ
  Basis Set: (CC-PVDZ AUX)
    Blend: CC-PVDZ-JKFIT
  Basis Set: CC-PVDZ
    Blend: CC-PVDZ
  @DF-UKS Final Energy:  -396.06555214368552
    Total Energy =                       -396.0655521436855224
  @DF-UKS Final Energy:  -396.07630981539455
    Total Energy =                       -396.0763098153945521
  @DF-UKS Final Energy:  -396.07926999471061
    Total Energy =                       -396.0792699947106144
  @DF-UKS Final Energy:  -396.08039052909771
    Total Energy =                       -396.0803905290977127
  @DF-UKS Final Energy:  -396.08056691161869
    Total Energy =                       -396.0805669116186891
  Basis Set: (CC-PVDZ AUX)
    Blend: CC-PVDZ-JKFIT
  Basis Set: CC-PVDZ
    Blend: CC-PVDZ
  Basis Set: (CC-PVDZ AUX)
    Blend: CC-PVDZ-JKFIT
  @DF-UKS Final Energy:  -396.08060005508395
    Total Energy =                       -396.0806000550838917
  Basis Set: CC-PVDZ
    Blend: CC-PVDZ
  Basis Set: (CC-PVDZ AUX)
    Blend: CC-PVDZ-JKFIT
  Charge       = 0
  Multiplicity = 1
  Basis Set: CC-PVDZ
    Blend: CC-PVDZ
  Basis Set: (CC-PVDZ AUX)
    Blend: CC-PVDZ-JKFIT

    Orbital Energies [Eh]
    ---------------------

    Alpha Occupied:

       1A1   -77.124372     2A1   -14.364785     3A1    -6.599070
       1B2    -4.760192     1B1    -4.760192     4A1    -4.756931
       5A1    -0.851432     6A1    -0.492520     2B1    -0.330435
       2B2    -0.330435     7A1    -0.321964

    Alpha Virtual:

       3B1    -0.080724     3B2    -0.080724     8A1     0.078631
       9A1     0.341017     4B2     0.396747     4B1     0.396747
       1A2     0.447794    10A1     0.447795    11A1     0.464820
       5B2     0.552200     5B1     0.552200    12A1     0.653369
       6B2     0.788848     6B1     0.788848    13A1     1.069147
      14A1     1.232990     2A2     1.781162    15A1     1.781165
       7B2     2.010304     7B1     2.010304    16A1     2.494441

    Beta Occupied:

       1A1   -77.124372     2A1   -14.364785     3A1    -6.599070
       1B2    -4.760192     1B1    -4.760192     4A1    -4.756931
       5A1    -0.851432     6A1    -0.492520     2B1    -0.330435
       2B2    -0.330435     7A1    -0.321964

    Beta Virtual:

       3B1    -0.080724     3B2    -0.080724     8A1     0.078631
       9A1     0.341017     4B2     0.396747     4B1     0.396747
       1A2     0.447794    10A1     0.447795    11A1     0.464820
       5B1     0.552200     5B2     0.552200    12A1     0.653369
       6B2     0.788848     6B1     0.788848    13A1     1.069147
      14A1     1.232990     2A2     1.781162    15A1     1.781165
       7B1     2.010304     7B2     2.010304    16A1     2.494441

    Final Occupation by Irrep:
             A1    A2    B1    B2
    DOCC [     7,    0,    2,    2 ]
    SOCC [     0,    0,    0,    0 ]
    NA   [     7,    0,    2,    2 ]
    NB   [     7,    0,    2,    2 ]

  @DF-UKS Final Energy:  -396.08060212266923

   => Energetics <=

    Nuclear Repulsion Energy =             37.0098373726980370
    One-Electron Energy =                -619.4940784289394742
    Two-Electron Energy =                 210.6488051614918788
    DFT Exchange-Correlation Energy =     -24.2451662279197073
    Empirical Dispersion Energy =           0.0000000000000000
    VV10 Nonlocal Energy =                  0.0000000000000000
    Total Energy =                       -396.0806021226692906

  UHF NO Occupations:
  HONO-2 :    6 A1 2.0000000
  HONO-1 :    2 B1 2.0000000
  HONO-0 :    7 A1 2.0000000
  LUNO+0 :    8 A1 0.0000000
  LUNO+1 :    3 B2 0.0000000
  LUNO+2 :    9 A1 0.0000000
  LUNO+3 :   10 A1 0.0000000

Computation Completed

Properties will be evaluated at   0.000000,   0.000000,   0.000000 [a0]

Properties computed using the SCF density matrix

 Multipole Moments:

 ------------------------------------------------------------------------------------
     Multipole            Electronic (a.u.)      Nuclear  (a.u.)        Total (a.u.)
 ------------------------------------------------------------------------------------

 L = 1.  Multiply by 2.5417464519 to convert [e a0] to [Debye]
 Dipole X            :          0.0000000            0.0000000            0.0000000
 Dipole Y            :          0.0000000            0.0000000            0.0000000
 Dipole Z            :         -1.3979808            0.4270574           -0.9709234
 Magnitude           :                                                    0.9709234

 ------------------------------------------------------------------------------------

*** tstop() called on Joses-MacBook-Pro-2.local at Wed Jul 16 19:13:15 2025
Module time:
	user time   =       4.17 seconds =       0.07 minutes
	system time =       3.58 seconds =       0.06 minutes
	total time  =          1 seconds =       0.02 minutes
Total time:
	user time   =      57.51 seconds =       0.96 minutes
	system time =      47.15 seconds =       0.79 minutes
	total time  =         11 seconds =       0.18 minutes

*** tstart() called on Joses-MacBook-Pro-2.local
*** at Wed Jul 16 19:13:15 2025

         ------------------------------------------------------------
                                   SCF GRAD
                          Rob Parrish, Justin Turney,
                       Andy Simmonett, and Alex Sokolov
         ------------------------------------------------------------

  ==> Geometry <==

    Molecular point group: c2v
    Full point group: C_inf_v

    Geometry (in Angstrom), charge = 0, multiplicity = 1:

       Center              X                  Y                   Z               Mass
    ------------   -----------------  -----------------  -----------------  -----------------
         N            0.000000000000     0.000000000000     1.033899466612    14.003074004430
         P            0.000000000000     0.000000000000    -0.467420481401    30.973761998420

  Nuclear repulsion =   37.009837372698037

  ==> Basis Set <==

  Basis Set: CC-PVDZ
    Blend: CC-PVDZ
    Number of shells: 14
    Number of basis functions: 32
    Number of Cartesian functions: 34
    Spherical Harmonics?: true
    Max angular momentum: 2

  ==> DFJKGrad: Density-Fitted SCF Gradients <==

    Gradient:                    1
    J tasked:                  Yes
    K tasked:                  Yes
    wK tasked:                  No
    OpenMP threads:              1
    Integrals threads:           1
    Memory [MiB]:              375
    Schwarz Cutoff:          1E-12
    Fitting Condition:       1E-10

   => Auxiliary Basis Set <=

  Basis Set: (CC-PVDZ AUX)
    Blend: CC-PVDZ-JKFIT
    Number of shells: 60
    Number of basis functions: 182
    Number of Cartesian functions: 211
    Spherical Harmonics?: true
    Max angular momentum: 3

  ==> DFT Potential <==

   => LibXC <=

    Version 6.2.2
    S. Lehtola, C. Steigemann, M. J.T. Oliveira, and M. A.L. Marques.,  SoftwareX 7, 1â€“5 (2018) (10.1016/j.softx.2017.11.002)

   => Composite Functional: B3LYP <=

    B3LYP Hyb-GGA Exchange-Correlation Functional

    P. J. Stephens, F. J. Devlin, C. F. Chabalowski, and M. J. Frisch.,  J. Phys. Chem. 98, 11623 (1994) (10.1021/j100096a001)

    Deriv               =              1
    GGA                 =           TRUE
    Meta                =          FALSE

    Exchange Hybrid     =           TRUE
    MP2 Hybrid          =          FALSE

   => Exchange Functionals <=

    0.0800   Slater exchange
    0.7200         Becke 88

   => Exact (HF) Exchange <=

    0.2000               HF

   => Correlation Functionals <=

    0.1900   Vosko, Wilk & Nusair (VWN5_RPA)
    0.8100   Lee, Yang & Parr

   => LibXC Density Thresholds  <==

    XC_HYB_GGA_XC_B3LYP:  1.00E-15

   => Molecular Quadrature <=

    Radial Scheme          =       TREUTLER
    Pruning Scheme         =           NONE
    Nuclear Scheme         =       TREUTLER

    Blocking Scheme        =         OCTREE
    BS radius alpha        =              1
    Pruning alpha          =              1
    Radial Points          =             75
    Spherical Points       =            302
    Total Points           =          42137
    Total Blocks           =            378
    Max Points             =            253
    Max Functions          =             32
    Weights Tolerance      =       1.00E-15

  -Total Gradient:
     Atom            X                  Y                   Z
    ------   -----------------  -----------------  -----------------
       1       -0.000000000000     0.000000000000    -0.000257317042
       2        0.000000000000    -0.000000000000     0.000234887743

*** tstop() called on Joses-MacBook-Pro-2.local at Wed Jul 16 19:13:15 2025
Module time:
	user time   =       1.24 seconds =       0.02 minutes
	system time =       1.68 seconds =       0.03 minutes
	total time  =          0 seconds =       0.00 minutes
Total time:
	user time   =      58.75 seconds =       0.98 minutes
	system time =      48.83 seconds =       0.81 minutes
	total time  =         11 seconds =       0.18 minutes

    			-----------------------------------------

    			 OPTKING 3.0: for geometry optimizations

    			     By R.A. King, Bethel University

    			        with contributions from

    			    A.V. Copan, J. Cayton, A. Heide

    			-----------------------------------------

	                            ===> Fragment 1 <==

	 Z (Atomic Numbers)          Masses                          Geom
	       7.000000            14.003074          0.00000000  0.00000000  1.95378683
	      15.000000            30.973762          0.00000000  0.00000000 -0.88329670

	 - Coordinate -           - BOHR/RAD -       - ANG/DEG -
	 R(1,2)           =         2.837084           1.501320

	        --- Internal Coordinate Step in ANG or DEG, aJ/ANG or AJ/DEG ---
	-------------------------------------------------------------------------------
	           Coordinate      Previous         Force          Change          New
	           ----------      --------        ------          ------        ------
	               R(1,2)       1.50132        0.00203        0.00017       1.50149
	-------------------------------------------------------------------------------

	                                 ==> Convergence Check <==

	Measures of convergence in internal coordinates in au.

	Criteria marked as inactive (o), active & met (*), and active & unmet ( ).

	----------------------------------------------------------------------------------------------
	   Step    Total Energy     Delta E     Max Force     RMS Force      Max Disp      RMS Disp
	----------------------------------------------------------------------------------------------
	  Convergence Criteria     1.00e-06 *    3.00e-04 *             o    1.20e-03 *             o
	----------------------------------------------------------------------------------------------
	     9    -396.08060212   -2.07e-06      2.46e-04 *    2.46e-04 o    3.29e-04 *    3.29e-04 o  ~
	----------------------------------------------------------------------------------------------

Next Geometry in Ang
	Fragment 1 (Ang)

	    N   0.0000000000   0.0000000000   1.0339866253
	    P   0.0000000000   0.0000000000  -0.4675076401

    Final optimized geometry and variables:
    Molecular point group: c2v
    Full point group: C_inf_v

    Geometry (in Angstrom), charge = 0, multiplicity = 1:

    N            0.000000000000     0.000000000000     1.033899466612
    P            0.000000000000     0.000000000000    -0.467420481401

    Psi4 stopped on: Wednesday, 16 July 2025 07:13PM
    Psi4 wall time for execution: 0:00:11.67

*** Psi4 exiting successfully. Buy a developer a beer!
