                               Psi4 1.9.1 release

  ==> Input File <==

--------------------------------------------------------------------------
molecule {
0 1
Al   0.00000        0.60000        0.00000
Al   0.00000       -0.60000        0.00000
}

set {
basis              cc-pvdz
reference          uks
maxiter            500
geom_maxiter       500
DAMPING_PERCENTAGE 1
guess              SAP
}

optimize('b3lyp')
--------------------------------------------------------------------------

    Molecular point group: d2h
  Charge       = 0
  Multiplicity = 1
  Basis Set: CC-PVDZ
    Blend: CC-PVDZ
  Basis Set: (CC-PVDZ AUX)
    Blend: CC-PVDZ-JKFIT
  @DF-UKS Final Energy:  -483.75792539451106
    Total Energy =                       -483.7579253945110622
 Dipole X            :          0.0000000            0.0000000            0.0000000
 Dipole Y            :          0.0000000            0.0000000            0.0000000
 Dipole Z            :          0.0000000            0.0000000            0.0000000
 Magnitude           :                                                    0.0000000
    Molecular point group: d2h
  Basis Set: CC-PVDZ
    Blend: CC-PVDZ
  Basis Set: (CC-PVDZ AUX)
    Blend: CC-PVDZ-JKFIT
  Basis Set: CC-PVDZ
    Blend: CC-PVDZ
  Basis Set: (CC-PVDZ AUX)
    Blend: CC-PVDZ-JKFIT
  @DF-UKS Final Energy:  -483.76875906263285
    Total Energy =                       -483.7687590626328529
  Basis Set: CC-PVDZ
    Blend: CC-PVDZ
  Basis Set: (CC-PVDZ AUX)
    Blend: CC-PVDZ-JKFIT
  Basis Set: CC-PVDZ
    Blend: CC-PVDZ
  @DF-UKS Final Energy:  -483.78972092952120
    Total Energy =                       -483.7897209295211951
  @DF-UKS Final Energy:  -483.86624989028718
    Total Energy =                       -483.8662498902871789
  @DF-UKS Final Energy:  -484.25575286790695
    Total Energy =                       -484.2557528679069492
  @DF-UKS Final Energy:  -484.54408378871824
    Total Energy =                       -484.5440837887182397
  @DF-UKS Final Energy:  -484.68404517803373
    Total Energy =                       -484.6840451780337276
  @DF-UKS Final Energy:  -484.74708604743506
    Total Energy =                       -484.7470860474350616
  @DF-UKS Final Energy:  -484.77375891859168
    Total Energy =                       -484.7737589185916818
  @DF-UKS Final Energy:  -484.78393126242145
    Total Energy =                       -484.7839312624214472
  @DF-UKS Final Energy:  -484.78702707359628
    Total Energy =                       -484.7870270735962208
  @DF-UKS Final Energy:  -484.78756282670071
    Total Energy =                       -484.7875628267007073
  @DF-UKS Final Energy:  -484.78768486155286
    Total Energy =                       -484.7876848615528615
  @DF-UKS Final Energy:  -484.78769578366104
    Total Energy =                       -484.7876957836610359
  Basis Set: (CC-PVDZ AUX)
    Blend: CC-PVDZ-JKFIT
  Basis Set: CC-PVDZ
    Blend: CC-PVDZ
  Basis Set: (CC-PVDZ AUX)
    Blend: CC-PVDZ-JKFIT
  @DF-UKS Final Energy:  -484.78769680801332
    Total Energy =                       -484.7876968080133224
  Basis Set: CC-PVDZ
    Blend: CC-PVDZ
  Basis Set: (CC-PVDZ AUX)
    Blend: CC-PVDZ-JKFIT
  Charge       = 0
  Multiplicity = 1
  Basis Set: CC-PVDZ
    Blend: CC-PVDZ
  Basis Set: (CC-PVDZ AUX)
    Blend: CC-PVDZ-JKFIT

    Orbital Energies [Eh]
    ---------------------

    Alpha Occupied:

       1B2u  -56.077719     1Ag   -56.077718     2B2u   -4.157216
       2Ag    -4.157163     1B3u   -2.711815     1B1g   -2.711764
       3Ag    -2.711176     3B2u   -2.710491     1B1u   -2.705336
       1B3g   -2.705281     4Ag    -0.377430     4B2u   -0.266727
       2B1u   -0.141496

    Alpha Virtual:

       5Ag    -0.115505     2B3u   -0.110816     2B1g   -0.038985
       2B3g   -0.035492     5B2u    0.038623     6Ag     0.131301
       7Ag     0.175426     3B3u    0.181894     3B1u    0.186923
       6B2u    0.208106     1B2g    0.233895     8Ag     0.236244
       4B3u    0.238565     3B1g    0.239438     3B3g    0.246839
       4B1u    0.247445     1Au     0.311845     7B2u    0.313482
       8B2u    0.316116     9Ag     0.417340     4B1g    0.439019
       4B3g    0.449506     9B2u    0.634606

    Beta Occupied:

       1B2u  -56.077719     1Ag   -56.077718     2B2u   -4.157216
       2Ag    -4.157163     1B3u   -2.711815     1B1g   -2.711764
       3Ag    -2.711176     3B2u   -2.710491     1B1u   -2.705336
       1B3g   -2.705281     4Ag    -0.377430     4B2u   -0.266727
       2B1u   -0.141496

    Beta Virtual:

       5Ag    -0.115505     2B3u   -0.110816     2B1g   -0.038985
       2B3g   -0.035492     5B2u    0.038623     6Ag     0.131301
       7Ag     0.175426     3B3u    0.181894     3B1u    0.186923
       6B2u    0.208106     1B2g    0.233895     8Ag     0.236244
       4B3u    0.238565     3B1g    0.239438     3B3g    0.246839
       4B1u    0.247445     1Au     0.311845     7B2u    0.313482
       8B2u    0.316116     9Ag     0.417340     4B1g    0.439019
       4B3g    0.449506     9B2u    0.634606

    Final Occupation by Irrep:
             Ag   B1g   B2g   B3g    Au   B1u   B2u   B3u
    DOCC [     4,    1,    0,    1,    0,    2,    4,    1 ]
    SOCC [     0,    0,    0,    0,    0,    0,    0,    0 ]
    NA   [     4,    1,    0,    1,    0,    2,    4,    1 ]
    NB   [     4,    1,    0,    1,    0,    2,    4,    1 ]

  @DF-UKS Final Energy:  -484.78769692386845

   => Energetics <=

    Nuclear Repulsion Energy =             34.7390265256592770
    One-Electron Energy =                -742.6563773569564546
    Two-Electron Energy =                 253.0887884251654611
    DFT Exchange-Correlation Energy =     -29.9591345177367145
    Empirical Dispersion Energy =           0.0000000000000000
    VV10 Nonlocal Energy =                  0.0000000000000000
    Total Energy =                       -484.7876969238684524

  UHF NO Occupations:
  HONO-2 :    2B1u 2.0000000
  HONO-1 :    4 Ag 2.0000000
  HONO-0 :    4B2u 2.0000000
  LUNO+0 :    5B2u 0.0000000
  LUNO+1 :    5 Ag 0.0000000
  LUNO+2 :    6 Ag 0.0000000
  LUNO+3 :    2B3u 0.0000000

Computation Completed

Properties will be evaluated at   0.000000,   0.000000,   0.000000 [a0]

Properties computed using the SCF density matrix

 Multipole Moments:

 ------------------------------------------------------------------------------------
     Multipole            Electronic (a.u.)      Nuclear  (a.u.)        Total (a.u.)
 ------------------------------------------------------------------------------------

 L = 1.  Multiply by 2.5417464519 to convert [e a0] to [Debye]
 Dipole X            :          0.0000000            0.0000000            0.0000000
 Dipole Y            :          0.0000000            0.0000000            0.0000000
 Dipole Z            :          0.0000000            0.0000000            0.0000000
 Magnitude           :                                                    0.0000000

 ------------------------------------------------------------------------------------

*** tstop() called on Joses-MacBook-Pro-2.local at Wed Jul 16 20:04:30 2025
Module time:
	user time   =      18.39 seconds =       0.31 minutes
	system time =       2.33 seconds =       0.04 minutes
	total time  =          2 seconds =       0.03 minutes
Total time:
	user time   =     187.46 seconds =       3.12 minutes
	system time =      52.64 seconds =       0.88 minutes
	total time  =         23 seconds =       0.38 minutes

*** tstart() called on Joses-MacBook-Pro-2.local
*** at Wed Jul 16 20:04:30 2025

         ------------------------------------------------------------
                                   SCF GRAD
                          Rob Parrish, Justin Turney,
                       Andy Simmonett, and Alex Sokolov
         ------------------------------------------------------------

  ==> Geometry <==

    Molecular point group: d2h
    Full point group: D_inf_h

    Geometry (in Angstrom), charge = 0, multiplicity = 1:

       Center              X                  Y                   Z               Mass
    ------------   -----------------  -----------------  -----------------  -----------------
         AL          -0.000000000000     1.287182709872     0.000000000000    26.981538530000
         AL           0.000000000000    -1.287182709872     0.000000000000    26.981538530000

  Nuclear repulsion =   34.739026525659277

  ==> Basis Set <==

  Basis Set: CC-PVDZ
    Blend: CC-PVDZ
    Number of shells: 16
    Number of basis functions: 36
    Number of Cartesian functions: 38
    Spherical Harmonics?: true
    Max angular momentum: 2

  ==> DFJKGrad: Density-Fitted SCF Gradients <==

    Gradient:                    1
    J tasked:                  Yes
    K tasked:                  Yes
    wK tasked:                  No
    OpenMP threads:              1
    Integrals threads:           1
    Memory [MiB]:              375
    Schwarz Cutoff:          1E-12
    Fitting Condition:       1E-10

   => Auxiliary Basis Set <=

  Basis Set: (CC-PVDZ AUX)
    Blend: CC-PVDZ-JKFIT
    Number of shells: 72
    Number of basis functions: 224
    Number of Cartesian functions: 260
    Spherical Harmonics?: true
    Max angular momentum: 3

  ==> DFT Potential <==

   => LibXC <=

    Version 6.2.2
    S. Lehtola, C. Steigemann, M. J.T. Oliveira, and M. A.L. Marques.,  SoftwareX 7, 1â€“5 (2018) (10.1016/j.softx.2017.11.002)

   => Composite Functional: B3LYP <=

    B3LYP Hyb-GGA Exchange-Correlation Functional

    P. J. Stephens, F. J. Devlin, C. F. Chabalowski, and M. J. Frisch.,  J. Phys. Chem. 98, 11623 (1994) (10.1021/j100096a001)

    Deriv               =              1
    GGA                 =           TRUE
    Meta                =          FALSE

    Exchange Hybrid     =           TRUE
    MP2 Hybrid          =          FALSE

   => Exchange Functionals <=

    0.0800   Slater exchange
    0.7200         Becke 88

   => Exact (HF) Exchange <=

    0.2000               HF

   => Correlation Functionals <=

    0.1900   Vosko, Wilk & Nusair (VWN5_RPA)
    0.8100   Lee, Yang & Parr

   => LibXC Density Thresholds  <==

    XC_HYB_GGA_XC_B3LYP:  1.00E-15

   => Molecular Quadrature <=

    Radial Scheme          =       TREUTLER
    Pruning Scheme         =           NONE
    Nuclear Scheme         =       TREUTLER

    Blocking Scheme        =         OCTREE
    BS radius alpha        =              1
    Pruning alpha          =              1
    Radial Points          =             75
    Spherical Points       =            302
    Total Points           =          42358
    Total Blocks           =            400
    Max Points             =            250
    Max Functions          =             36
    Weights Tolerance      =       1.00E-15

  -Total Gradient:
     Atom            X                  Y                   Z
    ------   -----------------  -----------------  -----------------
       1        0.000000000000    -0.000015525749     0.000000000000
       2       -0.000000000000     0.000015525749     0.000000000000

*** tstop() called on Joses-MacBook-Pro-2.local at Wed Jul 16 20:04:31 2025
Module time:
	user time   =       2.18 seconds =       0.04 minutes
	system time =       1.56 seconds =       0.03 minutes
	total time  =          1 seconds =       0.02 minutes
Total time:
	user time   =     189.64 seconds =       3.16 minutes
	system time =      54.20 seconds =       0.90 minutes
	total time  =         24 seconds =       0.40 minutes

    			-----------------------------------------

    			 OPTKING 3.0: for geometry optimizations

    			     By R.A. King, Bethel University

    			        with contributions from

    			    A.V. Copan, J. Cayton, A. Heide

    			-----------------------------------------

	                            ===> Fragment 1 <==

	 Z (Atomic Numbers)          Masses                          Geom
	      13.000000            26.981539         -0.00000000  2.43242280  0.00000000
	      13.000000            26.981539          0.00000000 -2.43242280  0.00000000

	 - Coordinate -           - BOHR/RAD -       - ANG/DEG -
	 R(1,2)           =         4.864846           2.574365

	        --- Internal Coordinate Step in ANG or DEG, aJ/ANG or AJ/DEG ---
	-------------------------------------------------------------------------------
	           Coordinate      Previous         Force          Change          New
	           ----------      --------        ------          ------        ------
	               R(1,2)       2.57437        0.00013        0.00017       2.57453
	-------------------------------------------------------------------------------

	                                 ==> Convergence Check <==

	Measures of convergence in internal coordinates in au.

	Criteria marked as inactive (o), active & met (*), and active & unmet ( ).

	----------------------------------------------------------------------------------------------
	   Step    Total Energy     Delta E     Max Force     RMS Force      Max Disp      RMS Disp
	----------------------------------------------------------------------------------------------
	  Convergence Criteria     1.00e-06 *    3.00e-04 *             o    1.20e-03 *             o
	----------------------------------------------------------------------------------------------
	    16    -484.78769692   -1.16e-07 *    1.55e-05 *    1.55e-05 o    3.16e-04 *    3.16e-04 o  ~
	----------------------------------------------------------------------------------------------

Next Geometry in Ang
	Fragment 1 (Ang)

	   Al  -0.0000000000   1.2872662302   0.0000000000
	   Al   0.0000000000  -1.2872662302   0.0000000000

    Final optimized geometry and variables:
    Molecular point group: d2h
    Full point group: D_inf_h

    Geometry (in Angstrom), charge = 0, multiplicity = 1:

    AL          -0.000000000000     1.287182709872     0.000000000000
    AL           0.000000000000    -1.287182709872     0.000000000000

    Psi4 stopped on: Wednesday, 16 July 2025 08:04PM
    Psi4 wall time for execution: 0:00:24.37

*** Psi4 exiting successfully. Buy a developer a beer!
