                               Psi4 1.9.1 release

  ==> Input File <==

--------------------------------------------------------------------------
molecule {
0 1
O   0.00000        0.60000        0.00000
Ne   0.00000       -0.60000        0.00000
}

set {
basis              cc-pvdz
reference          uks
maxiter            500
geom_maxiter       500
DAMPING_PERCENTAGE 1
guess              SAP
}

optimize('b3lyp')
--------------------------------------------------------------------------

    Molecular point group: c2v
  Charge       = 0
  Multiplicity = 1
  Basis Set: CC-PVDZ
    Blend: CC-PVDZ
  Basis Set: (CC-PVDZ AUX)
    Blend: CC-PVDZ-JKFIT
  @DF-UKS Final Energy:  -203.73618986887979
    Total Energy =                       -203.7361898688797908
 Dipole X            :          0.0000000            0.0000000            0.0000000
 Dipole Y            :          0.0000000            0.0000000            0.0000000
 Dipole Z            :         -1.1019248           -0.0006065           -1.1025313
 Magnitude           :                                                    1.1025313
    Molecular point group: c2v
  Basis Set: CC-PVDZ
    Blend: CC-PVDZ
  Basis Set: (CC-PVDZ AUX)
    Blend: CC-PVDZ-JKFIT
  Basis Set: CC-PVDZ
    Blend: CC-PVDZ
  Basis Set: (CC-PVDZ AUX)
    Blend: CC-PVDZ-JKFIT
  @DF-UKS Final Energy:  -203.83884555709983
    Total Energy =                       -203.8388455570998303
  Basis Set: CC-PVDZ
    Blend: CC-PVDZ
  Basis Set: (CC-PVDZ AUX)
    Blend: CC-PVDZ-JKFIT
  Basis Set: CC-PVDZ
    Blend: CC-PVDZ
  @DF-UKS Final Energy:  -203.86422642745561
    Total Energy =                       -203.8642264274556055
  @DF-UKS Final Energy:  -203.87849715355949
    Total Energy =                       -203.8784971535594934
  @DF-UKS Final Energy:  -203.88270948684558
    Total Energy =                       -203.8827094868455845
  @DF-UKS Final Energy:  -203.88469212906881
    Total Energy =                       -203.8846921290688101
  @DF-UKS Final Energy:  -203.88532542756067
    Total Energy =                       -203.8853254275606730
  @DF-UKS Final Energy:  -203.88563629708662
    Total Energy =                       -203.8856362970866201
  @DF-UKS Final Energy:  -203.88571474245879
    Total Energy =                       -203.8857147424587879
  @DF-UKS Final Energy:  -203.88574063954283
    Total Energy =                       -203.8857406395428313
  Basis Set: (CC-PVDZ AUX)
    Blend: CC-PVDZ-JKFIT
  Basis Set: CC-PVDZ
    Blend: CC-PVDZ
  Basis Set: (CC-PVDZ AUX)
    Blend: CC-PVDZ-JKFIT
  @DF-UKS Final Energy:  -203.88574609764024
    Total Energy =                       -203.8857460976402365
  Basis Set: CC-PVDZ
    Blend: CC-PVDZ
  Basis Set: (CC-PVDZ AUX)
    Blend: CC-PVDZ-JKFIT
  Charge       = 0
  Multiplicity = 1
  Basis Set: CC-PVDZ
    Blend: CC-PVDZ
  Basis Set: (CC-PVDZ AUX)
    Blend: CC-PVDZ-JKFIT

    Orbital Energies [Eh]
    ---------------------

    Alpha Occupied:

       1A1   -31.046340     2A1   -19.243775     3A1    -1.503452
       4A1    -0.915610     5A1    -0.613416     1B1    -0.606320
       1B2    -0.606320     2B1    -0.322716     2B2    -0.322716

    Alpha Virtual:

       6A1    -0.220280     3B1     0.883546     3B2     0.883546
       7A1     0.932338     8A1     1.104166     4B1     1.337981
       4B2     1.337981     9A1     1.442091    10A1     1.972037
       5B1     2.547144     5B2     2.547144    11A1     2.587898
       1A2     2.587899    12A1     2.754469     6B2     4.654926
       6B1     4.654926    13A1     4.659283     2A2     4.659315
      14A1     4.690315

    Beta Occupied:

       1A1   -31.046340     2A1   -19.243775     3A1    -1.503452
       4A1    -0.915610     5A1    -0.613416     1B1    -0.606320
       1B2    -0.606320     2B1    -0.322716     2B2    -0.322716

    Beta Virtual:

       6A1    -0.220280     3B1     0.883546     3B2     0.883546
       7A1     0.932338     8A1     1.104166     4B1     1.337981
       4B2     1.337981     9A1     1.442091    10A1     1.972037
       5B1     2.547144     5B2     2.547144    11A1     2.587898
       1A2     2.587899    12A1     2.754469     6B2     4.654926
       6B1     4.654926    13A1     4.659283     2A2     4.659315
      14A1     4.690315

    Final Occupation by Irrep:
             A1    A2    B1    B2
    DOCC [     5,    0,    2,    2 ]
    SOCC [     0,    0,    0,    0 ]
    NA   [     5,    0,    2,    2 ]
    NB   [     5,    0,    2,    2 ]

  @DF-UKS Final Energy:  -203.88574669148556

   => Energetics <=

    Nuclear Repulsion Energy =             22.6196119891135794
    One-Electron Energy =                -330.5072818436198077
    Two-Electron Energy =                 120.9287705674887548
    DFT Exchange-Correlation Energy =     -16.9268474044681057
    Empirical Dispersion Energy =           0.0000000000000000
    VV10 Nonlocal Energy =                  0.0000000000000000
    Total Energy =                       -203.8857466914855650

  UHF NO Occupations:
  HONO-2 :    1 B2 2.0000000
  HONO-1 :    2 B1 2.0000000
  HONO-0 :    2 B2 2.0000000
  LUNO+0 :    6 A1 0.0000000
  LUNO+1 :    3 B2 0.0000000
  LUNO+2 :    7 A1 0.0000000
  LUNO+3 :    8 A1 0.0000000

Computation Completed

Properties will be evaluated at   0.000000,   0.000000,   0.000000 [a0]

Properties computed using the SCF density matrix

 Multipole Moments:

 ------------------------------------------------------------------------------------
     Multipole            Electronic (a.u.)      Nuclear  (a.u.)        Total (a.u.)
 ------------------------------------------------------------------------------------

 L = 1.  Multiply by 2.5417464519 to convert [e a0] to [Debye]
 Dipole X            :          0.0000000            0.0000000            0.0000000
 Dipole Y            :          0.0000000            0.0000000            0.0000000
 Dipole Z            :         -0.3619353           -0.0009459           -0.3628812
 Magnitude           :                                                    0.3628812

 ------------------------------------------------------------------------------------

*** tstop() called on Joses-MacBook-Pro-2.local at Wed Jul 16 19:17:54 2025
Module time:
	user time   =       3.63 seconds =       0.06 minutes
	system time =       2.98 seconds =       0.05 minutes
	total time  =          0 seconds =       0.00 minutes
Total time:
	user time   =      63.50 seconds =       1.06 minutes
	system time =      57.40 seconds =       0.96 minutes
	total time  =         12 seconds =       0.20 minutes

*** tstart() called on Joses-MacBook-Pro-2.local
*** at Wed Jul 16 19:17:54 2025

         ------------------------------------------------------------
                                   SCF GRAD
                          Rob Parrish, Justin Turney,
                       Andy Simmonett, and Alex Sokolov
         ------------------------------------------------------------

  ==> Geometry <==

    Molecular point group: c2v
    Full point group: C_inf_v

    Geometry (in Angstrom), charge = 0, multiplicity = 1:

       Center              X                  Y                   Z               Mass
    ------------   -----------------  -----------------  -----------------  -----------------
         O            0.000000000000     0.000000000000     1.039733048426    15.994914619570
         NE           0.000000000000     0.000000000000    -0.831836493702    19.992440176200

  Nuclear repulsion =   22.619611989113579

  ==> Basis Set <==

  Basis Set: CC-PVDZ
    Blend: CC-PVDZ
    Number of shells: 12
    Number of basis functions: 28
    Number of Cartesian functions: 30
    Spherical Harmonics?: true
    Max angular momentum: 2

  ==> DFJKGrad: Density-Fitted SCF Gradients <==

    Gradient:                    1
    J tasked:                  Yes
    K tasked:                  Yes
    wK tasked:                  No
    OpenMP threads:              1
    Integrals threads:           1
    Memory [MiB]:              375
    Schwarz Cutoff:          1E-12
    Fitting Condition:       1E-10

   => Auxiliary Basis Set <=

  Basis Set: (CC-PVDZ AUX)
    Blend: CC-PVDZ-JKFIT
    Number of shells: 48
    Number of basis functions: 140
    Number of Cartesian functions: 162
    Spherical Harmonics?: true
    Max angular momentum: 3

  ==> DFT Potential <==

   => LibXC <=

    Version 6.2.2
    S. Lehtola, C. Steigemann, M. J.T. Oliveira, and M. A.L. Marques.,  SoftwareX 7, 1â€“5 (2018) (10.1016/j.softx.2017.11.002)

   => Composite Functional: B3LYP <=

    B3LYP Hyb-GGA Exchange-Correlation Functional

    P. J. Stephens, F. J. Devlin, C. F. Chabalowski, and M. J. Frisch.,  J. Phys. Chem. 98, 11623 (1994) (10.1021/j100096a001)

    Deriv               =              1
    GGA                 =           TRUE
    Meta                =          FALSE

    Exchange Hybrid     =           TRUE
    MP2 Hybrid          =          FALSE

   => Exchange Functionals <=

    0.0800   Slater exchange
    0.7200         Becke 88

   => Exact (HF) Exchange <=

    0.2000               HF

   => Correlation Functionals <=

    0.1900   Vosko, Wilk & Nusair (VWN5_RPA)
    0.8100   Lee, Yang & Parr

   => LibXC Density Thresholds  <==

    XC_HYB_GGA_XC_B3LYP:  1.00E-15

   => Molecular Quadrature <=

    Radial Scheme          =       TREUTLER
    Pruning Scheme         =           NONE
    Nuclear Scheme         =       TREUTLER

    Blocking Scheme        =         OCTREE
    BS radius alpha        =              1
    Pruning alpha          =              1
    Radial Points          =             75
    Spherical Points       =            302
    Total Points           =          42327
    Total Blocks           =            372
    Max Points             =            255
    Max Functions          =             28
    Weights Tolerance      =       1.00E-15

  -Total Gradient:
     Atom            X                  Y                   Z
    ------   -----------------  -----------------  -----------------
       1       -0.000000000000     0.000000000000    -0.000050325152
       2        0.000000000000     0.000000000000     0.000039116774

*** tstop() called on Joses-MacBook-Pro-2.local at Wed Jul 16 19:17:54 2025
Module time:
	user time   =       0.73 seconds =       0.01 minutes
	system time =       1.39 seconds =       0.02 minutes
	total time  =          0 seconds =       0.00 minutes
Total time:
	user time   =      64.23 seconds =       1.07 minutes
	system time =      58.79 seconds =       0.98 minutes
	total time  =         12 seconds =       0.20 minutes

    			-----------------------------------------

    			 OPTKING 3.0: for geometry optimizations

    			     By R.A. King, Bethel University

    			        with contributions from

    			    A.V. Copan, J. Cayton, A. Heide

    			-----------------------------------------

	                            ===> Fragment 1 <==

	 Z (Atomic Numbers)          Masses                          Geom
	       8.000000            15.994915          0.00000000  0.00000000  1.96481071
	      10.000000            19.992440          0.00000000  0.00000000 -1.57194315

	 - Coordinate -           - BOHR/RAD -       - ANG/DEG -
	 R(1,2)           =         3.536754           1.871570

	        --- Internal Coordinate Step in ANG or DEG, aJ/ANG or AJ/DEG ---
	-------------------------------------------------------------------------------
	           Coordinate      Previous         Force          Change          New
	           ----------      --------        ------          ------        ------
	               R(1,2)       1.87157        0.00037        0.00056       1.87213
	-------------------------------------------------------------------------------

	                                 ==> Convergence Check <==

	Measures of convergence in internal coordinates in au.

	Criteria marked as inactive (o), active & met (*), and active & unmet ( ).

	----------------------------------------------------------------------------------------------
	   Step    Total Energy     Delta E     Max Force     RMS Force      Max Disp      RMS Disp
	----------------------------------------------------------------------------------------------
	  Convergence Criteria     1.00e-06 *    3.00e-04 *             o    1.20e-03 *             o
	----------------------------------------------------------------------------------------------
	    12    -203.88574669   -5.94e-07 *    4.47e-05 *    4.47e-05 o    1.06e-03 *    1.06e-03 o  ~
	----------------------------------------------------------------------------------------------

Next Geometry in Ang
	Fragment 1 (Ang)

	    O   0.0000000000   0.0000000000   1.0400122068
	   Ne   0.0000000000   0.0000000000  -0.8321156521

    Final optimized geometry and variables:
    Molecular point group: c2v
    Full point group: C_inf_v

    Geometry (in Angstrom), charge = 0, multiplicity = 1:

    O            0.000000000000     0.000000000000     1.039733048426
    NE           0.000000000000     0.000000000000    -0.831836493702

    Psi4 stopped on: Wednesday, 16 July 2025 07:17PM
    Psi4 wall time for execution: 0:00:13.02

*** Psi4 exiting successfully. Buy a developer a beer!
