                               Psi4 1.9.1 release

  ==> Input File <==

--------------------------------------------------------------------------
molecule {
0 1
Al   0.00000        0.60000        0.00000
Cl   0.00000       -0.60000        0.00000
}

set {
basis              cc-pvdz
reference          uks
maxiter            500
geom_maxiter       500
DAMPING_PERCENTAGE 1
guess              SAP
}

optimize('b3lyp')
--------------------------------------------------------------------------

    Molecular point group: c2v
  Charge       = 0
  Multiplicity = 1
  Basis Set: CC-PVDZ
    Blend: CC-PVDZ
  Basis Set: (CC-PVDZ AUX)
    Blend: CC-PVDZ-JKFIT
  @DF-UKS Final Energy:  -701.49106633189319
    Total Energy =                       -701.4910663318931938
 Dipole X            :          0.0000000            0.0000000            0.0000000
 Dipole Y            :          0.0000000            0.0000000            0.0000000
 Dipole Z            :         -0.8705685           -0.1497521           -1.0203206
 Magnitude           :                                                    1.0203206
    Molecular point group: c2v
  Basis Set: CC-PVDZ
    Blend: CC-PVDZ
  Basis Set: (CC-PVDZ AUX)
    Blend: CC-PVDZ-JKFIT
  Basis Set: CC-PVDZ
    Blend: CC-PVDZ
  Basis Set: (CC-PVDZ AUX)
    Blend: CC-PVDZ-JKFIT
  @DF-UKS Final Energy:  -701.52402362356884
    Total Energy =                       -701.5240236235687235
  Basis Set: CC-PVDZ
    Blend: CC-PVDZ
  Basis Set: (CC-PVDZ AUX)
    Blend: CC-PVDZ-JKFIT
  Basis Set: CC-PVDZ
    Blend: CC-PVDZ
  @DF-UKS Final Energy:  -701.58620032329725
    Total Energy =                       -701.5862003232972484
  @DF-UKS Final Energy:  -701.79715349610183
    Total Energy =                       -701.7971534961018278
  @DF-UKS Final Energy:  -702.35522341291130
    Total Energy =                       -702.3552234129113003
  @DF-UKS Final Energy:  -702.53778530556224
    Total Energy =                       -702.5377853055622381
  @DF-UKS Final Energy:  -702.64453911914416
    Total Energy =                       -702.6445391191440422
  @DF-UKS Final Energy:  -702.69443257669957
    Total Energy =                       -702.6944325766994552
  @DF-UKS Final Energy:  -702.71464124141039
    Total Energy =                       -702.7146412414103906
  @DF-UKS Final Energy:  -702.72106267042193
    Total Energy =                       -702.7210626704218157
  @DF-UKS Final Energy:  -702.72218469275606
    Total Energy =                       -702.7221846927560591
  @DF-UKS Final Energy:  -702.72240588490115
    Total Energy =                       -702.7224058849011499
  @DF-UKS Final Energy:  -702.72246031329576
    Total Energy =                       -702.7224603132957554
  Basis Set: (CC-PVDZ AUX)
    Blend: CC-PVDZ-JKFIT
  Basis Set: CC-PVDZ
    Blend: CC-PVDZ
  Basis Set: (CC-PVDZ AUX)
    Blend: CC-PVDZ-JKFIT
  @DF-UKS Final Energy:  -702.72246516756195
    Total Energy =                       -702.7224651675618361
  Basis Set: CC-PVDZ
    Blend: CC-PVDZ
  Basis Set: (CC-PVDZ AUX)
    Blend: CC-PVDZ-JKFIT
  Charge       = 0
  Multiplicity = 1
  Basis Set: CC-PVDZ
    Blend: CC-PVDZ
  Basis Set: (CC-PVDZ AUX)
    Blend: CC-PVDZ-JKFIT

    Orbital Energies [Eh]
    ---------------------

    Alpha Occupied:

       1A1  -101.513581     2A1   -56.094235     3A1    -9.432825
       4A1    -7.190295     1B1    -7.188087     1B2    -7.188087
       5A1    -4.172557     2B2    -2.725662     2B1    -2.725662
       6A1    -2.722332     7A1    -0.791534     8A1    -0.397856
       3B2    -0.317281     3B1    -0.317281     9A1    -0.253154

    Alpha Virtual:

       4B2    -0.067371     4B1    -0.067371    10A1     0.014922
      11A1     0.153267     5B2     0.205851     5B1     0.205851
      12A1     0.221357     1A2     0.255288    13A1     0.255288
       6B1     0.272891     6B2     0.272891    14A1     0.343441
       7B2     0.598639     7B1     0.598639    15A1     0.633026
      16A1     0.757032     2A2     0.757038    17A1     0.793051
       8B1     0.847141     8B2     0.847141    18A1     1.181028

    Beta Occupied:

       1A1  -101.513581     2A1   -56.094235     3A1    -9.432825
       4A1    -7.190295     1B1    -7.188087     1B2    -7.188087
       5A1    -4.172557     2B2    -2.725662     2B1    -2.725662
       6A1    -2.722332     7A1    -0.791534     8A1    -0.397856
       3B2    -0.317281     3B1    -0.317281     9A1    -0.253154

    Beta Virtual:

       4B2    -0.067371     4B1    -0.067371    10A1     0.014922
      11A1     0.153267     5B2     0.205851     5B1     0.205851
      12A1     0.221357     1A2     0.255288    13A1     0.255288
       6B1     0.272891     6B2     0.272891    14A1     0.343441
       7B2     0.598639     7B1     0.598639    15A1     0.633026
      16A1     0.757032     2A2     0.757038    17A1     0.793051
       8B1     0.847141     8B2     0.847141    18A1     1.181028

    Final Occupation by Irrep:
             A1    A2    B1    B2
    DOCC [     9,    0,    3,    3 ]
    SOCC [     0,    0,    0,    0 ]
    NA   [     9,    0,    3,    3 ]
    NB   [     9,    0,    3,    3 ]

  @DF-UKS Final Energy:  -702.72246563602960

   => Energetics <=

    Nuclear Repulsion Energy =             53.2282253537192105
    One-Electron Energy =               -1078.9512643084735828
    Two-Electron Energy =                 360.7826437413978624
    DFT Exchange-Correlation Energy =     -37.7820704226730584
    Empirical Dispersion Energy =           0.0000000000000000
    VV10 Nonlocal Energy =                  0.0000000000000000
    Total Energy =                       -702.7224656360297104

  UHF NO Occupations:
  HONO-2 :    3 B2 2.0000000
  HONO-1 :    9 A1 2.0000000
  HONO-0 :    3 B1 2.0000000
  LUNO+0 :   10 A1 0.0000000
  LUNO+1 :   11 A1 0.0000000
  LUNO+2 :   12 A1 0.0000000
  LUNO+3 :    4 B1 0.0000000

Computation Completed

Properties will be evaluated at   0.000000,   0.000000,   0.000000 [a0]

Properties computed using the SCF density matrix

 Multipole Moments:

 ------------------------------------------------------------------------------------
     Multipole            Electronic (a.u.)      Nuclear  (a.u.)        Total (a.u.)
 ------------------------------------------------------------------------------------

 L = 1.  Multiply by 2.5417464519 to convert [e a0] to [Debye]
 Dipole X            :          0.0000000            0.0000000            0.0000000
 Dipole Y            :          0.0000000            0.0000000            0.0000000
 Dipole Z            :          1.0031252           -0.2741847            0.7289405
 Magnitude           :                                                    0.7289405

 ------------------------------------------------------------------------------------

*** tstop() called on Joses-MacBook-Pro-2.local at Wed Jul 16 20:09:44 2025
Module time:
	user time   =       6.50 seconds =       0.11 minutes
	system time =       1.89 seconds =       0.03 minutes
	total time  =          1 seconds =       0.02 minutes
Total time:
	user time   =     163.24 seconds =       2.72 minutes
	system time =      44.88 seconds =       0.75 minutes
	total time  =         20 seconds =       0.33 minutes

*** tstart() called on Joses-MacBook-Pro-2.local
*** at Wed Jul 16 20:09:44 2025

         ------------------------------------------------------------
                                   SCF GRAD
                          Rob Parrish, Justin Turney,
                       Andy Simmonett, and Alex Sokolov
         ------------------------------------------------------------

  ==> Geometry <==

    Molecular point group: c2v
    Full point group: C_inf_v

    Geometry (in Angstrom), charge = 0, multiplicity = 1:

       Center              X                  Y                   Z               Mass
    ------------   -----------------  -----------------  -----------------  -----------------
         AL           0.000000000000     0.000000000000     1.240191498016    26.981538530000
         CL           0.000000000000     0.000000000000    -0.956916573518    34.968852682000

  Nuclear repulsion =   53.228225353719210

  ==> Basis Set <==

  Basis Set: CC-PVDZ
    Blend: CC-PVDZ
    Number of shells: 16
    Number of basis functions: 36
    Number of Cartesian functions: 38
    Spherical Harmonics?: true
    Max angular momentum: 2

  ==> DFJKGrad: Density-Fitted SCF Gradients <==

    Gradient:                    1
    J tasked:                  Yes
    K tasked:                  Yes
    wK tasked:                  No
    OpenMP threads:              1
    Integrals threads:           1
    Memory [MiB]:              375
    Schwarz Cutoff:          1E-12
    Fitting Condition:       1E-10

   => Auxiliary Basis Set <=

  Basis Set: (CC-PVDZ AUX)
    Blend: CC-PVDZ-JKFIT
    Number of shells: 72
    Number of basis functions: 224
    Number of Cartesian functions: 260
    Spherical Harmonics?: true
    Max angular momentum: 3

  ==> DFT Potential <==

   => LibXC <=

    Version 6.2.2
    S. Lehtola, C. Steigemann, M. J.T. Oliveira, and M. A.L. Marques.,  SoftwareX 7, 1â€“5 (2018) (10.1016/j.softx.2017.11.002)

   => Composite Functional: B3LYP <=

    B3LYP Hyb-GGA Exchange-Correlation Functional

    P. J. Stephens, F. J. Devlin, C. F. Chabalowski, and M. J. Frisch.,  J. Phys. Chem. 98, 11623 (1994) (10.1021/j100096a001)

    Deriv               =              1
    GGA                 =           TRUE
    Meta                =          FALSE

    Exchange Hybrid     =           TRUE
    MP2 Hybrid          =          FALSE

   => Exchange Functionals <=

    0.0800   Slater exchange
    0.7200         Becke 88

   => Exact (HF) Exchange <=

    0.2000               HF

   => Correlation Functionals <=

    0.1900   Vosko, Wilk & Nusair (VWN5_RPA)
    0.8100   Lee, Yang & Parr

   => LibXC Density Thresholds  <==

    XC_HYB_GGA_XC_B3LYP:  1.00E-15

   => Molecular Quadrature <=

    Radial Scheme          =       TREUTLER
    Pruning Scheme         =           NONE
    Nuclear Scheme         =       TREUTLER

    Blocking Scheme        =         OCTREE
    BS radius alpha        =              1
    Pruning alpha          =              1
    Radial Points          =             75
    Spherical Points       =            302
    Total Points           =          42655
    Total Blocks           =            401
    Max Points             =            256
    Max Functions          =             36
    Weights Tolerance      =       1.00E-15

  -Total Gradient:
     Atom            X                  Y                   Z
    ------   -----------------  -----------------  -----------------
       1       -0.000000000000     0.000000000000    -0.000030292245
       2        0.000000000000     0.000000000000     0.000071451308

*** tstop() called on Joses-MacBook-Pro-2.local at Wed Jul 16 20:09:44 2025
Module time:
	user time   =       2.21 seconds =       0.04 minutes
	system time =       1.03 seconds =       0.02 minutes
	total time  =          0 seconds =       0.00 minutes
Total time:
	user time   =     165.47 seconds =       2.76 minutes
	system time =      45.91 seconds =       0.77 minutes
	total time  =         20 seconds =       0.33 minutes

    			-----------------------------------------

    			 OPTKING 3.0: for geometry optimizations

    			     By R.A. King, Bethel University

    			        with contributions from

    			    A.V. Copan, J. Cayton, A. Heide

    			-----------------------------------------

	                            ===> Fragment 1 <==

	 Z (Atomic Numbers)          Masses                          Geom
	      13.000000            26.981539          0.00000000  0.00000000  2.34362227
	      17.000000            34.968853          0.00000000  0.00000000 -1.80831025

	 - Coordinate -           - BOHR/RAD -       - ANG/DEG -
	 R(1,2)           =         4.151933           2.197108

	        --- Internal Coordinate Step in ANG or DEG, aJ/ANG or AJ/DEG ---
	-------------------------------------------------------------------------------
	           Coordinate      Previous         Force          Change          New
	           ----------      --------        ------          ------        ------
	               R(1,2)       2.19711        0.00042        0.00021       2.19732
	-------------------------------------------------------------------------------

	                                 ==> Convergence Check <==

	Measures of convergence in internal coordinates in au.

	Criteria marked as inactive (o), active & met (*), and active & unmet ( ).

	----------------------------------------------------------------------------------------------
	   Step    Total Energy     Delta E     Max Force     RMS Force      Max Disp      RMS Disp
	----------------------------------------------------------------------------------------------
	  Convergence Criteria     1.00e-06 *    3.00e-04 *             o    1.20e-03 *             o
	----------------------------------------------------------------------------------------------
	    15    -702.72246564   -4.68e-07 *    5.09e-05 *    5.09e-05 o    4.03e-04 *    4.03e-04 o  ~
	----------------------------------------------------------------------------------------------

Next Geometry in Ang
	Fragment 1 (Ang)

	   Al   0.0000000000   0.0000000000   1.2402981908
	   Cl   0.0000000000   0.0000000000  -0.9570232663

    Final optimized geometry and variables:
    Molecular point group: c2v
    Full point group: C_inf_v

    Geometry (in Angstrom), charge = 0, multiplicity = 1:

    AL           0.000000000000     0.000000000000     1.240191498016
    CL           0.000000000000     0.000000000000    -0.956916573518

    Psi4 stopped on: Wednesday, 16 July 2025 08:09PM
    Psi4 wall time for execution: 0:00:20.69

*** Psi4 exiting successfully. Buy a developer a beer!
