                               Psi4 1.9.1 release

  ==> Input File <==

--------------------------------------------------------------------------
molecule {
0 1
Mg   0.00000        0.60000        0.00000
S   0.00000       -0.60000        0.00000
}

set {
basis              cc-pvdz
reference          uks
maxiter            500
geom_maxiter       500
DAMPING_PERCENTAGE 1
guess              SAP
}

optimize('b3lyp')
--------------------------------------------------------------------------

    Molecular point group: c2v
  Charge       = 0
  Multiplicity = 1
  Basis Set: CC-PVDZ
    Blend: CC-PVDZ
  Basis Set: (CC-PVDZ AUX)
    Blend: CC-PVDZ-JKFIT + DEF2-UNIVERSAL-JKFIT
  @DF-UKS Final Energy:  -597.26918402278829
    Total Energy =                       -597.2691840227882949
 Dipole X            :          0.0000000            0.0000000            0.0000000
 Dipole Y            :          0.0000000            0.0000000            0.0000000
 Dipole Z            :          0.9291948           -0.0038828            0.9253120
 Magnitude           :                                                    0.9253120
    Molecular point group: c2v
  Basis Set: CC-PVDZ
    Blend: CC-PVDZ
  Basis Set: (CC-PVDZ AUX)
    Blend: CC-PVDZ-JKFIT + DEF2-UNIVERSAL-JKFIT
  Basis Set: CC-PVDZ
    Blend: CC-PVDZ
  Basis Set: (CC-PVDZ AUX)
    Blend: CC-PVDZ-JKFIT + DEF2-UNIVERSAL-JKFIT
  @DF-UKS Final Energy:  -597.28669185973206
    Total Energy =                       -597.2866918597320591
  Basis Set: CC-PVDZ
    Blend: CC-PVDZ
  Basis Set: (CC-PVDZ AUX)
    Blend: CC-PVDZ-JKFIT + DEF2-UNIVERSAL-JKFIT
  Basis Set: CC-PVDZ
    Blend: CC-PVDZ
  @DF-UKS Final Energy:  -597.32038990002729
    Total Energy =                       -597.3203899000272941
  @DF-UKS Final Energy:  -597.44154948225344
    Total Energy =                       -597.4415494822534356
  @DF-UKS Final Energy:  -597.93555543795060
    Total Energy =                       -597.9355554379505975
  @DF-UKS Final Energy:  -598.13810524291364
    Total Energy =                       -598.1381052429136389
  @DF-UKS Final Energy:  -598.23348073441946
    Total Energy =                       -598.2334807344194587
  @DF-UKS Final Energy:  -598.27024981222428
    Total Energy =                       -598.2702498122241650
  @DF-UKS Final Energy:  -598.28283574162265
    Total Energy =                       -598.2828357416226481
  @DF-UKS Final Energy:  -598.28533280653210
    Total Energy =                       -598.2853328065322103
  @DF-UKS Final Energy:  -598.28600649417524
    Total Energy =                       -598.2860064941752398
  @DF-UKS Final Energy:  -598.28608524132142
    Total Energy =                       -598.2860852413214161
  Basis Set: (CC-PVDZ AUX)
    Blend: CC-PVDZ-JKFIT + DEF2-UNIVERSAL-JKFIT
  Basis Set: CC-PVDZ
    Blend: CC-PVDZ
  Basis Set: (CC-PVDZ AUX)
    Blend: CC-PVDZ-JKFIT + DEF2-UNIVERSAL-JKFIT
  @DF-UKS Final Energy:  -598.28609507237059
    Total Energy =                       -598.2860950723706992
  Basis Set: CC-PVDZ
    Blend: CC-PVDZ
  Basis Set: (CC-PVDZ AUX)
    Blend: CC-PVDZ-JKFIT + DEF2-UNIVERSAL-JKFIT
  Charge       = 0
  Multiplicity = 1
  Basis Set: CC-PVDZ
    Blend: CC-PVDZ
  Basis Set: (CC-PVDZ AUX)
    Blend: CC-PVDZ-JKFIT + DEF2-UNIVERSAL-JKFIT

    Orbital Energies [Eh]
    ---------------------

    Alpha Occupied:

       1A1   -88.810738     2A1   -46.882259     3A1    -7.870993
       4A1    -5.836366     1B2    -5.828114     1B1    -5.828114
       5A1    -3.164590     6A1    -1.908159     2B2    -1.907520
       2B1    -1.907520     7A1    -0.603317     8A1    -0.264378
       3B2    -0.204289     3B1    -0.204289

    Alpha Virtual:

       9A1    -0.143390     4B2    -0.027981     4B1    -0.027981
      10A1     0.029054    11A1     0.079693     5B2     0.139265
       5B1     0.139265    12A1     0.207475     1A2     0.288039
      13A1     0.288040     6B1     0.301923     6B2     0.301923
      14A1     0.372920     7B1     0.587144     7B2     0.587144
      15A1     0.661862     2A2     0.693806    16A1     0.693809
      17A1     0.707700     8B2     0.810956     8B1     0.810956
      18A1     1.157195

    Beta Occupied:

       1A1   -88.810738     2A1   -46.882259     3A1    -7.870993
       4A1    -5.836366     1B2    -5.828114     1B1    -5.828114
       5A1    -3.164590     6A1    -1.908159     2B1    -1.907520
       2B2    -1.907520     7A1    -0.603317     8A1    -0.264378
       3B2    -0.204289     3B1    -0.204289

    Beta Virtual:

       9A1    -0.143390     4B2    -0.027981     4B1    -0.027981
      10A1     0.029054    11A1     0.079693     5B2     0.139265
       5B1     0.139265    12A1     0.207475     1A2     0.288039
      13A1     0.288040     6B1     0.301923     6B2     0.301923
      14A1     0.372920     7B1     0.587144     7B2     0.587144
      15A1     0.661862     2A2     0.693806    16A1     0.693809
      17A1     0.707700     8B2     0.810956     8B1     0.810956
      18A1     1.157195

    Final Occupation by Irrep:
             A1    A2    B1    B2
    DOCC [     8,    0,    3,    3 ]
    SOCC [     0,    0,    0,    0 ]
    NA   [     8,    0,    3,    3 ]
    NB   [     8,    0,    3,    3 ]

  @DF-UKS Final Energy:  -598.28609645917618

   => Energetics <=

    Nuclear Repulsion Energy =             47.0215489435454330
    One-Electron Energy =                -923.9530971171432157
    Two-Electron Energy =                 312.6474297426423732
    DFT Exchange-Correlation Energy =     -34.0019780282207194
    Empirical Dispersion Energy =           0.0000000000000000
    VV10 Nonlocal Energy =                  0.0000000000000000
    Total Energy =                       -598.2860964591761785

  UHF NO Occupations:
  HONO-2 :    3 B2 2.0000000
  HONO-1 :    7 A1 2.0000000
  HONO-0 :    8 A1 2.0000000
  LUNO+0 :    9 A1 0.0000000
  LUNO+1 :   10 A1 0.0000000
  LUNO+2 :   11 A1 0.0000000
  LUNO+3 :    4 B1 0.0000000

Computation Completed

Properties will be evaluated at   0.000000,   0.000000,   0.000000 [a0]

Properties computed using the SCF density matrix

 Multipole Moments:

 ------------------------------------------------------------------------------------
     Multipole            Electronic (a.u.)      Nuclear  (a.u.)        Total (a.u.)
 ------------------------------------------------------------------------------------

 L = 1.  Multiply by 2.5417464519 to convert [e a0] to [Debye]
 Dipole X            :          0.0000000            0.0000000            0.0000000
 Dipole Y            :          0.0000000            0.0000000            0.0000000
 Dipole Z            :          2.7132719           -0.0069916            2.7062804
 Magnitude           :                                                    2.7062804

 ------------------------------------------------------------------------------------

*** tstop() called on Joses-MacBook-Pro-2.local at Wed Jul 16 19:59:07 2025
Module time:
	user time   =       7.20 seconds =       0.12 minutes
	system time =       2.79 seconds =       0.05 minutes
	total time  =          1 seconds =       0.02 minutes
Total time:
	user time   =     184.75 seconds =       3.08 minutes
	system time =      55.82 seconds =       0.93 minutes
	total time  =         23 seconds =       0.38 minutes

*** tstart() called on Joses-MacBook-Pro-2.local
*** at Wed Jul 16 19:59:07 2025

         ------------------------------------------------------------
                                   SCF GRAD
                          Rob Parrish, Justin Turney,
                       Andy Simmonett, and Alex Sokolov
         ------------------------------------------------------------

  ==> Geometry <==

    Molecular point group: c2v
    Full point group: C_inf_v

    Geometry (in Angstrom), charge = 0, multiplicity = 1:

       Center              X                  Y                   Z               Mass
    ------------   -----------------  -----------------  -----------------  -----------------
         MG           0.000000000000     0.000000000000     1.234584734277    23.985041697000
         S            0.000000000000     0.000000000000    -0.926169786392    31.972071174400

  Nuclear repulsion =   47.021548943545433

  ==> Basis Set <==

  Basis Set: CC-PVDZ
    Blend: CC-PVDZ
    Number of shells: 16
    Number of basis functions: 36
    Number of Cartesian functions: 38
    Spherical Harmonics?: true
    Max angular momentum: 2

  ==> DFJKGrad: Density-Fitted SCF Gradients <==

    Gradient:                    1
    J tasked:                  Yes
    K tasked:                  Yes
    wK tasked:                  No
    OpenMP threads:              1
    Integrals threads:           1
    Memory [MiB]:              375
    Schwarz Cutoff:          1E-12
    Fitting Condition:       1E-10

   => Auxiliary Basis Set <=

  Basis Set: (CC-PVDZ AUX)
    Blend: CC-PVDZ-JKFIT + DEF2-UNIVERSAL-JKFIT
    Number of shells: 70
    Number of basis functions: 224
    Number of Cartesian functions: 267
    Spherical Harmonics?: true
    Max angular momentum: 4

  ==> DFT Potential <==

   => LibXC <=

    Version 6.2.2
    S. Lehtola, C. Steigemann, M. J.T. Oliveira, and M. A.L. Marques.,  SoftwareX 7, 1â€“5 (2018) (10.1016/j.softx.2017.11.002)

   => Composite Functional: B3LYP <=

    B3LYP Hyb-GGA Exchange-Correlation Functional

    P. J. Stephens, F. J. Devlin, C. F. Chabalowski, and M. J. Frisch.,  J. Phys. Chem. 98, 11623 (1994) (10.1021/j100096a001)

    Deriv               =              1
    GGA                 =           TRUE
    Meta                =          FALSE

    Exchange Hybrid     =           TRUE
    MP2 Hybrid          =          FALSE

   => Exchange Functionals <=

    0.0800   Slater exchange
    0.7200         Becke 88

   => Exact (HF) Exchange <=

    0.2000               HF

   => Correlation Functionals <=

    0.1900   Vosko, Wilk & Nusair (VWN5_RPA)
    0.8100   Lee, Yang & Parr

   => LibXC Density Thresholds  <==

    XC_HYB_GGA_XC_B3LYP:  1.00E-15

   => Molecular Quadrature <=

    Radial Scheme          =       TREUTLER
    Pruning Scheme         =           NONE
    Nuclear Scheme         =       TREUTLER

    Blocking Scheme        =         OCTREE
    BS radius alpha        =              1
    Pruning alpha          =              1
    Radial Points          =             75
    Spherical Points       =            302
    Total Points           =          43001
    Total Blocks           =            419
    Max Points             =            252
    Max Functions          =             36
    Weights Tolerance      =       1.00E-15

  -Total Gradient:
     Atom            X                  Y                   Z
    ------   -----------------  -----------------  -----------------
       1        0.000000000000    -0.000000000000    -0.000107176412
       2       -0.000000000000     0.000000000000     0.000145547312

*** tstop() called on Joses-MacBook-Pro-2.local at Wed Jul 16 19:59:07 2025
Module time:
	user time   =       3.08 seconds =       0.05 minutes
	system time =       1.52 seconds =       0.03 minutes
	total time  =          0 seconds =       0.00 minutes
Total time:
	user time   =     187.84 seconds =       3.13 minutes
	system time =      57.34 seconds =       0.96 minutes
	total time  =         23 seconds =       0.38 minutes

    			-----------------------------------------

    			 OPTKING 3.0: for geometry optimizations

    			     By R.A. King, Bethel University

    			        with contributions from

    			    A.V. Copan, J. Cayton, A. Heide

    			-----------------------------------------

	                            ===> Fragment 1 <==

	 Z (Atomic Numbers)          Masses                          Geom
	      12.000000            23.985042          0.00000000  0.00000000  2.33302703
	      16.000000            31.972071          0.00000000  0.00000000 -1.75020724

	 - Coordinate -           - BOHR/RAD -       - ANG/DEG -
	 R(1,2)           =         4.083234           2.160755

	        --- Internal Coordinate Step in ANG or DEG, aJ/ANG or AJ/DEG ---
	-------------------------------------------------------------------------------
	           Coordinate      Previous         Force          Change          New
	           ----------      --------        ------          ------        ------
	               R(1,2)       2.16075        0.00104        0.00042       2.16117
	-------------------------------------------------------------------------------

	                                 ==> Convergence Check <==

	Measures of convergence in internal coordinates in au.

	Criteria marked as inactive (o), active & met (*), and active & unmet ( ).

	----------------------------------------------------------------------------------------------
	   Step    Total Energy     Delta E     Max Force     RMS Force      Max Disp      RMS Disp
	----------------------------------------------------------------------------------------------
	  Convergence Criteria     1.00e-06 *    3.00e-04 *             o    1.20e-03 *             o
	----------------------------------------------------------------------------------------------
	    14    -598.28609646   -1.39e-06      1.26e-04 *    1.26e-04 o    7.92e-04 *    7.92e-04 o  ~
	----------------------------------------------------------------------------------------------

Next Geometry in Ang
	Fragment 1 (Ang)

	   Mg   0.0000000000   0.0000000000   1.2347943930
	    S   0.0000000000   0.0000000000  -0.9263794451

    Final optimized geometry and variables:
    Molecular point group: c2v
    Full point group: C_inf_v

    Geometry (in Angstrom), charge = 0, multiplicity = 1:

    MG           0.000000000000     0.000000000000     1.234584734277
    S            0.000000000000     0.000000000000    -0.926169786392

    Psi4 stopped on: Wednesday, 16 July 2025 07:59PM
    Psi4 wall time for execution: 0:00:24.46

*** Psi4 exiting successfully. Buy a developer a beer!
