                               Psi4 1.9.1 release

  ==> Input File <==

--------------------------------------------------------------------------
molecule {
0 1
B   0.00000        0.60000        0.00000
Na   0.00000       -0.60000        0.00000
}

set {
basis              cc-pvdz
reference          uks
maxiter            500
geom_maxiter       500
DAMPING_PERCENTAGE 1
guess              SAP
}

optimize('b3lyp')
--------------------------------------------------------------------------

    Molecular point group: c2v
  Charge       = 0
  Multiplicity = 1
  Basis Set: CC-PVDZ
    Blend: CC-PVDZ
  Basis Set: (CC-PVDZ AUX)
    Blend: CC-PVDZ-JKFIT + DEF2-UNIVERSAL-JKFIT
  @DF-UKS Final Energy:  -186.55424963840849
    Total Energy =                       -186.5542496384084927
 Dipole X            :          0.0000000            0.0000000            0.0000000
 Dipole Y            :          0.0000000            0.0000000            0.0000000
 Dipole Z            :         -1.5661477           -0.4104272           -1.9765749
 Magnitude           :                                                    1.9765749
    Molecular point group: c2v
  Basis Set: CC-PVDZ
    Blend: CC-PVDZ
  Basis Set: (CC-PVDZ AUX)
    Blend: CC-PVDZ-JKFIT + DEF2-UNIVERSAL-JKFIT
  Basis Set: CC-PVDZ
    Blend: CC-PVDZ
  Basis Set: (CC-PVDZ AUX)
    Blend: CC-PVDZ-JKFIT + DEF2-UNIVERSAL-JKFIT
  @DF-UKS Final Energy:  -186.63460402529392
    Total Energy =                       -186.6346040252939531
  Basis Set: CC-PVDZ
    Blend: CC-PVDZ
  Basis Set: (CC-PVDZ AUX)
    Blend: CC-PVDZ-JKFIT + DEF2-UNIVERSAL-JKFIT
  Basis Set: CC-PVDZ
    Blend: CC-PVDZ
  @DF-UKS Final Energy:  -186.72713301834099
    Total Energy =                       -186.7271330183409930
  @DF-UKS Final Energy:  -186.83271899819209
    Total Energy =                       -186.8327189981921208
  @DF-UKS Final Energy:  -186.88823173406817
    Total Energy =                       -186.8882317340681425
  @DF-UKS Final Energy:  -186.91091721697495
    Total Energy =                       -186.9109172169749513
  @DF-UKS Final Energy:  -186.91918910725755
    Total Energy =                       -186.9191891072575800
  @DF-UKS Final Energy:  -186.92157873023814
    Total Energy =                       -186.9215787302381102
  @DF-UKS Final Energy:  -186.92196819569713
    Total Energy =                       -186.9219681956971328
  @DF-UKS Final Energy:  -186.92204989907293
    Total Energy =                       -186.9220498990729027
  Basis Set: (CC-PVDZ AUX)
    Blend: CC-PVDZ-JKFIT + DEF2-UNIVERSAL-JKFIT
  Basis Set: CC-PVDZ
    Blend: CC-PVDZ
  Basis Set: (CC-PVDZ AUX)
    Blend: CC-PVDZ-JKFIT + DEF2-UNIVERSAL-JKFIT
  @DF-UKS Final Energy:  -186.92205622533777
    Total Energy =                       -186.9220562253377409
  Basis Set: CC-PVDZ
    Blend: CC-PVDZ
  Basis Set: (CC-PVDZ AUX)
    Blend: CC-PVDZ-JKFIT + DEF2-UNIVERSAL-JKFIT
  Charge       = 0
  Multiplicity = 1
  Basis Set: CC-PVDZ
    Blend: CC-PVDZ
  Basis Set: (CC-PVDZ AUX)
    Blend: CC-PVDZ-JKFIT + DEF2-UNIVERSAL-JKFIT

    Orbital Energies [Eh]
    ---------------------

    Alpha Occupied:

       1A1   -38.531361     2A1    -6.784256     3A1    -2.275930
       4A1    -1.208141     1B1    -1.207965     1B2    -1.205634
       5A1    -0.331173     2B2    -0.103165

    Alpha Virtual:

       6A1    -0.094033     2B1    -0.060042     7A1    -0.041965
       3B2    -0.003044     3B1     0.007372     8A1     0.020518
       9A1     0.050057     4B2     0.075009     4B1     0.080399
      10A1     0.141933     1A2     0.158262    11A1     0.165172
       5B2     0.209510     5B1     0.213129    12A1     0.309972
       6B1     0.374046     6B2     0.377725    13A1     0.421477
      14A1     0.688428     2A2     0.771342    15A1     0.778521
       7B1     0.834401     7B2     0.844321    16A1     0.929042

    Beta Occupied:

       1A1   -38.531361     2A1    -6.784256     3A1    -2.275930
       4A1    -1.208141     1B1    -1.207965     1B2    -1.205634
       5A1    -0.331173     2B2    -0.103165

    Beta Virtual:

       6A1    -0.094033     2B1    -0.060042     7A1    -0.041965
       3B2    -0.003044     3B1     0.007372     8A1     0.020518
       9A1     0.050057     4B2     0.075009     4B1     0.080399
      10A1     0.141933     1A2     0.158262    11A1     0.165172
       5B2     0.209510     5B1     0.213129    12A1     0.309972
       6B1     0.374046     6B2     0.377725    13A1     0.421477
      14A1     0.688428     2A2     0.771342    15A1     0.778521
       7B1     0.834401     7B2     0.844321    16A1     0.929042

    Final Occupation by Irrep:
             A1    A2    B1    B2
    DOCC [     5,    0,    1,    2 ]
    SOCC [     0,    0,    0,    0 ]
    NA   [     5,    0,    1,    2 ]
    NB   [     5,    0,    1,    2 ]

  @DF-UKS Final Energy:  -186.92205674778788

   => Energetics <=

    Nuclear Repulsion Energy =             12.5077950098501880
    One-Electron Energy =                -284.9347638157114488
    Two-Electron Energy =                 100.3352981705524343
    DFT Exchange-Correlation Energy =     -14.8303861124790561
    Empirical Dispersion Energy =           0.0000000000000000
    VV10 Nonlocal Energy =                  0.0000000000000000
    Total Energy =                       -186.9220567477878490

  UHF NO Occupations:
  HONO-2 :    1 B1 2.0000000
  HONO-1 :    4 A1 2.0000000
  HONO-0 :    5 A1 2.0000000
  LUNO+0 :    6 A1 0.0000000
  LUNO+1 :    3 B2 0.0000000
  LUNO+2 :    7 A1 0.0000000
  LUNO+3 :    2 B1 0.0000000

Computation Completed

Properties will be evaluated at   0.000000,   0.000000,   0.000000 [a0]

Properties computed using the SCF density matrix

 Multipole Moments:

 ------------------------------------------------------------------------------------
     Multipole            Electronic (a.u.)      Nuclear  (a.u.)        Total (a.u.)
 ------------------------------------------------------------------------------------

 L = 1.  Multiply by 2.5417464519 to convert [e a0] to [Debye]
 Dipole X            :          0.0000000            0.0000000            0.0000000
 Dipole Y            :          0.0000000            0.0000000            0.0000000
 Dipole Z            :         -1.5029699           -0.7958623           -2.2988322
 Magnitude           :                                                    2.2988322

 ------------------------------------------------------------------------------------

*** tstop() called on Joses-MacBook-Pro-2.local at Wed Jul 16 18:52:05 2025
Module time:
	user time   =       2.69 seconds =       0.04 minutes
	system time =       4.56 seconds =       0.08 minutes
	total time  =          1 seconds =       0.02 minutes
Total time:
	user time   =      51.37 seconds =       0.86 minutes
	system time =      83.71 seconds =       1.40 minutes
	total time  =         15 seconds =       0.25 minutes

*** tstart() called on Joses-MacBook-Pro-2.local
*** at Wed Jul 16 18:52:05 2025

         ------------------------------------------------------------
                                   SCF GRAD
                          Rob Parrish, Justin Turney,
                       Andy Simmonett, and Alex Sokolov
         ------------------------------------------------------------

  ==> Geometry <==

    Molecular point group: c2v
    Full point group: C_inf_v

    Geometry (in Angstrom), charge = 0, multiplicity = 1:

       Center              X                  Y                   Z               Mass
    ------------   -----------------  -----------------  -----------------  -----------------
         B            0.000000000000     0.000000000000     1.573441436798    11.009305360000
         NA           0.000000000000     0.000000000000    -0.753487215609    22.989769282000

  Nuclear repulsion =   12.507795009850188

  ==> Basis Set <==

  Basis Set: CC-PVDZ
    Blend: CC-PVDZ
    Number of shells: 14
    Number of basis functions: 32
    Number of Cartesian functions: 34
    Spherical Harmonics?: true
    Max angular momentum: 2

  ==> DFJKGrad: Density-Fitted SCF Gradients <==

    Gradient:                    1
    J tasked:                  Yes
    K tasked:                  Yes
    wK tasked:                  No
    OpenMP threads:              1
    Integrals threads:           1
    Memory [MiB]:              375
    Schwarz Cutoff:          1E-12
    Fitting Condition:       1E-10

   => Auxiliary Basis Set <=

  Basis Set: (CC-PVDZ AUX)
    Blend: CC-PVDZ-JKFIT + DEF2-UNIVERSAL-JKFIT
    Number of shells: 58
    Number of basis functions: 182
    Number of Cartesian functions: 218
    Spherical Harmonics?: true
    Max angular momentum: 4

  ==> DFT Potential <==

   => LibXC <=

    Version 6.2.2
    S. Lehtola, C. Steigemann, M. J.T. Oliveira, and M. A.L. Marques.,  SoftwareX 7, 1â€“5 (2018) (10.1016/j.softx.2017.11.002)

   => Composite Functional: B3LYP <=

    B3LYP Hyb-GGA Exchange-Correlation Functional

    P. J. Stephens, F. J. Devlin, C. F. Chabalowski, and M. J. Frisch.,  J. Phys. Chem. 98, 11623 (1994) (10.1021/j100096a001)

    Deriv               =              1
    GGA                 =           TRUE
    Meta                =          FALSE

    Exchange Hybrid     =           TRUE
    MP2 Hybrid          =          FALSE

   => Exchange Functionals <=

    0.0800   Slater exchange
    0.7200         Becke 88

   => Exact (HF) Exchange <=

    0.2000               HF

   => Correlation Functionals <=

    0.1900   Vosko, Wilk & Nusair (VWN5_RPA)
    0.8100   Lee, Yang & Parr

   => LibXC Density Thresholds  <==

    XC_HYB_GGA_XC_B3LYP:  1.00E-15

   => Molecular Quadrature <=

    Radial Scheme          =       TREUTLER
    Pruning Scheme         =           NONE
    Nuclear Scheme         =       TREUTLER

    Blocking Scheme        =         OCTREE
    BS radius alpha        =              1
    Pruning alpha          =              1
    Radial Points          =             75
    Spherical Points       =            302
    Total Points           =          43830
    Total Blocks           =            432
    Max Points             =            256
    Max Functions          =             32
    Weights Tolerance      =       1.00E-15

  -Total Gradient:
     Atom            X                  Y                   Z
    ------   -----------------  -----------------  -----------------
       1        0.000000000000    -0.000000000000    -0.000073397057
       2        0.000000000000     0.000000000000     0.000042385136

*** tstop() called on Joses-MacBook-Pro-2.local at Wed Jul 16 18:52:05 2025
Module time:
	user time   =       1.61 seconds =       0.03 minutes
	system time =       1.83 seconds =       0.03 minutes
	total time  =          0 seconds =       0.00 minutes
Total time:
	user time   =      52.98 seconds =       0.88 minutes
	system time =      85.54 seconds =       1.43 minutes
	total time  =         15 seconds =       0.25 minutes

    			-----------------------------------------

    			 OPTKING 3.0: for geometry optimizations

    			     By R.A. King, Bethel University

    			        with contributions from

    			    A.V. Copan, J. Cayton, A. Heide

    			-----------------------------------------

	                            ===> Fragment 1 <==

	 Z (Atomic Numbers)          Masses                          Geom
	       5.000000            11.009305          0.00000000  0.00000000  2.97337339
	      11.000000            22.989769          0.00000000  0.00000000 -1.42388448

	 - Coordinate -           - BOHR/RAD -       - ANG/DEG -
	 R(1,2)           =         4.397258           2.326929

	        --- Internal Coordinate Step in ANG or DEG, aJ/ANG or AJ/DEG ---
	-------------------------------------------------------------------------------
	           Coordinate      Previous         Force          Change          New
	           ----------      --------        ------          ------        ------
	               R(1,2)       2.32693        0.00048        0.00069       2.32762
	-------------------------------------------------------------------------------

	                                 ==> Convergence Check <==

	Measures of convergence in internal coordinates in au.

	Criteria marked as inactive (o), active & met (*), and active & unmet ( ).

	----------------------------------------------------------------------------------------------
	   Step    Total Energy     Delta E     Max Force     RMS Force      Max Disp      RMS Disp
	----------------------------------------------------------------------------------------------
	  Convergence Criteria     1.00e-06 *    3.00e-04 *             o    1.20e-03 *             o
	----------------------------------------------------------------------------------------------
	    12    -186.92205675   -5.22e-07 *    5.79e-05 *    5.79e-05 o    1.31e-03      1.31e-03 o  ~
	----------------------------------------------------------------------------------------------

Next Geometry in Ang
	Fragment 1 (Ang)

	    B   0.0000000000   0.0000000000   1.5737874155
	   Na   0.0000000000   0.0000000000  -0.7538331943

    Final optimized geometry and variables:
    Molecular point group: c2v
    Full point group: C_inf_v

    Geometry (in Angstrom), charge = 0, multiplicity = 1:

    B            0.000000000000     0.000000000000     1.573441436798
    NA           0.000000000000     0.000000000000    -0.753487215609

    Psi4 stopped on: Wednesday, 16 July 2025 06:52PM
    Psi4 wall time for execution: 0:00:15.86

*** Psi4 exiting successfully. Buy a developer a beer!
