                               Psi4 1.9.1 release

  ==> Input File <==

--------------------------------------------------------------------------
molecule {
0 1
O   0.00000        0.60000        0.00000
O   0.00000       -0.60000        0.00000
}

set {
basis              cc-pvdz
reference          uks
maxiter            500
geom_maxiter       500
DAMPING_PERCENTAGE 1
guess              SAP
}

optimize('b3lyp')
--------------------------------------------------------------------------

    Molecular point group: d2h
  Charge       = 0
  Multiplicity = 1
  Basis Set: CC-PVDZ
    Blend: CC-PVDZ
  Basis Set: (CC-PVDZ AUX)
    Blend: CC-PVDZ-JKFIT
  @DF-UKS Final Energy:  -150.27140708624361
    Total Energy =                       -150.2714070862436131
 Dipole X            :          0.0000000            0.0000000            0.0000000
 Dipole Y            :          0.0000000            0.0000000            0.0000000
 Dipole Z            :          0.0000000            0.0000000            0.0000000
 Magnitude           :                                                    0.0000000
    Molecular point group: d2h
  Basis Set: CC-PVDZ
    Blend: CC-PVDZ
  Basis Set: (CC-PVDZ AUX)
    Blend: CC-PVDZ-JKFIT
  Basis Set: CC-PVDZ
    Blend: CC-PVDZ
  Basis Set: (CC-PVDZ AUX)
    Blend: CC-PVDZ-JKFIT
  @DF-UKS Final Energy:  -150.27155148377670
    Total Energy =                       -150.2715514837767046
  Basis Set: CC-PVDZ
    Blend: CC-PVDZ
  Basis Set: (CC-PVDZ AUX)
    Blend: CC-PVDZ-JKFIT
  Charge       = 0
  Multiplicity = 1
  Basis Set: CC-PVDZ
    Blend: CC-PVDZ
  Basis Set: (CC-PVDZ AUX)
    Blend: CC-PVDZ-JKFIT

    Orbital Energies [Eh]
    ---------------------

    Alpha Occupied:

       1Ag   -19.286596     1B2u  -19.286447     2Ag    -1.280621
       2B2u   -0.793716     3Ag    -0.526328     1B1u   -0.514109
       1B3u   -0.506279     1B1g   -0.244353

    Alpha Virtual:

       1B3g   -0.173576     3B2u    0.220575     4B2u    0.791589
       2B1u    0.823313     2B3u    0.840987     4Ag     0.900313
       2B3g    0.941917     2B1g    0.954064     5Ag     1.072730
       5B2u    1.689509     3B1u    2.064118     3B3u    2.097880
       1B2g    2.349305     6Ag     2.351513     1Au     2.647661
       6B2u    2.650220     7Ag     2.782787     3B3g    3.263455
       3B1g    3.297408     7B2u    3.776638

    Beta Occupied:

       1Ag   -19.286596     1B2u  -19.286447     2Ag    -1.280621
       2B2u   -0.793716     3Ag    -0.526328     1B1u   -0.514109
       1B3u   -0.506279     1B1g   -0.244353

    Beta Virtual:

       1B3g   -0.173576     3B2u    0.220575     4B2u    0.791589
       2B1u    0.823313     2B3u    0.840987     4Ag     0.900313
       2B3g    0.941917     2B1g    0.954064     5Ag     1.072730
       5B2u    1.689509     3B1u    2.064118     3B3u    2.097880
       1B2g    2.349305     6Ag     2.351513     1Au     2.647661
       6B2u    2.650220     7Ag     2.782787     3B3g    3.263455
       3B1g    3.297408     7B2u    3.776638

    Final Occupation by Irrep:
             Ag   B1g   B2g   B3g    Au   B1u   B2u   B3u
    DOCC [     3,    1,    0,    0,    0,    1,    2,    1 ]
    SOCC [     0,    0,    0,    0,    0,    0,    0,    0 ]
    NA   [     3,    1,    0,    0,    0,    1,    2,    1 ]
    NB   [     3,    1,    0,    0,    0,    1,    2,    1 ]

  @DF-UKS Final Energy:  -150.27155754456902

   => Energetics <=

    Nuclear Repulsion Energy =             27.9887758334607888
    One-Electron Energy =                -261.7530823752554170
    Two-Electron Energy =                  97.2608807560956024
    DFT Exchange-Correlation Energy =     -13.7681317588700001
    Empirical Dispersion Energy =           0.0000000000000000
    VV10 Nonlocal Energy =                  0.0000000000000000
    Total Energy =                       -150.2715575445690490

  UHF NO Occupations:
  HONO-2 :    1B2u 2.0000000
  HONO-1 :    1B3u 2.0000000
  HONO-0 :    2B2u 2.0000000
  LUNO+0 :    2B1u 0.0000000
  LUNO+1 :    2B3u 0.0000000
  LUNO+2 :    4 Ag 0.0000000
  LUNO+3 :    2B1g 0.0000000

Computation Completed

Properties will be evaluated at   0.000000,   0.000000,   0.000000 [a0]

Properties computed using the SCF density matrix

 Multipole Moments:

 ------------------------------------------------------------------------------------
     Multipole            Electronic (a.u.)      Nuclear  (a.u.)        Total (a.u.)
 ------------------------------------------------------------------------------------

 L = 1.  Multiply by 2.5417464519 to convert [e a0] to [Debye]
 Dipole X            :          0.0000000            0.0000000            0.0000000
 Dipole Y            :          0.0000000            0.0000000            0.0000000
 Dipole Z            :          0.0000000            0.0000000            0.0000000
 Magnitude           :                                                    0.0000000

 ------------------------------------------------------------------------------------

*** tstop() called on Joses-MacBook-Pro-2.local at Wed Jul 16 19:16:49 2025
Module time:
	user time   =       3.42 seconds =       0.06 minutes
	system time =       3.10 seconds =       0.05 minutes
	total time  =          0 seconds =       0.00 minutes
Total time:
	user time   =      14.09 seconds =       0.23 minutes
	system time =      12.56 seconds =       0.21 minutes
	total time  =          2 seconds =       0.03 minutes

*** tstart() called on Joses-MacBook-Pro-2.local
*** at Wed Jul 16 19:16:49 2025

         ------------------------------------------------------------
                                   SCF GRAD
                          Rob Parrish, Justin Turney,
                       Andy Simmonett, and Alex Sokolov
         ------------------------------------------------------------

  ==> Geometry <==

    Molecular point group: d2h
    Full point group: D_inf_h

    Geometry (in Angstrom), charge = 0, multiplicity = 1:

       Center              X                  Y                   Z               Mass
    ------------   -----------------  -----------------  -----------------  -----------------
         O           -0.000000000000     0.605016483829     0.000000000000    15.994914619570
         O            0.000000000000    -0.605016483829     0.000000000000    15.994914619570

  Nuclear repulsion =   27.988775833460789

  ==> Basis Set <==

  Basis Set: CC-PVDZ
    Blend: CC-PVDZ
    Number of shells: 12
    Number of basis functions: 28
    Number of Cartesian functions: 30
    Spherical Harmonics?: true
    Max angular momentum: 2

  ==> DFJKGrad: Density-Fitted SCF Gradients <==

    Gradient:                    1
    J tasked:                  Yes
    K tasked:                  Yes
    wK tasked:                  No
    OpenMP threads:              1
    Integrals threads:           1
    Memory [MiB]:              375
    Schwarz Cutoff:          1E-12
    Fitting Condition:       1E-10

   => Auxiliary Basis Set <=

  Basis Set: (CC-PVDZ AUX)
    Blend: CC-PVDZ-JKFIT
    Number of shells: 48
    Number of basis functions: 140
    Number of Cartesian functions: 162
    Spherical Harmonics?: true
    Max angular momentum: 3

  ==> DFT Potential <==

   => LibXC <=

    Version 6.2.2
    S. Lehtola, C. Steigemann, M. J.T. Oliveira, and M. A.L. Marques.,  SoftwareX 7, 1â€“5 (2018) (10.1016/j.softx.2017.11.002)

   => Composite Functional: B3LYP <=

    B3LYP Hyb-GGA Exchange-Correlation Functional

    P. J. Stephens, F. J. Devlin, C. F. Chabalowski, and M. J. Frisch.,  J. Phys. Chem. 98, 11623 (1994) (10.1021/j100096a001)

    Deriv               =              1
    GGA                 =           TRUE
    Meta                =          FALSE

    Exchange Hybrid     =           TRUE
    MP2 Hybrid          =          FALSE

   => Exchange Functionals <=

    0.0800   Slater exchange
    0.7200         Becke 88

   => Exact (HF) Exchange <=

    0.2000               HF

   => Correlation Functionals <=

    0.1900   Vosko, Wilk & Nusair (VWN5_RPA)
    0.8100   Lee, Yang & Parr

   => LibXC Density Thresholds  <==

    XC_HYB_GGA_XC_B3LYP:  1.00E-15

   => Molecular Quadrature <=

    Radial Scheme          =       TREUTLER
    Pruning Scheme         =           NONE
    Nuclear Scheme         =       TREUTLER

    Blocking Scheme        =         OCTREE
    BS radius alpha        =              1
    Pruning alpha          =              1
    Radial Points          =             75
    Spherical Points       =            302
    Total Points           =          41436
    Total Blocks           =            370
    Max Points             =            254
    Max Functions          =             28
    Weights Tolerance      =       1.00E-15

  -Total Gradient:
     Atom            X                  Y                   Z
    ------   -----------------  -----------------  -----------------
       1        0.000000000000    -0.000112410902     0.000000000000
       2       -0.000000000000     0.000112410902     0.000000000000

*** tstop() called on Joses-MacBook-Pro-2.local at Wed Jul 16 19:16:50 2025
Module time:
	user time   =       0.58 seconds =       0.01 minutes
	system time =       1.09 seconds =       0.02 minutes
	total time  =          1 seconds =       0.02 minutes
Total time:
	user time   =      14.67 seconds =       0.24 minutes
	system time =      13.65 seconds =       0.23 minutes
	total time  =          3 seconds =       0.05 minutes

    			-----------------------------------------

    			 OPTKING 3.0: for geometry optimizations

    			     By R.A. King, Bethel University

    			        with contributions from

    			    A.V. Copan, J. Cayton, A. Heide

    			-----------------------------------------

	                            ===> Fragment 1 <==

	 Z (Atomic Numbers)          Masses                          Geom
	       8.000000            15.994915         -0.00000000  1.14331546  0.00000000
	       8.000000            15.994915          0.00000000 -1.14331546  0.00000000

	 - Coordinate -           - BOHR/RAD -       - ANG/DEG -
	 R(1,2)           =         2.286631           1.210033

	        --- Internal Coordinate Step in ANG or DEG, aJ/ANG or AJ/DEG ---
	-------------------------------------------------------------------------------
	           Coordinate      Previous         Force          Change          New
	           ----------      --------        ------          ------        ------
	               R(1,2)       1.21003        0.00093        0.00007       1.21010
	-------------------------------------------------------------------------------

	                                 ==> Convergence Check <==

	Measures of convergence in internal coordinates in au.

	Criteria marked as inactive (o), active & met (*), and active & unmet ( ).

	----------------------------------------------------------------------------------------------
	   Step    Total Energy     Delta E     Max Force     RMS Force      Max Disp      RMS Disp
	----------------------------------------------------------------------------------------------
	  Convergence Criteria     1.00e-06 *    3.00e-04 *             o    1.20e-03 *             o
	----------------------------------------------------------------------------------------------
	     3    -150.27155754   -6.06e-06      1.12e-04 *    1.12e-04 o    1.34e-04 *    1.34e-04 o  ~
	----------------------------------------------------------------------------------------------

Next Geometry in Ang
	Fragment 1 (Ang)

	    O  -0.0000000000   0.6050520680   0.0000000000
	    O   0.0000000000  -0.6050520680   0.0000000000

    Final optimized geometry and variables:
    Molecular point group: d2h
    Full point group: D_inf_h

    Geometry (in Angstrom), charge = 0, multiplicity = 1:

    O           -0.000000000000     0.605016483829     0.000000000000
    O            0.000000000000    -0.605016483829     0.000000000000

    Psi4 stopped on: Wednesday, 16 July 2025 07:16PM
    Psi4 wall time for execution: 0:00:03.52

*** Psi4 exiting successfully. Buy a developer a beer!
