                               Psi4 1.9.1 release

  ==> Input File <==

--------------------------------------------------------------------------
molecule {
0 1
Al   0.00000        0.60000        0.00000
P   0.00000       -0.60000        0.00000
}

set {
basis              cc-pvdz
reference          uks
maxiter            500
geom_maxiter       500
DAMPING_PERCENTAGE 1
guess              SAP
}

optimize('b3lyp')
--------------------------------------------------------------------------

    Molecular point group: c2v
  Charge       = 0
  Multiplicity = 1
  Basis Set: CC-PVDZ
    Blend: CC-PVDZ
  Basis Set: (CC-PVDZ AUX)
    Blend: CC-PVDZ-JKFIT
  @DF-UKS Final Energy:  -582.69868567301796
    Total Energy =                       -582.6986856730179625
 Dipole X            :          0.0000000            0.0000000            0.0000000
 Dipole Y            :          0.0000000            0.0000000            0.0000000
 Dipole Z            :          0.6408930           -0.0807668            0.5601262
 Magnitude           :                                                    0.5601262
    Molecular point group: c2v
  Basis Set: CC-PVDZ
    Blend: CC-PVDZ
  Basis Set: (CC-PVDZ AUX)
    Blend: CC-PVDZ-JKFIT
  Basis Set: CC-PVDZ
    Blend: CC-PVDZ
  Basis Set: (CC-PVDZ AUX)
    Blend: CC-PVDZ-JKFIT
  @DF-UKS Final Energy:  -582.71713153872042
    Total Energy =                       -582.7171315387204231
  Basis Set: CC-PVDZ
    Blend: CC-PVDZ
  Basis Set: (CC-PVDZ AUX)
    Blend: CC-PVDZ-JKFIT
  Basis Set: CC-PVDZ
    Blend: CC-PVDZ
  @DF-UKS Final Energy:  -582.75259217666996
    Total Energy =                       -582.7525921766699639
  @DF-UKS Final Energy:  -582.87959534816309
    Total Energy =                       -582.8795953481630931
  @DF-UKS Final Energy:  -583.38275745744966
    Total Energy =                       -583.3827574574496566
  @DF-UKS Final Energy:  -583.57311669190290
    Total Energy =                       -583.5731166919028965
  @DF-UKS Final Energy:  -583.66166913083771
    Total Energy =                       -583.6616691308375948
  @DF-UKS Final Energy:  -583.69403162690128
    Total Energy =                       -583.6940316269011646
  @DF-UKS Final Energy:  -583.70409258409541
    Total Energy =                       -583.7040925840955197
  @DF-UKS Final Energy:  -583.70587785846897
    Total Energy =                       -583.7058778584689662
  @DF-UKS Final Energy:  -583.70631018780091
    Total Energy =                       -583.7063101878009093
  @DF-UKS Final Energy:  -583.70635282519072
    Total Energy =                       -583.7063528251908338
  Basis Set: (CC-PVDZ AUX)
    Blend: CC-PVDZ-JKFIT
  Basis Set: CC-PVDZ
    Blend: CC-PVDZ
  Basis Set: (CC-PVDZ AUX)
    Blend: CC-PVDZ-JKFIT
  @DF-UKS Final Energy:  -583.70635732594837
    Total Energy =                       -583.7063573259483746
  Basis Set: CC-PVDZ
    Blend: CC-PVDZ
  Basis Set: (CC-PVDZ AUX)
    Blend: CC-PVDZ-JKFIT
  Charge       = 0
  Multiplicity = 1
  Basis Set: CC-PVDZ
    Blend: CC-PVDZ
  Basis Set: (CC-PVDZ AUX)
    Blend: CC-PVDZ-JKFIT

    Orbital Energies [Eh]
    ---------------------

    Alpha Occupied:

       1A1   -77.077801     2A1   -56.109180     3A1    -6.545978
       4A1    -4.713572     1B1    -4.702757     1B2    -4.702757
       5A1    -4.189696     6A1    -2.744743     2B1    -2.740370
       2B2    -2.740370     7A1    -0.557540     8A1    -0.328572
       3B2    -0.209521     3B1    -0.209521

    Alpha Virtual:

       9A1    -0.176093     4B2    -0.051113     4B1    -0.051113
      10A1     0.041207    11A1     0.146465     5B2     0.195306
       5B1     0.195306    12A1     0.213220     1A2     0.247433
      13A1     0.247433     6B2     0.264715     6B1     0.264715
      14A1     0.301546     7B2     0.476353     7B1     0.476353
      15A1     0.522319     2A2     0.535762    16A1     0.535764
      17A1     0.635597     8B2     0.678924     8B1     0.678924
      18A1     0.967943

    Beta Occupied:

       1A1   -77.077801     2A1   -56.109180     3A1    -6.545978
       4A1    -4.713572     1B1    -4.702757     1B2    -4.702757
       5A1    -4.189696     6A1    -2.744743     2B1    -2.740370
       2B2    -2.740370     7A1    -0.557540     8A1    -0.328572
       3B2    -0.209521     3B1    -0.209521

    Beta Virtual:

       9A1    -0.176093     4B2    -0.051113     4B1    -0.051113
      10A1     0.041207    11A1     0.146465     5B2     0.195306
       5B1     0.195306    12A1     0.213220     1A2     0.247433
      13A1     0.247433     6B2     0.264715     6B1     0.264715
      14A1     0.301546     7B2     0.476353     7B1     0.476353
      15A1     0.522319     2A2     0.535762    16A1     0.535764
      17A1     0.635597     8B2     0.678924     8B1     0.678924
      18A1     0.967943

    Final Occupation by Irrep:
             A1    A2    B1    B2
    DOCC [     8,    0,    3,    3 ]
    SOCC [     0,    0,    0,    0 ]
    NA   [     8,    0,    3,    3 ]
    NB   [     8,    0,    3,    3 ]

  @DF-UKS Final Energy:  -583.70635785856280

   => Energetics <=

    Nuclear Repulsion Energy =             48.9806550643399063
    One-Electron Energy =                -906.2261476709659291
    Two-Electron Energy =                 307.2256265596132607
    DFT Exchange-Correlation Energy =     -33.6864918115498853
    Empirical Dispersion Energy =           0.0000000000000000
    VV10 Nonlocal Energy =                  0.0000000000000000
    Total Energy =                       -583.7063578585626828

  UHF NO Occupations:
  HONO-2 :    3 B1 2.0000000
  HONO-1 :    7 A1 2.0000000
  HONO-0 :    8 A1 2.0000000
  LUNO+0 :    9 A1 0.0000000
  LUNO+1 :    4 B1 0.0000000
  LUNO+2 :   10 A1 0.0000000
  LUNO+3 :    4 B2 0.0000000

Computation Completed

Properties will be evaluated at   0.000000,   0.000000,   0.000000 [a0]

Properties computed using the SCF density matrix

 Multipole Moments:

 ------------------------------------------------------------------------------------
     Multipole            Electronic (a.u.)      Nuclear  (a.u.)        Total (a.u.)
 ------------------------------------------------------------------------------------

 L = 1.  Multiply by 2.5417464519 to convert [e a0] to [Debye]
 Dipole X            :          0.0000000            0.0000000            0.0000000
 Dipole Y            :          0.0000000            0.0000000            0.0000000
 Dipole Z            :          1.5078018           -0.1417956            1.3660062
 Magnitude           :                                                    1.3660062

 ------------------------------------------------------------------------------------

*** tstop() called on Joses-MacBook-Pro-2.local at Wed Jul 16 20:07:18 2025
Module time:
	user time   =       7.31 seconds =       0.12 minutes
	system time =       2.20 seconds =       0.04 minutes
	total time  =          0 seconds =       0.00 minutes
Total time:
	user time   =     167.70 seconds =       2.79 minutes
	system time =      45.41 seconds =       0.76 minutes
	total time  =         20 seconds =       0.33 minutes

*** tstart() called on Joses-MacBook-Pro-2.local
*** at Wed Jul 16 20:07:18 2025

         ------------------------------------------------------------
                                   SCF GRAD
                          Rob Parrish, Justin Turney,
                       Andy Simmonett, and Alex Sokolov
         ------------------------------------------------------------

  ==> Geometry <==

    Molecular point group: c2v
    Full point group: C_inf_v

    Geometry (in Angstrom), charge = 0, multiplicity = 1:

       Center              X                  Y                   Z               Mass
    ------------   -----------------  -----------------  -----------------  -----------------
         AL           0.000000000000     0.000000000000     1.125931448911    26.981538530000
         P            0.000000000000     0.000000000000    -0.980809588854    30.973761998420

  Nuclear repulsion =   48.980655064339906

  ==> Basis Set <==

  Basis Set: CC-PVDZ
    Blend: CC-PVDZ
    Number of shells: 16
    Number of basis functions: 36
    Number of Cartesian functions: 38
    Spherical Harmonics?: true
    Max angular momentum: 2

  ==> DFJKGrad: Density-Fitted SCF Gradients <==

    Gradient:                    1
    J tasked:                  Yes
    K tasked:                  Yes
    wK tasked:                  No
    OpenMP threads:              1
    Integrals threads:           1
    Memory [MiB]:              375
    Schwarz Cutoff:          1E-12
    Fitting Condition:       1E-10

   => Auxiliary Basis Set <=

  Basis Set: (CC-PVDZ AUX)
    Blend: CC-PVDZ-JKFIT
    Number of shells: 72
    Number of basis functions: 224
    Number of Cartesian functions: 260
    Spherical Harmonics?: true
    Max angular momentum: 3

  ==> DFT Potential <==

   => LibXC <=

    Version 6.2.2
    S. Lehtola, C. Steigemann, M. J.T. Oliveira, and M. A.L. Marques.,  SoftwareX 7, 1â€“5 (2018) (10.1016/j.softx.2017.11.002)

   => Composite Functional: B3LYP <=

    B3LYP Hyb-GGA Exchange-Correlation Functional

    P. J. Stephens, F. J. Devlin, C. F. Chabalowski, and M. J. Frisch.,  J. Phys. Chem. 98, 11623 (1994) (10.1021/j100096a001)

    Deriv               =              1
    GGA                 =           TRUE
    Meta                =          FALSE

    Exchange Hybrid     =           TRUE
    MP2 Hybrid          =          FALSE

   => Exchange Functionals <=

    0.0800   Slater exchange
    0.7200         Becke 88

   => Exact (HF) Exchange <=

    0.2000               HF

   => Correlation Functionals <=

    0.1900   Vosko, Wilk & Nusair (VWN5_RPA)
    0.8100   Lee, Yang & Parr

   => LibXC Density Thresholds  <==

    XC_HYB_GGA_XC_B3LYP:  1.00E-15

   => Molecular Quadrature <=

    Radial Scheme          =       TREUTLER
    Pruning Scheme         =           NONE
    Nuclear Scheme         =       TREUTLER

    Blocking Scheme        =         OCTREE
    BS radius alpha        =              1
    Pruning alpha          =              1
    Radial Points          =             75
    Spherical Points       =            302
    Total Points           =          42653
    Total Blocks           =            402
    Max Points             =            253
    Max Functions          =             36
    Weights Tolerance      =       1.00E-15

  -Total Gradient:
     Atom            X                  Y                   Z
    ------   -----------------  -----------------  -----------------
       1        0.000000000000    -0.000000000000    -0.000067710474
       2        0.000000000000    -0.000000000000     0.000074853769

*** tstop() called on Joses-MacBook-Pro-2.local at Wed Jul 16 20:07:19 2025
Module time:
	user time   =       2.85 seconds =       0.05 minutes
	system time =       1.16 seconds =       0.02 minutes
	total time  =          1 seconds =       0.02 minutes
Total time:
	user time   =     170.56 seconds =       2.84 minutes
	system time =      46.57 seconds =       0.78 minutes
	total time  =         21 seconds =       0.35 minutes

    			-----------------------------------------

    			 OPTKING 3.0: for geometry optimizations

    			     By R.A. King, Bethel University

    			        with contributions from

    			    A.V. Copan, J. Cayton, A. Heide

    			-----------------------------------------

	                            ===> Fragment 1 <==

	 Z (Atomic Numbers)          Masses                          Geom
	      13.000000            26.981539          0.00000000  0.00000000  2.12770207
	      15.000000            30.973762          0.00000000  0.00000000 -1.85346150

	 - Coordinate -           - BOHR/RAD -       - ANG/DEG -
	 R(1,2)           =         3.981164           2.106741

	        --- Internal Coordinate Step in ANG or DEG, aJ/ANG or AJ/DEG ---
	-------------------------------------------------------------------------------
	           Coordinate      Previous         Force          Change          New
	           ----------      --------        ------          ------        ------
	               R(1,2)       2.10674        0.00059        0.00021       2.10695
	-------------------------------------------------------------------------------

	                                 ==> Convergence Check <==

	Measures of convergence in internal coordinates in au.

	Criteria marked as inactive (o), active & met (*), and active & unmet ( ).

	----------------------------------------------------------------------------------------------
	   Step    Total Energy     Delta E     Max Force     RMS Force      Max Disp      RMS Disp
	----------------------------------------------------------------------------------------------
	  Convergence Criteria     1.00e-06 *    3.00e-04 *             o    1.20e-03 *             o
	----------------------------------------------------------------------------------------------
	    14    -583.70635786   -5.33e-07 *    7.13e-05 *    7.13e-05 o    3.94e-04 *    3.94e-04 o  ~
	----------------------------------------------------------------------------------------------

Next Geometry in Ang
	Fragment 1 (Ang)

	   Al   0.0000000000   0.0000000000   1.1260357617
	    P   0.0000000000   0.0000000000  -0.9809139016

    Final optimized geometry and variables:
    Molecular point group: c2v
    Full point group: C_inf_v

    Geometry (in Angstrom), charge = 0, multiplicity = 1:

    AL           0.000000000000     0.000000000000     1.125931448911
    P            0.000000000000     0.000000000000    -0.980809588854

    Psi4 stopped on: Wednesday, 16 July 2025 08:07PM
    Psi4 wall time for execution: 0:00:21.40

*** Psi4 exiting successfully. Buy a developer a beer!
