                               Psi4 1.9.1 release

  ==> Input File <==

--------------------------------------------------------------------------
molecule {
0 1
N   0.00000        0.60000        0.00000
Na   0.00000       -0.60000        0.00000
}

set {
basis              cc-pvdz
reference          uks
maxiter            500
geom_maxiter       500
DAMPING_PERCENTAGE 1
guess              SAP
}

optimize('b3lyp')
--------------------------------------------------------------------------

    Molecular point group: c2v
  Charge       = 0
  Multiplicity = 1
  Basis Set: CC-PVDZ
    Blend: CC-PVDZ
  Basis Set: (CC-PVDZ AUX)
    Blend: CC-PVDZ-JKFIT + DEF2-UNIVERSAL-JKFIT
  @DF-UKS Final Energy:  -216.50881816266653
    Total Energy =                       -216.5088181626665289
 Dipole X            :          0.0000000            0.0000000            0.0000000
 Dipole Y            :          0.0000000            0.0000000            0.0000000
 Dipole Z            :         -2.7462182            0.4226391           -2.3235791
 Magnitude           :                                                    2.3235791
    Molecular point group: c2v
  Basis Set: CC-PVDZ
    Blend: CC-PVDZ
  Basis Set: (CC-PVDZ AUX)
    Blend: CC-PVDZ-JKFIT + DEF2-UNIVERSAL-JKFIT
  Basis Set: CC-PVDZ
    Blend: CC-PVDZ
  Basis Set: (CC-PVDZ AUX)
    Blend: CC-PVDZ-JKFIT + DEF2-UNIVERSAL-JKFIT
  @DF-UKS Final Energy:  -216.61154650486563
    Total Energy =                       -216.6115465048656290
  Basis Set: CC-PVDZ
    Blend: CC-PVDZ
  Basis Set: (CC-PVDZ AUX)
    Blend: CC-PVDZ-JKFIT + DEF2-UNIVERSAL-JKFIT
  Basis Set: CC-PVDZ
    Blend: CC-PVDZ
  @DF-UKS Final Energy:  -216.70681605605458
    Total Energy =                       -216.7068160560545778
  @DF-UKS Final Energy:  -216.77321910086334
    Total Energy =                       -216.7732191008633436
  @DF-UKS Final Energy:  -216.80442895311620
    Total Energy =                       -216.8044289531162292
  @DF-UKS Final Energy:  -216.81545333481438
    Total Energy =                       -216.8154533348143502
  @DF-UKS Final Energy:  -216.81805948742144
    Total Energy =                       -216.8180594874214364
  @DF-UKS Final Energy:  -216.81894468540435
    Total Energy =                       -216.8189446854043467
  @DF-UKS Final Energy:  -216.81908446538168
    Total Energy =                       -216.8190844653816782
  @DF-UKS Final Energy:  -216.81910812942644
    Total Energy =                       -216.8191081294264393
  Basis Set: (CC-PVDZ AUX)
    Blend: CC-PVDZ-JKFIT + DEF2-UNIVERSAL-JKFIT
  Basis Set: CC-PVDZ
    Blend: CC-PVDZ
  Basis Set: (CC-PVDZ AUX)
    Blend: CC-PVDZ-JKFIT + DEF2-UNIVERSAL-JKFIT
  @DF-UKS Final Energy:  -216.81911273009936
    Total Energy =                       -216.8191127300993628
  Basis Set: CC-PVDZ
    Blend: CC-PVDZ
  Basis Set: (CC-PVDZ AUX)
    Blend: CC-PVDZ-JKFIT + DEF2-UNIVERSAL-JKFIT
  Charge       = 0
  Multiplicity = 1
  Basis Set: CC-PVDZ
    Blend: CC-PVDZ
  Basis Set: (CC-PVDZ AUX)
    Blend: CC-PVDZ-JKFIT + DEF2-UNIVERSAL-JKFIT

    Orbital Energies [Eh]
    ---------------------

    Alpha Occupied:

       1A1   -38.520638     2A1   -14.288019     3A1    -2.265417
       4A1    -1.200234     1B2    -1.195634     1B1    -1.195634
       5A1    -0.603347     2B1    -0.158254     2B2    -0.158254

    Alpha Virtual:

       6A1    -0.108959     7A1    -0.054940     3B2     0.002532
       3B1     0.002532     8A1     0.026080     9A1     0.058325
       4B1     0.091014     4B2     0.091014    10A1     0.141126
       1A2     0.175608    11A1     0.175608     5B1     0.229988
       5B2     0.229988    12A1     0.285128    13A1     0.869380
       6B2     0.926609     6B1     0.926609    14A1     1.369269
      15A1     1.834569     7B2     1.860316     7B1     1.860316
      16A1     1.890756     2A2     1.890810

    Beta Occupied:

       1A1   -38.520638     2A1   -14.288019     3A1    -2.265417
       4A1    -1.200234     1B2    -1.195634     1B1    -1.195634
       5A1    -0.603347     2B1    -0.158254     2B2    -0.158254

    Beta Virtual:

       6A1    -0.108959     7A1    -0.054940     3B2     0.002532
       3B1     0.002532     8A1     0.026080     9A1     0.058325
       4B1     0.091014     4B2     0.091014    10A1     0.141126
       1A2     0.175608    11A1     0.175608     5B1     0.229988
       5B2     0.229988    12A1     0.285128    13A1     0.869380
       6B2     0.926609     6B1     0.926609    14A1     1.369269
      15A1     1.834569     7B2     1.860316     7B1     1.860316
      16A1     1.890756     2A2     1.890810

    Final Occupation by Irrep:
             A1    A2    B1    B2
    DOCC [     5,    0,    2,    2 ]
    SOCC [     0,    0,    0,    0 ]
    NA   [     5,    0,    2,    2 ]
    NB   [     5,    0,    2,    2 ]

  @DF-UKS Final Energy:  -216.81911296392548

   => Energetics <=

    Nuclear Repulsion Energy =             20.7464750107407383
    One-Electron Energy =                -343.6457916566753283
    Two-Electron Energy =                 123.2609417551878437
    DFT Exchange-Correlation Energy =     -17.1807380731787092
    Empirical Dispersion Energy =           0.0000000000000000
    VV10 Nonlocal Energy =                  0.0000000000000000
    Total Energy =                       -216.8191129639254768

  UHF NO Occupations:
  HONO-2 :    2 B2 2.0000000
  HONO-1 :    5 A1 2.0000000
  HONO-0 :    2 B1 2.0000000
  LUNO+0 :    6 A1 0.0000000
  LUNO+1 :    7 A1 0.0000000
  LUNO+2 :    8 A1 0.0000000
  LUNO+3 :    3 B2 0.0000000

Computation Completed

Properties will be evaluated at   0.000000,   0.000000,   0.000000 [a0]

Properties computed using the SCF density matrix

 Multipole Moments:

 ------------------------------------------------------------------------------------
     Multipole            Electronic (a.u.)      Nuclear  (a.u.)        Total (a.u.)
 ------------------------------------------------------------------------------------

 L = 1.  Multiply by 2.5417464519 to convert [e a0] to [Debye]
 Dipole X            :          0.0000000            0.0000000            0.0000000
 Dipole Y            :          0.0000000            0.0000000            0.0000000
 Dipole Z            :         -3.3473971            0.6917289           -2.6556682
 Magnitude           :                                                    2.6556682

 ------------------------------------------------------------------------------------

*** tstop() called on Joses-MacBook-Pro-2.local at Wed Jul 16 19:09:27 2025
Module time:
	user time   =       4.29 seconds =       0.07 minutes
	system time =       3.69 seconds =       0.06 minutes
	total time  =          0 seconds =       0.00 minutes
Total time:
	user time   =      73.78 seconds =       1.23 minutes
	system time =      66.61 seconds =       1.11 minutes
	total time  =         14 seconds =       0.23 minutes

*** tstart() called on Joses-MacBook-Pro-2.local
*** at Wed Jul 16 19:09:27 2025

         ------------------------------------------------------------
                                   SCF GRAD
                          Rob Parrish, Justin Turney,
                       Andy Simmonett, and Alex Sokolov
         ------------------------------------------------------------

  ==> Geometry <==

    Molecular point group: c2v
    Full point group: C_inf_v

    Geometry (in Angstrom), charge = 0, multiplicity = 1:

       Center              X                  Y                   Z               Mass
    ------------   -----------------  -----------------  -----------------  -----------------
         N            0.000000000000     0.000000000000     1.220574916896    14.003074004430
         NA           0.000000000000     0.000000000000    -0.743452475733    22.989769282000

  Nuclear repulsion =   20.746475010740738

  ==> Basis Set <==

  Basis Set: CC-PVDZ
    Blend: CC-PVDZ
    Number of shells: 14
    Number of basis functions: 32
    Number of Cartesian functions: 34
    Spherical Harmonics?: true
    Max angular momentum: 2

  ==> DFJKGrad: Density-Fitted SCF Gradients <==

    Gradient:                    1
    J tasked:                  Yes
    K tasked:                  Yes
    wK tasked:                  No
    OpenMP threads:              1
    Integrals threads:           1
    Memory [MiB]:              375
    Schwarz Cutoff:          1E-12
    Fitting Condition:       1E-10

   => Auxiliary Basis Set <=

  Basis Set: (CC-PVDZ AUX)
    Blend: CC-PVDZ-JKFIT + DEF2-UNIVERSAL-JKFIT
    Number of shells: 58
    Number of basis functions: 182
    Number of Cartesian functions: 218
    Spherical Harmonics?: true
    Max angular momentum: 4

  ==> DFT Potential <==

   => LibXC <=

    Version 6.2.2
    S. Lehtola, C. Steigemann, M. J.T. Oliveira, and M. A.L. Marques.,  SoftwareX 7, 1â€“5 (2018) (10.1016/j.softx.2017.11.002)

   => Composite Functional: B3LYP <=

    B3LYP Hyb-GGA Exchange-Correlation Functional

    P. J. Stephens, F. J. Devlin, C. F. Chabalowski, and M. J. Frisch.,  J. Phys. Chem. 98, 11623 (1994) (10.1021/j100096a001)

    Deriv               =              1
    GGA                 =           TRUE
    Meta                =          FALSE

    Exchange Hybrid     =           TRUE
    MP2 Hybrid          =          FALSE

   => Exchange Functionals <=

    0.0800   Slater exchange
    0.7200         Becke 88

   => Exact (HF) Exchange <=

    0.2000               HF

   => Correlation Functionals <=

    0.1900   Vosko, Wilk & Nusair (VWN5_RPA)
    0.8100   Lee, Yang & Parr

   => LibXC Density Thresholds  <==

    XC_HYB_GGA_XC_B3LYP:  1.00E-15

   => Molecular Quadrature <=

    Radial Scheme          =       TREUTLER
    Pruning Scheme         =           NONE
    Nuclear Scheme         =       TREUTLER

    Blocking Scheme        =         OCTREE
    BS radius alpha        =              1
    Pruning alpha          =              1
    Radial Points          =             75
    Spherical Points       =            302
    Total Points           =          43777
    Total Blocks           =            427
    Max Points             =            256
    Max Functions          =             32
    Weights Tolerance      =       1.00E-15

  -Total Gradient:
     Atom            X                  Y                   Z
    ------   -----------------  -----------------  -----------------
       1        0.000000000000     0.000000000000    -0.000049414047
       2        0.000000000000    -0.000000000000     0.000027298443

*** tstop() called on Joses-MacBook-Pro-2.local at Wed Jul 16 19:09:28 2025
Module time:
	user time   =       1.19 seconds =       0.02 minutes
	system time =       2.01 seconds =       0.03 minutes
	total time  =          1 seconds =       0.02 minutes
Total time:
	user time   =      74.98 seconds =       1.25 minutes
	system time =      68.64 seconds =       1.14 minutes
	total time  =         15 seconds =       0.25 minutes

    			-----------------------------------------

    			 OPTKING 3.0: for geometry optimizations

    			     By R.A. King, Bethel University

    			        with contributions from

    			    A.V. Copan, J. Cayton, A. Heide

    			-----------------------------------------

	                            ===> Fragment 1 <==

	 Z (Atomic Numbers)          Masses                          Geom
	       7.000000            14.003074          0.00000000  0.00000000  2.30655231
	      11.000000            22.989769          0.00000000  0.00000000 -1.40492157

	 - Coordinate -           - BOHR/RAD -       - ANG/DEG -
	 R(1,2)           =         3.711474           1.964027

	        --- Internal Coordinate Step in ANG or DEG, aJ/ANG or AJ/DEG ---
	-------------------------------------------------------------------------------
	           Coordinate      Previous         Force          Change          New
	           ----------      --------        ------          ------        ------
	               R(1,2)       1.96403        0.00032        0.00022       1.96425
	-------------------------------------------------------------------------------

	                                 ==> Convergence Check <==

	Measures of convergence in internal coordinates in au.

	Criteria marked as inactive (o), active & met (*), and active & unmet ( ).

	----------------------------------------------------------------------------------------------
	   Step    Total Energy     Delta E     Max Force     RMS Force      Max Disp      RMS Disp
	----------------------------------------------------------------------------------------------
	  Convergence Criteria     1.00e-06 *    3.00e-04 *             o    1.20e-03 *             o
	----------------------------------------------------------------------------------------------
	    12    -216.81911296   -2.34e-07 *    3.84e-05 *    3.84e-05 o    4.12e-04 *    4.12e-04 o  ~
	----------------------------------------------------------------------------------------------

Next Geometry in Ang
	Fragment 1 (Ang)

	    N   0.0000000000   0.0000000000   1.2206840185
	   Na   0.0000000000   0.0000000000  -0.7435615774

    Final optimized geometry and variables:
    Molecular point group: c2v
    Full point group: C_inf_v

    Geometry (in Angstrom), charge = 0, multiplicity = 1:

    N            0.000000000000     0.000000000000     1.220574916896
    NA           0.000000000000     0.000000000000    -0.743452475733

    Psi4 stopped on: Wednesday, 16 July 2025 07:09PM
    Psi4 wall time for execution: 0:00:15.74

*** Psi4 exiting successfully. Buy a developer a beer!
