                               Psi4 1.9.1 release

  ==> Input File <==

--------------------------------------------------------------------------
molecule {
0 1
F   0.00000        0.60000        0.00000
P   0.00000       -0.60000        0.00000
}

set {
basis              cc-pvdz
reference          uks
maxiter            500
geom_maxiter       500
DAMPING_PERCENTAGE 1
guess              SAP
}

optimize('b3lyp')
--------------------------------------------------------------------------

    Molecular point group: c2v
  Charge       = 0
  Multiplicity = 1
  Basis Set: CC-PVDZ
    Blend: CC-PVDZ
  Basis Set: (CC-PVDZ AUX)
    Blend: CC-PVDZ-JKFIT
  @DF-UKS Final Energy:  -440.84515538939877
    Total Energy =                       -440.8451553893987693
 Dipole X            :          0.0000000            0.0000000            0.0000000
 Dipole Y            :          0.0000000            0.0000000            0.0000000
 Dipole Z            :          0.7526089           -0.2819010            0.4707079
 Magnitude           :                                                    0.4707079
    Molecular point group: c2v
  Basis Set: CC-PVDZ
    Blend: CC-PVDZ
  Basis Set: (CC-PVDZ AUX)
    Blend: CC-PVDZ-JKFIT
  Basis Set: CC-PVDZ
    Blend: CC-PVDZ
  Basis Set: (CC-PVDZ AUX)
    Blend: CC-PVDZ-JKFIT
  @DF-UKS Final Energy:  -441.00326493345381
    Total Energy =                       -441.0032649334538064
  Basis Set: CC-PVDZ
    Blend: CC-PVDZ
  Basis Set: (CC-PVDZ AUX)
    Blend: CC-PVDZ-JKFIT
  Basis Set: CC-PVDZ
    Blend: CC-PVDZ
  @DF-UKS Final Energy:  -441.07742622901526
    Total Energy =                       -441.0774262290152592
  @DF-UKS Final Energy:  -441.10017447139103
    Total Energy =                       -441.1001744713910284
  @DF-UKS Final Energy:  -441.11105230886710
    Total Energy =                       -441.1110523088671016
  @DF-UKS Final Energy:  -441.11404848128223
    Total Energy =                       -441.1140484812822251
  @DF-UKS Final Energy:  -441.11521113750086
    Total Energy =                       -441.1152111375008076
  @DF-UKS Final Energy:  -441.11541855439253
    Total Energy =                       -441.1154185543925905
  @DF-UKS Final Energy:  -441.11546242753406
    Total Energy =                       -441.1154624275340552
  Basis Set: (CC-PVDZ AUX)
    Blend: CC-PVDZ-JKFIT
  Basis Set: CC-PVDZ
    Blend: CC-PVDZ
  Basis Set: (CC-PVDZ AUX)
    Blend: CC-PVDZ-JKFIT
  @DF-UKS Final Energy:  -441.11546717313416
    Total Energy =                       -441.1154671731341637
  Basis Set: CC-PVDZ
    Blend: CC-PVDZ
  Basis Set: (CC-PVDZ AUX)
    Blend: CC-PVDZ-JKFIT
  Charge       = 0
  Multiplicity = 1
  Basis Set: CC-PVDZ
    Blend: CC-PVDZ
  Basis Set: (CC-PVDZ AUX)
    Blend: CC-PVDZ-JKFIT

    Orbital Energies [Eh]
    ---------------------

    Alpha Occupied:

       1A1   -77.163007     2A1   -24.721026     3A1    -6.624617
       1B2    -4.793528     4A1    -4.788709     1B1    -4.773215
       5A1    -1.207751     6A1    -0.606249     2B2    -0.454375
       2B1    -0.448243     7A1    -0.429538     3B1    -0.192330

    Alpha Virtual:

       3B2    -0.157831     8A1    -0.011939     9A1     0.340440
       4B2     0.391663     4B1     0.413574    10A1     0.419975
       1A2     0.457123    11A1     0.461715     5B2     0.479516
       5B1     0.504174    12A1     0.675920     6B2     1.209385
       6B1     1.220192    13A1     1.227378    14A1     2.105493
       2A2     3.540939    15A1     3.541045     7B2     3.573518
       7B1     3.584752    16A1     3.804891

    Beta Occupied:

       1A1   -77.163007     2A1   -24.721026     3A1    -6.624617
       1B2    -4.793528     4A1    -4.788709     1B1    -4.773215
       5A1    -1.207751     6A1    -0.606249     2B2    -0.454375
       2B1    -0.448243     7A1    -0.429538     3B1    -0.192330

    Beta Virtual:

       3B2    -0.157831     8A1    -0.011939     9A1     0.340440
       4B2     0.391663     4B1     0.413574    10A1     0.419975
       1A2     0.457123    11A1     0.461715     5B2     0.479516
       5B1     0.504174    12A1     0.675920     6B2     1.209385
       6B1     1.220192    13A1     1.227378    14A1     2.105493
       2A2     3.540939    15A1     3.541045     7B2     3.573518
       7B1     3.584752    16A1     3.804891

    Final Occupation by Irrep:
             A1    A2    B1    B2
    DOCC [     7,    0,    3,    2 ]
    SOCC [     0,    0,    0,    0 ]
    NA   [     7,    0,    3,    2 ]
    NB   [     7,    0,    3,    2 ]

  @DF-UKS Final Energy:  -441.11546731197518

   => Energetics <=

    Nuclear Repulsion Energy =             43.4241786196498083
    One-Electron Energy =                -697.3045365793950623
    Two-Electron Energy =                 239.9099895305111261
    DFT Exchange-Correlation Energy =     -27.1450988827411663
    Empirical Dispersion Energy =           0.0000000000000000
    VV10 Nonlocal Energy =                  0.0000000000000000
    Total Energy =                       -441.1154673119752943

  UHF NO Occupations:
  HONO-2 :    2 B2 2.0000000
  HONO-1 :    7 A1 2.0000000
  HONO-0 :    3 B1 2.0000000
  LUNO+0 :    8 A1 0.0000000
  LUNO+1 :    9 A1 0.0000000
  LUNO+2 :    4 B1 0.0000000
  LUNO+3 :    3 B2 0.0000000

Computation Completed

Properties will be evaluated at   0.000000,   0.000000,   0.000000 [a0]

Properties computed using the SCF density matrix

 Multipole Moments:

 ------------------------------------------------------------------------------------
     Multipole            Electronic (a.u.)      Nuclear  (a.u.)        Total (a.u.)
 ------------------------------------------------------------------------------------

 L = 1.  Multiply by 2.5417464519 to convert [e a0] to [Debye]
 Dipole X            :          0.0000000            0.0000000            0.0000000
 Dipole Y            :          0.0000000            0.0000000            0.0000000
 Dipole Z            :         -0.0284011           -0.3864726           -0.4148737
 Magnitude           :                                                    0.4148737

 ------------------------------------------------------------------------------------

*** tstop() called on Joses-MacBook-Pro-2.local at Wed Jul 16 19:29:06 2025
Module time:
	user time   =       3.79 seconds =       0.06 minutes
	system time =       2.98 seconds =       0.05 minutes
	total time  =          1 seconds =       0.02 minutes
Total time:
	user time   =      65.48 seconds =       1.09 minutes
	system time =      54.04 seconds =       0.90 minutes
	total time  =         12 seconds =       0.20 minutes

*** tstart() called on Joses-MacBook-Pro-2.local
*** at Wed Jul 16 19:29:06 2025

         ------------------------------------------------------------
                                   SCF GRAD
                          Rob Parrish, Justin Turney,
                       Andy Simmonett, and Alex Sokolov
         ------------------------------------------------------------

  ==> Geometry <==

    Molecular point group: c2v
    Full point group: C_inf_v

    Geometry (in Angstrom), charge = 0, multiplicity = 1:

       Center              X                  Y                   Z               Mass
    ------------   -----------------  -----------------  -----------------  -----------------
         F            0.000000000000     0.000000000000     1.019692157442    18.998403162730
         P            0.000000000000     0.000000000000    -0.625449459770    30.973761998420

  Nuclear repulsion =   43.424178619649808

  ==> Basis Set <==

  Basis Set: CC-PVDZ
    Blend: CC-PVDZ
    Number of shells: 14
    Number of basis functions: 32
    Number of Cartesian functions: 34
    Spherical Harmonics?: true
    Max angular momentum: 2

  ==> DFJKGrad: Density-Fitted SCF Gradients <==

    Gradient:                    1
    J tasked:                  Yes
    K tasked:                  Yes
    wK tasked:                  No
    OpenMP threads:              1
    Integrals threads:           1
    Memory [MiB]:              375
    Schwarz Cutoff:          1E-12
    Fitting Condition:       1E-10

   => Auxiliary Basis Set <=

  Basis Set: (CC-PVDZ AUX)
    Blend: CC-PVDZ-JKFIT
    Number of shells: 60
    Number of basis functions: 182
    Number of Cartesian functions: 211
    Spherical Harmonics?: true
    Max angular momentum: 3

  ==> DFT Potential <==

   => LibXC <=

    Version 6.2.2
    S. Lehtola, C. Steigemann, M. J.T. Oliveira, and M. A.L. Marques.,  SoftwareX 7, 1â€“5 (2018) (10.1016/j.softx.2017.11.002)

   => Composite Functional: B3LYP <=

    B3LYP Hyb-GGA Exchange-Correlation Functional

    P. J. Stephens, F. J. Devlin, C. F. Chabalowski, and M. J. Frisch.,  J. Phys. Chem. 98, 11623 (1994) (10.1021/j100096a001)

    Deriv               =              1
    GGA                 =           TRUE
    Meta                =          FALSE

    Exchange Hybrid     =           TRUE
    MP2 Hybrid          =          FALSE

   => Exchange Functionals <=

    0.0800   Slater exchange
    0.7200         Becke 88

   => Exact (HF) Exchange <=

    0.2000               HF

   => Correlation Functionals <=

    0.1900   Vosko, Wilk & Nusair (VWN5_RPA)
    0.8100   Lee, Yang & Parr

   => LibXC Density Thresholds  <==

    XC_HYB_GGA_XC_B3LYP:  1.00E-15

   => Molecular Quadrature <=

    Radial Scheme          =       TREUTLER
    Pruning Scheme         =           NONE
    Nuclear Scheme         =       TREUTLER

    Blocking Scheme        =         OCTREE
    BS radius alpha        =              1
    Pruning alpha          =              1
    Radial Points          =             75
    Spherical Points       =            302
    Total Points           =          42480
    Total Blocks           =            382
    Max Points             =            255
    Max Functions          =             32
    Weights Tolerance      =       1.00E-15

  -Total Gradient:
     Atom            X                  Y                   Z
    ------   -----------------  -----------------  -----------------
       1        0.000000000000     0.000000000000    -0.000077057735
       2       -0.000000000000    -0.000000000000     0.000011008264

*** tstop() called on Joses-MacBook-Pro-2.local at Wed Jul 16 19:29:06 2025
Module time:
	user time   =       0.81 seconds =       0.01 minutes
	system time =       1.57 seconds =       0.03 minutes
	total time  =          0 seconds =       0.00 minutes
Total time:
	user time   =      66.30 seconds =       1.10 minutes
	system time =      55.61 seconds =       0.93 minutes
	total time  =         12 seconds =       0.20 minutes

    			-----------------------------------------

    			 OPTKING 3.0: for geometry optimizations

    			     By R.A. King, Bethel University

    			        with contributions from

    			    A.V. Copan, J. Cayton, A. Heide

    			-----------------------------------------

	                            ===> Fragment 1 <==

	 Z (Atomic Numbers)          Masses                          Geom
	       9.000000            18.998403          0.00000000  0.00000000  1.92693891
	      15.000000            30.973762          0.00000000  0.00000000 -1.18192818

	 - Coordinate -           - BOHR/RAD -       - ANG/DEG -
	 R(1,2)           =         3.108867           1.645142

	        --- Internal Coordinate Step in ANG or DEG, aJ/ANG or AJ/DEG ---
	-------------------------------------------------------------------------------
	           Coordinate      Previous         Force          Change          New
	           ----------      --------        ------          ------        ------
	               R(1,2)       1.64514        0.00036        0.00007       1.64521
	-------------------------------------------------------------------------------

	                                 ==> Convergence Check <==

	Measures of convergence in internal coordinates in au.

	Criteria marked as inactive (o), active & met (*), and active & unmet ( ).

	----------------------------------------------------------------------------------------------
	   Step    Total Energy     Delta E     Max Force     RMS Force      Max Disp      RMS Disp
	----------------------------------------------------------------------------------------------
	  Convergence Criteria     1.00e-06 *    3.00e-04 *             o    1.20e-03 *             o
	----------------------------------------------------------------------------------------------
	    11    -441.11546731   -1.39e-07 *    4.40e-05 *    4.40e-05 o    1.34e-04 *    1.34e-04 o  ~
	----------------------------------------------------------------------------------------------

Next Geometry in Ang
	Fragment 1 (Ang)

	    F   0.0000000000   0.0000000000   1.0197277130
	    P   0.0000000000   0.0000000000  -0.6254850153

    Final optimized geometry and variables:
    Molecular point group: c2v
    Full point group: C_inf_v

    Geometry (in Angstrom), charge = 0, multiplicity = 1:

    F            0.000000000000     0.000000000000     1.019692157442
    P            0.000000000000     0.000000000000    -0.625449459770

    Psi4 stopped on: Wednesday, 16 July 2025 07:29PM
    Psi4 wall time for execution: 0:00:12.87

*** Psi4 exiting successfully. Buy a developer a beer!
