                               Psi4 1.9.1 release

  ==> Input File <==

--------------------------------------------------------------------------
molecule {
0 1
Ne   0.00000        0.60000        0.00000
Ne   0.00000       -0.60000        0.00000
}

set {
basis              cc-pvdz
reference          uks
maxiter            500
geom_maxiter       500
DAMPING_PERCENTAGE 1
guess              SAP
}

optimize('b3lyp')
--------------------------------------------------------------------------

    Molecular point group: d2h
  Charge       = 0
  Multiplicity = 1
  Basis Set: CC-PVDZ
    Blend: CC-PVDZ
  Basis Set: (CC-PVDZ AUX)
    Blend: CC-PVDZ-JKFIT
  @DF-UKS Final Energy:  -257.25245003318770
    Total Energy =                       -257.2524500331876993
 Dipole X            :          0.0000000            0.0000000            0.0000000
 Dipole Y            :          0.0000000            0.0000000            0.0000000
 Dipole Z            :          0.0000000            0.0000000            0.0000000
 Magnitude           :                                                    0.0000000
    Molecular point group: d2h
  Basis Set: CC-PVDZ
    Blend: CC-PVDZ
  Basis Set: (CC-PVDZ AUX)
    Blend: CC-PVDZ-JKFIT
  Basis Set: CC-PVDZ
    Blend: CC-PVDZ
  Basis Set: (CC-PVDZ AUX)
    Blend: CC-PVDZ-JKFIT
  @DF-UKS Final Energy:  -257.65728556544224
    Total Energy =                       -257.6572855654422369
  Basis Set: CC-PVDZ
    Blend: CC-PVDZ
  Basis Set: (CC-PVDZ AUX)
    Blend: CC-PVDZ-JKFIT
  Basis Set: CC-PVDZ
    Blend: CC-PVDZ
  @DF-UKS Final Energy:  -257.72295627401081
    Total Energy =                       -257.7229562740108122
  @DF-UKS Final Energy:  -257.76861238853223
    Total Energy =                       -257.7686123885322331
  @DF-UKS Final Energy:  -257.79059634541750
    Total Energy =                       -257.7905963454174980
  @DF-UKS Final Energy:  -257.80331024519501
    Total Energy =                       -257.8033102451950072
  @DF-UKS Final Energy:  -257.81107113173431
    Total Energy =                       -257.8110711317343089
  @DF-UKS Final Energy:  -257.81535118021958
    Total Energy =                       -257.8153511802195794
  @DF-UKS Final Energy:  -257.81759198344719
    Total Energy =                       -257.8175919834471870
  @DF-UKS Final Energy:  -257.81870300171227
    Total Energy =                       -257.8187030017122652
  @DF-UKS Final Energy:  -257.81920456893641
    Total Energy =                       -257.8192045689364136
  @DF-UKS Final Energy:  -257.81940825442933
    Total Energy =                       -257.8194082544293337
  @DF-UKS Final Energy:  -257.81946840360092
    Total Energy =                       -257.8194684036009221
  @DF-UKS Final Energy:  -257.81949483907289
    Total Energy =                       -257.8194948390728882
  @DF-UKS Final Energy:  -257.81950208144121
    Total Energy =                       -257.8195020814412146
  Basis Set: (CC-PVDZ AUX)
    Blend: CC-PVDZ-JKFIT
  Basis Set: CC-PVDZ
    Blend: CC-PVDZ
  Basis Set: (CC-PVDZ AUX)
    Blend: CC-PVDZ-JKFIT
  @DF-UKS Final Energy:  -257.81950472584322
    Total Energy =                       -257.8195047258432169
  Basis Set: CC-PVDZ
    Blend: CC-PVDZ
  Basis Set: (CC-PVDZ AUX)
    Blend: CC-PVDZ-JKFIT
  Charge       = 0
  Multiplicity = 1
  Basis Set: CC-PVDZ
    Blend: CC-PVDZ
  Basis Set: (CC-PVDZ AUX)
    Blend: CC-PVDZ-JKFIT

    Orbital Energies [Eh]
    ---------------------

    Alpha Occupied:

       1B2u  -30.958344     1Ag   -30.958340     2Ag    -1.425483
       2B2u   -1.422354     3Ag    -0.543770     1B1u   -0.533922
       1B3u   -0.533922     1B3g   -0.530797     1B1g   -0.530797
       3B2u   -0.521122

    Alpha Virtual:

       4Ag     1.250687     2B3u    1.349958     2B1u    1.349958
       2B3g    1.382996     2B1g    1.382996     4B2u    1.483619
       5Ag     1.806474     5B2u    1.865096     3B3g    4.733229
       3B1g    4.733229     3B3u    4.733232     3B1u    4.733232
       1Au     4.733237     1B2g    4.733238     6B2u    4.733250
       6Ag     4.733251     7Ag     4.733322     7B2u    4.733362

    Beta Occupied:

       1B2u  -30.958344     1Ag   -30.958340     2Ag    -1.425483
       2B2u   -1.422354     3Ag    -0.543770     1B1u   -0.533922
       1B3u   -0.533922     1B3g   -0.530797     1B1g   -0.530797
       3B2u   -0.521122

    Beta Virtual:

       4Ag     1.250687     2B3u    1.349958     2B1u    1.349958
       2B3g    1.382996     2B1g    1.382996     4B2u    1.483619
       5Ag     1.806474     5B2u    1.865096     3B3g    4.733229
       3B1g    4.733229     3B3u    4.733232     3B1u    4.733232
       1Au     4.733237     1B2g    4.733238     6B2u    4.733250
       6Ag     4.733251     7Ag     4.733322     7B2u    4.733362

    Final Occupation by Irrep:
             Ag   B1g   B2g   B3g    Au   B1u   B2u   B3u
    DOCC [     3,    1,    0,    1,    0,    1,    3,    1 ]
    SOCC [     0,    0,    0,    0,    0,    0,    0,    0 ]
    NA   [     3,    1,    0,    1,    0,    1,    3,    1 ]
    NB   [     3,    1,    0,    1,    0,    1,    3,    1 ]

  @DF-UKS Final Energy:  -257.81950529669916

   => Energetics <=

    Nuclear Repulsion Energy =             20.5525370721432274
    One-Electron Energy =                -406.3416725163600631
    Two-Electron Energy =                 148.2058818798730613
    DFT Exchange-Correlation Energy =     -20.2362517323554165
    Empirical Dispersion Energy =           0.0000000000000000
    VV10 Nonlocal Energy =                  0.0000000000000000
    Total Energy =                       -257.8195052966991625

  UHF NO Occupations:
  HONO-2 :    3 Ag 2.0000000
  HONO-1 :    2B2u 2.0000000
  HONO-0 :    3B2u 2.0000000
  LUNO+0 :    4B2u 0.0000000
  LUNO+1 :    5B2u 0.0000000
  LUNO+2 :    6B2u 0.0000000
  LUNO+3 :    2B1g 0.0000000

Computation Completed

Properties will be evaluated at   0.000000,   0.000000,   0.000000 [a0]

Properties computed using the SCF density matrix

 Multipole Moments:

 ------------------------------------------------------------------------------------
     Multipole            Electronic (a.u.)      Nuclear  (a.u.)        Total (a.u.)
 ------------------------------------------------------------------------------------

 L = 1.  Multiply by 2.5417464519 to convert [e a0] to [Debye]
 Dipole X            :          0.0000000            0.0000000            0.0000000
 Dipole Y            :          0.0000000            0.0000000            0.0000000
 Dipole Z            :          0.0000000            0.0000000            0.0000000
 Magnitude           :                                                    0.0000000

 ------------------------------------------------------------------------------------

*** tstop() called on Joses-MacBook-Pro-2.local at Wed Jul 16 19:32:19 2025
Module time:
	user time   =       2.41 seconds =       0.04 minutes
	system time =       1.77 seconds =       0.03 minutes
	total time  =          0 seconds =       0.00 minutes
Total time:
	user time   =      61.94 seconds =       1.03 minutes
	system time =      58.77 seconds =       0.98 minutes
	total time  =         11 seconds =       0.18 minutes

*** tstart() called on Joses-MacBook-Pro-2.local
*** at Wed Jul 16 19:32:19 2025

         ------------------------------------------------------------
                                   SCF GRAD
                          Rob Parrish, Justin Turney,
                       Andy Simmonett, and Alex Sokolov
         ------------------------------------------------------------

  ==> Geometry <==

    Molecular point group: d2h
    Full point group: D_inf_h

    Geometry (in Angstrom), charge = 0, multiplicity = 1:

       Center              X                  Y                   Z               Mass
    ------------   -----------------  -----------------  -----------------  -----------------
         NE          -0.000000000000     1.287376854771     0.000000000000    19.992440176200
         NE           0.000000000000    -1.287376854771     0.000000000000    19.992440176200

  Nuclear repulsion =   20.552537072143227

  ==> Basis Set <==

  Basis Set: CC-PVDZ
    Blend: CC-PVDZ
    Number of shells: 12
    Number of basis functions: 28
    Number of Cartesian functions: 30
    Spherical Harmonics?: true
    Max angular momentum: 2

  ==> DFJKGrad: Density-Fitted SCF Gradients <==

    Gradient:                    1
    J tasked:                  Yes
    K tasked:                  Yes
    wK tasked:                  No
    OpenMP threads:              1
    Integrals threads:           1
    Memory [MiB]:              375
    Schwarz Cutoff:          1E-12
    Fitting Condition:       1E-10

   => Auxiliary Basis Set <=

  Basis Set: (CC-PVDZ AUX)
    Blend: CC-PVDZ-JKFIT
    Number of shells: 48
    Number of basis functions: 140
    Number of Cartesian functions: 162
    Spherical Harmonics?: true
    Max angular momentum: 3

  ==> DFT Potential <==

   => LibXC <=

    Version 6.2.2
    S. Lehtola, C. Steigemann, M. J.T. Oliveira, and M. A.L. Marques.,  SoftwareX 7, 1â€“5 (2018) (10.1016/j.softx.2017.11.002)

   => Composite Functional: B3LYP <=

    B3LYP Hyb-GGA Exchange-Correlation Functional

    P. J. Stephens, F. J. Devlin, C. F. Chabalowski, and M. J. Frisch.,  J. Phys. Chem. 98, 11623 (1994) (10.1021/j100096a001)

    Deriv               =              1
    GGA                 =           TRUE
    Meta                =          FALSE

    Exchange Hybrid     =           TRUE
    MP2 Hybrid          =          FALSE

   => Exchange Functionals <=

    0.0800   Slater exchange
    0.7200         Becke 88

   => Exact (HF) Exchange <=

    0.2000               HF

   => Correlation Functionals <=

    0.1900   Vosko, Wilk & Nusair (VWN5_RPA)
    0.8100   Lee, Yang & Parr

   => LibXC Density Thresholds  <==

    XC_HYB_GGA_XC_B3LYP:  1.00E-15

   => Molecular Quadrature <=

    Radial Scheme          =       TREUTLER
    Pruning Scheme         =           NONE
    Nuclear Scheme         =       TREUTLER

    Blocking Scheme        =         OCTREE
    BS radius alpha        =              1
    Pruning alpha          =              1
    Radial Points          =             75
    Spherical Points       =            302
    Total Points           =          42068
    Total Blocks           =            388
    Max Points             =            255
    Max Functions          =             28
    Weights Tolerance      =       1.00E-15

  -Total Gradient:
     Atom            X                  Y                   Z
    ------   -----------------  -----------------  -----------------
       1        0.000000000000    -0.000024081757     0.000000000000
       2       -0.000000000000     0.000024081757     0.000000000000

*** tstop() called on Joses-MacBook-Pro-2.local at Wed Jul 16 19:32:19 2025
Module time:
	user time   =       0.44 seconds =       0.01 minutes
	system time =       1.06 seconds =       0.02 minutes
	total time  =          0 seconds =       0.00 minutes
Total time:
	user time   =      62.38 seconds =       1.04 minutes
	system time =      59.83 seconds =       1.00 minutes
	total time  =         11 seconds =       0.18 minutes

    			-----------------------------------------

    			 OPTKING 3.0: for geometry optimizations

    			     By R.A. King, Bethel University

    			        with contributions from

    			    A.V. Copan, J. Cayton, A. Heide

    			-----------------------------------------

	                            ===> Fragment 1 <==

	 Z (Atomic Numbers)          Masses                          Geom
	      10.000000            19.992440         -0.00000000  2.43278968  0.00000000
	      10.000000            19.992440          0.00000000 -2.43278968  0.00000000

	 - Coordinate -           - BOHR/RAD -       - ANG/DEG -
	 R(1,2)           =         4.865579           2.574754

	        --- Internal Coordinate Step in ANG or DEG, aJ/ANG or AJ/DEG ---
	-------------------------------------------------------------------------------
	           Coordinate      Previous         Force          Change          New
	           ----------      --------        ------          ------        ------
	               R(1,2)       2.57475        0.00020        0.00247       2.57723
	-------------------------------------------------------------------------------

	                                 ==> Convergence Check <==

	Measures of convergence in internal coordinates in au.

	Criteria marked as inactive (o), active & met (*), and active & unmet ( ).

	----------------------------------------------------------------------------------------------
	   Step    Total Energy     Delta E     Max Force     RMS Force      Max Disp      RMS Disp
	----------------------------------------------------------------------------------------------
	  Convergence Criteria     1.00e-06 *    3.00e-04 *             o    1.20e-03 *             o
	----------------------------------------------------------------------------------------------
	    17    -257.81950530   -5.71e-07 *    2.41e-05 *    2.41e-05 o    4.67e-03      4.67e-03 o  ~
	----------------------------------------------------------------------------------------------

Next Geometry in Ang
	Fragment 1 (Ang)

	   Ne  -0.0000000000   1.2886136700   0.0000000000
	   Ne   0.0000000000  -1.2886136700   0.0000000000

    Final optimized geometry and variables:
    Molecular point group: d2h
    Full point group: D_inf_h

    Geometry (in Angstrom), charge = 0, multiplicity = 1:

    NE          -0.000000000000     1.287376854771     0.000000000000
    NE           0.000000000000    -1.287376854771     0.000000000000

    Psi4 stopped on: Wednesday, 16 July 2025 07:32PM
    Psi4 wall time for execution: 0:00:12.28

*** Psi4 exiting successfully. Buy a developer a beer!
