                               Psi4 1.9.1 release

  ==> Input File <==

--------------------------------------------------------------------------
molecule {
0 3
Na   0.00000        0.60000        0.00000
P   0.00000       -0.60000        0.00000
}

set {
basis              cc-pvdz
reference          uks
maxiter            500
geom_maxiter       500
DAMPING_PERCENTAGE 1
guess              SAP
}

optimize('b3lyp')
--------------------------------------------------------------------------

    Molecular point group: c2v
  Charge       = 0
  Multiplicity = 3
  Basis Set: CC-PVDZ
    Blend: CC-PVDZ
  Basis Set: (CC-PVDZ AUX)
    Blend: CC-PVDZ-JKFIT + DEF2-UNIVERSAL-JKFIT
  @DF-UKS Final Energy:  -502.72733428905110
    Total Energy =                       -502.7273342890511003
 Dipole X            :          0.0000000            0.0000000            0.0000000
 Dipole Y            :          0.0000000            0.0000000            0.0000000
 Dipole Z            :          0.9262569           -0.1737688            0.7524881
 Magnitude           :                                                    0.7524881
    Molecular point group: c2v
  Basis Set: CC-PVDZ
    Blend: CC-PVDZ
  Basis Set: (CC-PVDZ AUX)
    Blend: CC-PVDZ-JKFIT + DEF2-UNIVERSAL-JKFIT
  Basis Set: CC-PVDZ
    Blend: CC-PVDZ
  Basis Set: (CC-PVDZ AUX)
    Blend: CC-PVDZ-JKFIT + DEF2-UNIVERSAL-JKFIT
  @DF-UKS Final Energy:  -502.73757179017019
    Total Energy =                       -502.7375717901701933
  Basis Set: CC-PVDZ
    Blend: CC-PVDZ
  Basis Set: (CC-PVDZ AUX)
    Blend: CC-PVDZ-JKFIT + DEF2-UNIVERSAL-JKFIT
  Basis Set: CC-PVDZ
    Blend: CC-PVDZ
  @DF-UKS Final Energy:  -502.75735301753787
    Total Energy =                       -502.7573530175378664
  @DF-UKS Final Energy:  -502.82932483350237
    Total Energy =                       -502.8293248335023691
  @DF-UKS Final Energy:  -503.15801334750421
    Total Energy =                       -503.1580133475042089
  @DF-UKS Final Energy:  -503.35117029068147
    Total Energy =                       -503.3511702906814662
  @DF-UKS Final Energy:  -503.48345941476958
    Total Energy =                       -503.4834594147695839
  @DF-UKS Final Energy:  -503.54634110975780
    Total Energy =                       -503.5463411097578046
  @DF-UKS Final Energy:  -503.57298227787948
    Total Energy =                       -503.5729822778794755
  @DF-UKS Final Energy:  -503.58342940267073
    Total Energy =                       -503.5834294026707312
  @DF-UKS Final Energy:  -503.58683814125305
    Total Energy =                       -503.5868381412530539
  @DF-UKS Final Energy:  -503.58746411546946
    Total Energy =                       -503.5874641154694586
  @DF-UKS Final Energy:  -503.58760844659855
    Total Energy =                       -503.5876084465985514
  Basis Set: (CC-PVDZ AUX)
    Blend: CC-PVDZ-JKFIT + DEF2-UNIVERSAL-JKFIT
  Basis Set: CC-PVDZ
    Blend: CC-PVDZ
  Basis Set: (CC-PVDZ AUX)
    Blend: CC-PVDZ-JKFIT + DEF2-UNIVERSAL-JKFIT
  @DF-UKS Final Energy:  -503.58762047462989
    Total Energy =                       -503.5876204746298868
  Basis Set: CC-PVDZ
    Blend: CC-PVDZ
  Basis Set: (CC-PVDZ AUX)
    Blend: CC-PVDZ-JKFIT + DEF2-UNIVERSAL-JKFIT
  Charge       = 0
  Multiplicity = 3
  Basis Set: CC-PVDZ
    Blend: CC-PVDZ
  Basis Set: (CC-PVDZ AUX)
    Blend: CC-PVDZ-JKFIT + DEF2-UNIVERSAL-JKFIT

    Orbital Energies [Eh]
    ---------------------

    Alpha Occupied:

       1A1   -77.024199     2A1   -38.525581     3A1    -6.492103
       4A1    -4.659169     1B2    -4.658307     1B1    -4.645358
       5A1    -2.271373     6A1    -1.202986     2B2    -1.202680
       2B1    -1.201654     7A1    -0.504727     8A1    -0.206393
       3B2    -0.186829     3B1    -0.151100

    Alpha Virtual:

       9A1    -0.075126     4B2    -0.006928     4B1    -0.005788
      10A1     0.014539    11A1     0.047719     5B2     0.072000
       5B1     0.073037    12A1     0.122839     1A2     0.157268
      13A1     0.157576     6B2     0.173434     6B1     0.181685
      14A1     0.265598     7B2     0.484201    15A1     0.497808
       7B1     0.511434    16A1     0.516811     2A2     0.545904
      17A1     0.552430     8B2     0.601716     8B1     0.627331
      18A1     0.838248

    Beta Occupied:

       1A1   -77.017214     2A1   -38.524809     3A1    -6.484587
       4A1    -4.645600     1B2    -4.643688     1B1    -4.640647
       5A1    -2.269996     2B2    -1.201679     6A1    -1.201361
       2B1    -1.200971     7A1    -0.432553     3B1    -0.130105

    Beta Virtual:

       8A1    -0.104729     3B2    -0.066515     9A1    -0.052772
       4B1    -0.004595     4B2     0.005411    10A1     0.019107
      11A1     0.049396     5B1     0.074828     5B2     0.078052
      12A1     0.135733     1A2     0.159990    13A1     0.164321
       6B1     0.191980     6B2     0.197744    14A1     0.282588
       7B1     0.526578     7B2     0.533219    15A1     0.546521
      16A1     0.570882     2A2     0.592692    17A1     0.597167
       8B1     0.662484     8B2     0.670560    18A1     0.866883

    Final Occupation by Irrep:
             A1    A2    B1    B2
    DOCC [     7,    0,    3,    2 ]
    SOCC [     1,    0,    0,    1 ]
    NA   [     8,    0,    3,    3 ]
    NB   [     7,    0,    3,    2 ]

  @DF-UKS Final Energy:  -503.58762144801779

   => Energetics <=

    Nuclear Repulsion Energy =             34.2454733206807376
    One-Electron Energy =                -768.6822604428035675
    Two-Electron Energy =                 261.2245377676668454
    DFT Exchange-Correlation Energy =     -30.3753720935617864
    Empirical Dispersion Energy =           0.0000000000000000
    VV10 Nonlocal Energy =                  0.0000000000000000
    Total Energy =                       -503.5876214480177850

  UHF NO Occupations:
  HONO-2 :    3 B1 1.9982619
  HONO-1 :    8 A1 1.0000000
  HONO-0 :    3 B2 1.0000000
  LUNO+0 :    4 B1 0.0017381
  LUNO+1 :    9 A1 0.0009603
  LUNO+2 :   10 A1 0.0000010
  LUNO+3 :    4 B2 0.0000001

Computation Completed

Properties will be evaluated at   0.000000,   0.000000,   0.000000 [a0]

Properties computed using the SCF density matrix

 Multipole Moments:

 ------------------------------------------------------------------------------------
     Multipole            Electronic (a.u.)      Nuclear  (a.u.)        Total (a.u.)
 ------------------------------------------------------------------------------------

 L = 1.  Multiply by 2.5417464519 to convert [e a0] to [Debye]
 Dipole X            :          0.0000000            0.0000000            0.0000000
 Dipole Y            :          0.0000000            0.0000000            0.0000000
 Dipole Z            :          3.3026027           -0.3692091            2.9333936
 Magnitude           :                                                    2.9333936

 ------------------------------------------------------------------------------------

*** tstop() called on Joses-MacBook-Pro-2.local at Wed Jul 16 19:46:39 2025
Module time:
	user time   =       7.10 seconds =       0.12 minutes
	system time =       3.11 seconds =       0.05 minutes
	total time  =          1 seconds =       0.02 minutes
Total time:
	user time   =     210.48 seconds =       3.51 minutes
	system time =      92.06 seconds =       1.53 minutes
	total time  =         30 seconds =       0.50 minutes

*** tstart() called on Joses-MacBook-Pro-2.local
*** at Wed Jul 16 19:46:39 2025

         ------------------------------------------------------------
                                   SCF GRAD
                          Rob Parrish, Justin Turney,
                       Andy Simmonett, and Alex Sokolov
         ------------------------------------------------------------

  ==> Geometry <==

    Molecular point group: c2v
    Full point group: C_inf_v

    Geometry (in Angstrom), charge = 0, multiplicity = 3:

       Center              X                  Y                   Z               Mass
    ------------   -----------------  -----------------  -----------------  -----------------
         NA           0.000000000000     0.000000000000     1.463441947595    22.989769282000
         P            0.000000000000     0.000000000000    -1.086215898945    30.973761998420

  Nuclear repulsion =   34.245473320680738

  ==> Basis Set <==

  Basis Set: CC-PVDZ
    Blend: CC-PVDZ
    Number of shells: 16
    Number of basis functions: 36
    Number of Cartesian functions: 38
    Spherical Harmonics?: true
    Max angular momentum: 2

  ==> DFJKGrad: Density-Fitted SCF Gradients <==

    Gradient:                    1
    J tasked:                  Yes
    K tasked:                  Yes
    wK tasked:                  No
    OpenMP threads:              1
    Integrals threads:           1
    Memory [MiB]:              375
    Schwarz Cutoff:          1E-12
    Fitting Condition:       1E-10

   => Auxiliary Basis Set <=

  Basis Set: (CC-PVDZ AUX)
    Blend: CC-PVDZ-JKFIT + DEF2-UNIVERSAL-JKFIT
    Number of shells: 70
    Number of basis functions: 224
    Number of Cartesian functions: 267
    Spherical Harmonics?: true
    Max angular momentum: 4

  ==> DFT Potential <==

   => LibXC <=

    Version 6.2.2
    S. Lehtola, C. Steigemann, M. J.T. Oliveira, and M. A.L. Marques.,  SoftwareX 7, 1â€“5 (2018) (10.1016/j.softx.2017.11.002)

   => Composite Functional: B3LYP <=

    B3LYP Hyb-GGA Exchange-Correlation Functional

    P. J. Stephens, F. J. Devlin, C. F. Chabalowski, and M. J. Frisch.,  J. Phys. Chem. 98, 11623 (1994) (10.1021/j100096a001)

    Deriv               =              1
    GGA                 =           TRUE
    Meta                =          FALSE

    Exchange Hybrid     =           TRUE
    MP2 Hybrid          =          FALSE

   => Exchange Functionals <=

    0.0800   Slater exchange
    0.7200         Becke 88

   => Exact (HF) Exchange <=

    0.2000               HF

   => Correlation Functionals <=

    0.1900   Vosko, Wilk & Nusair (VWN5_RPA)
    0.8100   Lee, Yang & Parr

   => LibXC Density Thresholds  <==

    XC_HYB_GGA_XC_B3LYP:  1.00E-15

   => Molecular Quadrature <=

    Radial Scheme          =       TREUTLER
    Pruning Scheme         =           NONE
    Nuclear Scheme         =       TREUTLER

    Blocking Scheme        =         OCTREE
    BS radius alpha        =              1
    Pruning alpha          =              1
    Radial Points          =             75
    Spherical Points       =            302
    Total Points           =          43847
    Total Blocks           =            439
    Max Points             =            256
    Max Functions          =             36
    Weights Tolerance      =       1.00E-15

  -Total Gradient:
     Atom            X                  Y                   Z
    ------   -----------------  -----------------  -----------------
       1        0.000000000000    -0.000000000000    -0.000063487590
       2        0.000000000000     0.000000000000     0.000124724459

*** tstop() called on Joses-MacBook-Pro-2.local at Wed Jul 16 19:46:40 2025
Module time:
	user time   =       1.91 seconds =       0.03 minutes
	system time =       2.01 seconds =       0.03 minutes
	total time  =          1 seconds =       0.02 minutes
Total time:
	user time   =     212.39 seconds =       3.54 minutes
	system time =      94.08 seconds =       1.57 minutes
	total time  =         31 seconds =       0.52 minutes

    			-----------------------------------------

    			 OPTKING 3.0: for geometry optimizations

    			     By R.A. King, Bethel University

    			        with contributions from

    			    A.V. Copan, J. Cayton, A. Heide

    			-----------------------------------------

	                            ===> Fragment 1 <==

	 Z (Atomic Numbers)          Masses                          Geom
	      11.000000            22.989769          0.00000000  0.00000000  2.76550448
	      15.000000            30.973762          0.00000000  0.00000000 -2.05265056

	 - Coordinate -           - BOHR/RAD -       - ANG/DEG -
	 R(1,2)           =         4.818155           2.549658

	        --- Internal Coordinate Step in ANG or DEG, aJ/ANG or AJ/DEG ---
	-------------------------------------------------------------------------------
	           Coordinate      Previous         Force          Change          New
	           ----------      --------        ------          ------        ------
	               R(1,2)       2.54966        0.00078        0.00101       2.55067
	-------------------------------------------------------------------------------

	                                 ==> Convergence Check <==

	Measures of convergence in internal coordinates in au.

	Criteria marked as inactive (o), active & met (*), and active & unmet ( ).

	----------------------------------------------------------------------------------------------
	   Step    Total Energy     Delta E     Max Force     RMS Force      Max Disp      RMS Disp
	----------------------------------------------------------------------------------------------
	  Convergence Criteria     1.00e-06 *    3.00e-04 *             o    1.20e-03 *             o
	----------------------------------------------------------------------------------------------
	    15    -503.58762145   -9.73e-07 *    9.41e-05 *    9.41e-05 o    1.92e-03      1.92e-03 o  ~
	----------------------------------------------------------------------------------------------

Next Geometry in Ang
	Fragment 1 (Ang)

	   Na   0.0000000000   0.0000000000   1.4639488543
	    P   0.0000000000   0.0000000000  -1.0867228056

    Final optimized geometry and variables:
    Molecular point group: c2v
    Full point group: C_inf_v

    Geometry (in Angstrom), charge = 0, multiplicity = 3:

    NA           0.000000000000     0.000000000000     1.463441947595
    P            0.000000000000     0.000000000000    -1.086215898945

    Psi4 stopped on: Wednesday, 16 July 2025 07:46PM
    Psi4 wall time for execution: 0:02:01.54

*** Psi4 exiting successfully. Buy a developer a beer!
