                               Psi4 1.9.1 release

  ==> Input File <==

--------------------------------------------------------------------------
molecule {
0 3
He   0.00000        0.60000        0.00000
C   0.00000       -0.60000        0.00000
}

set {
basis              cc-pvdz
reference          uks
maxiter            500
geom_maxiter       500
DAMPING_PERCENTAGE 1
guess              SAP
}

optimize('b3lyp')
--------------------------------------------------------------------------

    Molecular point group: c2v
  Charge       = 0
  Multiplicity = 3
  Basis Set: CC-PVDZ
    Blend: CC-PVDZ
  Basis Set: (CC-PVDZ AUX)
    Blend: CC-PVDZ-JKFIT + DEF2-UNIVERSAL-JKFIT
  @DF-UKS Final Energy:   -40.70218174518124
    Total Energy =                        -40.7021817451812353
 Dipole X            :          0.0000000            0.0000000            0.0000000
 Dipole Y            :          0.0000000            0.0000000            0.0000000
 Dipole Z            :          0.8814521           -0.0022134            0.8792387
 Magnitude           :                                                    0.8792387
    Molecular point group: c2v
  Basis Set: CC-PVDZ
    Blend: CC-PVDZ
  Basis Set: (CC-PVDZ AUX)
    Blend: CC-PVDZ-JKFIT + DEF2-UNIVERSAL-JKFIT
  Basis Set: CC-PVDZ
    Blend: CC-PVDZ
  Basis Set: (CC-PVDZ AUX)
    Blend: CC-PVDZ-JKFIT + DEF2-UNIVERSAL-JKFIT
  @DF-UKS Final Energy:   -40.72812336391688
    Total Energy =                        -40.7281233639168789
  Basis Set: CC-PVDZ
    Blend: CC-PVDZ
  Basis Set: (CC-PVDZ AUX)
    Blend: CC-PVDZ-JKFIT + DEF2-UNIVERSAL-JKFIT
  Basis Set: CC-PVDZ
    Blend: CC-PVDZ
  @DF-UKS Final Energy:   -40.74377345841898
    Total Energy =                        -40.7437734584189784
  @DF-UKS Final Energy:   -40.75236977130662
    Total Energy =                        -40.7523697713066326
  @DF-UKS Final Energy:   -40.75632982054064
    Total Energy =                        -40.7563298205406355
  @DF-UKS Final Energy:   -40.75813252528273
    Total Energy =                        -40.7581325252827256
  @DF-UKS Final Energy:   -40.75891303704042
    Total Energy =                        -40.7589130370404220
  @DF-UKS Final Energy:   -40.75923355143595
    Total Energy =                        -40.7592335514359476
  @DF-UKS Final Energy:   -40.75935080666977
    Total Energy =                        -40.7593508066697723
  @DF-UKS Final Energy:   -40.75937925673150
    Total Energy =                        -40.7593792567314992
  @DF-UKS Final Energy:   -40.75938956048613
    Total Energy =                        -40.7593895604861274
  Basis Set: (CC-PVDZ AUX)
    Blend: CC-PVDZ-JKFIT + DEF2-UNIVERSAL-JKFIT
  Basis Set: CC-PVDZ
    Blend: CC-PVDZ
  Basis Set: (CC-PVDZ AUX)
    Blend: CC-PVDZ-JKFIT + DEF2-UNIVERSAL-JKFIT
  @DF-UKS Final Energy:   -40.75939136905902
    Total Energy =                        -40.7593913690590171
  Basis Set: CC-PVDZ
    Blend: CC-PVDZ
  Basis Set: (CC-PVDZ AUX)
    Blend: CC-PVDZ-JKFIT + DEF2-UNIVERSAL-JKFIT
  Charge       = 0
  Multiplicity = 3
  Basis Set: CC-PVDZ
    Blend: CC-PVDZ
  Basis Set: (CC-PVDZ AUX)
    Blend: CC-PVDZ-JKFIT + DEF2-UNIVERSAL-JKFIT

    Orbital Energies [Eh]
    ---------------------

    Alpha Occupied:

       1A1   -10.306709     2A1    -0.664821     3A1    -0.581715
       1B1    -0.259856     1B2    -0.259856

    Alpha Virtual:

       4A1    -0.145044     2B2     0.449288     2B1     0.449288
       5A1     0.480652     6A1     0.539007     7A1     1.090514
       8A1     1.113929     1A2     1.113929     3B2     1.121174
       3B1     1.121174     9A1     1.219108     4B1     2.176776
       4B2     2.176776    10A1     2.198825

    Beta Occupied:

       1A1   -10.278859     2A1    -0.664478     3A1    -0.471975

    Beta Virtual:

       4A1    -0.113520     1B1    -0.066873     1B2    -0.066873
       5A1     0.497633     2B1     0.527862     2B2     0.527862
       6A1     0.592749     7A1     1.114370     3B2     1.190789
       3B1     1.190789     8A1     1.229228     1A2     1.229228
       9A1     1.239689     4B2     2.176773     4B1     2.176773
      10A1     2.199091

    Final Occupation by Irrep:
             A1    A2    B1    B2
    DOCC [     3,    0,    0,    0 ]
    SOCC [     0,    0,    1,    1 ]
    NA   [     3,    0,    1,    1 ]
    NB   [     3,    0,    0,    0 ]

  @DF-UKS Final Energy:   -40.75939169170429

   => Energetics <=

    Nuclear Repulsion Energy =              2.3761563802652335
    One-Electron Energy =                 -59.0997886828008774
    Two-Electron Energy =                  21.0631964208907334
    DFT Exchange-Correlation Energy =      -5.0989558100593806
    Empirical Dispersion Energy =           0.0000000000000000
    VV10 Nonlocal Energy =                  0.0000000000000000
    Total Energy =                        -40.7593916917042876

  UHF NO Occupations:
  HONO-2 :    3 A1 1.9987715
  HONO-1 :    1 B2 1.0000000
  HONO-0 :    1 B1 1.0000000
  LUNO+0 :    4 A1 0.0012285
  LUNO+1 :    5 A1 0.0000008
  LUNO+2 :    6 A1 0.0000001
  LUNO+3 :    7 A1 0.0000000

Computation Completed

Properties will be evaluated at   0.000000,   0.000000,   0.000000 [a0]

Properties computed using the SCF density matrix

 Multipole Moments:

 ------------------------------------------------------------------------------------
     Multipole            Electronic (a.u.)      Nuclear  (a.u.)        Total (a.u.)
 ------------------------------------------------------------------------------------

 L = 1.  Multiply by 2.5417464519 to convert [e a0] to [Debye]
 Dipole X            :          0.0000000            0.0000000            0.0000000
 Dipole Y            :          0.0000000            0.0000000            0.0000000
 Dipole Z            :          0.0326990           -0.0049293            0.0277697
 Magnitude           :                                                    0.0277697

 ------------------------------------------------------------------------------------

*** tstop() called on Joses-MacBook-Pro-2.local at Wed Jul 16 18:20:13 2025
Module time:
	user time   =       0.75 seconds =       0.01 minutes
	system time =       3.10 seconds =       0.05 minutes
	total time  =          1 seconds =       0.02 minutes
Total time:
	user time   =      15.90 seconds =       0.26 minutes
	system time =      52.38 seconds =       0.87 minutes
	total time  =          8 seconds =       0.13 minutes

*** tstart() called on Joses-MacBook-Pro-2.local
*** at Wed Jul 16 18:20:13 2025

         ------------------------------------------------------------
                                   SCF GRAD
                          Rob Parrish, Justin Turney,
                       Andy Simmonett, and Alex Sokolov
         ------------------------------------------------------------

  ==> Geometry <==

    Molecular point group: c2v
    Full point group: C_inf_v

    Geometry (in Angstrom), charge = 0, multiplicity = 3:

       Center              X                  Y                   Z               Mass
    ------------   -----------------  -----------------  -----------------  -----------------
         HE           0.000000000000     0.000000000000     2.004001155536     4.002603254130
         C            0.000000000000     0.000000000000    -0.668435128869    12.000000000000

  Nuclear repulsion =    2.376156380265233

  ==> Basis Set <==

  Basis Set: CC-PVDZ
    Blend: CC-PVDZ
    Number of shells: 9
    Number of basis functions: 19
    Number of Cartesian functions: 20
    Spherical Harmonics?: true
    Max angular momentum: 2

  ==> DFJKGrad: Density-Fitted SCF Gradients <==

    Gradient:                    1
    J tasked:                  Yes
    K tasked:                  Yes
    wK tasked:                  No
    OpenMP threads:              1
    Integrals threads:           1
    Memory [MiB]:              375
    Schwarz Cutoff:          1E-12
    Fitting Condition:       1E-10

   => Auxiliary Basis Set <=

  Basis Set: (CC-PVDZ AUX)
    Blend: CC-PVDZ-JKFIT + DEF2-UNIVERSAL-JKFIT
    Number of shells: 33
    Number of basis functions: 93
    Number of Cartesian functions: 106
    Spherical Harmonics?: true
    Max angular momentum: 3

  ==> DFT Potential <==

   => LibXC <=

    Version 6.2.2
    S. Lehtola, C. Steigemann, M. J.T. Oliveira, and M. A.L. Marques.,  SoftwareX 7, 1â€“5 (2018) (10.1016/j.softx.2017.11.002)

   => Composite Functional: B3LYP <=

    B3LYP Hyb-GGA Exchange-Correlation Functional

    P. J. Stephens, F. J. Devlin, C. F. Chabalowski, and M. J. Frisch.,  J. Phys. Chem. 98, 11623 (1994) (10.1021/j100096a001)

    Deriv               =              1
    GGA                 =           TRUE
    Meta                =          FALSE

    Exchange Hybrid     =           TRUE
    MP2 Hybrid          =          FALSE

   => Exchange Functionals <=

    0.0800   Slater exchange
    0.7200         Becke 88

   => Exact (HF) Exchange <=

    0.2000               HF

   => Correlation Functionals <=

    0.1900   Vosko, Wilk & Nusair (VWN5_RPA)
    0.8100   Lee, Yang & Parr

   => LibXC Density Thresholds  <==

    XC_HYB_GGA_XC_B3LYP:  1.00E-15

   => Molecular Quadrature <=

    Radial Scheme          =       TREUTLER
    Pruning Scheme         =           NONE
    Nuclear Scheme         =       TREUTLER

    Blocking Scheme        =         OCTREE
    BS radius alpha        =              1
    Pruning alpha          =              1
    Radial Points          =             75
    Spherical Points       =            302
    Total Points           =          43629
    Total Blocks           =            386
    Max Points             =            254
    Max Functions          =             19
    Weights Tolerance      =       1.00E-15

  -Total Gradient:
     Atom            X                  Y                   Z
    ------   -----------------  -----------------  -----------------
       1        0.000000000000     0.000000000000    -0.000016250784
       2        0.000000000000    -0.000000000000     0.000015064652

*** tstop() called on Joses-MacBook-Pro-2.local at Wed Jul 16 18:20:13 2025
Module time:
	user time   =       0.31 seconds =       0.01 minutes
	system time =       0.82 seconds =       0.01 minutes
	total time  =          0 seconds =       0.00 minutes
Total time:
	user time   =      16.21 seconds =       0.27 minutes
	system time =      53.20 seconds =       0.89 minutes
	total time  =          8 seconds =       0.13 minutes

    			-----------------------------------------

    			 OPTKING 3.0: for geometry optimizations

    			     By R.A. King, Bethel University

    			        with contributions from

    			    A.V. Copan, J. Cayton, A. Heide

    			-----------------------------------------

	                            ===> Fragment 1 <==

	 Z (Atomic Numbers)          Masses                          Geom
	       2.000000             4.002603          0.00000000  0.00000000  3.78701334
	       6.000000            12.000000          0.00000000  0.00000000 -1.26315933

	 - Coordinate -           - BOHR/RAD -       - ANG/DEG -
	 R(1,2)           =         5.050173           2.672436

	        --- Internal Coordinate Step in ANG or DEG, aJ/ANG or AJ/DEG ---
	-------------------------------------------------------------------------------
	           Coordinate      Previous         Force          Change          New
	           ----------      --------        ------          ------        ------
	               R(1,2)       2.67244        0.00013        0.00605       2.67848
	-------------------------------------------------------------------------------

	                                 ==> Convergence Check <==

	Measures of convergence in internal coordinates in au.

	Criteria marked as inactive (o), active & met (*), and active & unmet ( ).

	----------------------------------------------------------------------------------------------
	   Step    Total Energy     Delta E     Max Force     RMS Force      Max Disp      RMS Disp
	----------------------------------------------------------------------------------------------
	  Convergence Criteria     1.00e-06 *    3.00e-04 *             o    1.20e-03 *             o
	----------------------------------------------------------------------------------------------
	    13     -40.75939169   -3.23e-07 *    1.57e-05 *    1.57e-05 o    1.14e-02      1.14e-02 o  ~
	----------------------------------------------------------------------------------------------

Next Geometry in Ang
	Fragment 1 (Ang)

	   He   0.0000000000   0.0000000000   2.0070238465
	    C   0.0000000000   0.0000000000  -0.6714578198

    Final optimized geometry and variables:
    Molecular point group: c2v
    Full point group: C_inf_v

    Geometry (in Angstrom), charge = 0, multiplicity = 3:

    HE           0.000000000000     0.000000000000     2.004001155536
    C            0.000000000000     0.000000000000    -0.668435128869

    Psi4 stopped on: Wednesday, 16 July 2025 06:20PM
    Psi4 wall time for execution: 0:00:08.21

*** Psi4 exiting successfully. Buy a developer a beer!
