                               Psi4 1.9.1 release

  ==> Input File <==

--------------------------------------------------------------------------
molecule {
0 3
B   0.00000        0.60000        0.00000
Na   0.00000       -0.60000        0.00000
}

set {
basis              cc-pvdz
reference          uks
maxiter            500
geom_maxiter       500
DAMPING_PERCENTAGE 1
guess              SAP
}

optimize('b3lyp')
--------------------------------------------------------------------------

    Molecular point group: c2v
  Charge       = 0
  Multiplicity = 3
  Basis Set: CC-PVDZ
    Blend: CC-PVDZ
  Basis Set: (CC-PVDZ AUX)
    Blend: CC-PVDZ-JKFIT + DEF2-UNIVERSAL-JKFIT
  @DF-UKS Final Energy:  -186.60134339001789
    Total Energy =                       -186.6013433900178882
 Dipole X            :          0.0000000            0.0000000            0.0000000
 Dipole Y            :          0.0000000            0.0000000            0.0000000
 Dipole Z            :         -1.6648035           -0.4104272           -2.0752307
 Magnitude           :                                                    2.0752307
    Molecular point group: c2v
  Basis Set: CC-PVDZ
    Blend: CC-PVDZ
  Basis Set: (CC-PVDZ AUX)
    Blend: CC-PVDZ-JKFIT + DEF2-UNIVERSAL-JKFIT
  Basis Set: CC-PVDZ
    Blend: CC-PVDZ
  Basis Set: (CC-PVDZ AUX)
    Blend: CC-PVDZ-JKFIT + DEF2-UNIVERSAL-JKFIT
  @DF-UKS Final Energy:  -186.67965934298613
    Total Energy =                       -186.6796593429861275
  Basis Set: CC-PVDZ
    Blend: CC-PVDZ
  Basis Set: (CC-PVDZ AUX)
    Blend: CC-PVDZ-JKFIT + DEF2-UNIVERSAL-JKFIT
  Basis Set: CC-PVDZ
    Blend: CC-PVDZ
  @DF-UKS Final Energy:  -186.76928723534422
    Total Energy =                       -186.7692872353442226
  @DF-UKS Final Energy:  -186.87074785741359
    Total Energy =                       -186.8707478574135621
  @DF-UKS Final Energy:  -186.92473836014645
    Total Energy =                       -186.9247383601464492
  @DF-UKS Final Energy:  -186.94644247295736
    Total Energy =                       -186.9464424729573579
  @DF-UKS Final Energy:  -186.95394021890567
    Total Energy =                       -186.9539402189056716
  @DF-UKS Final Energy:  -186.95589062743332
    Total Energy =                       -186.9558906274333481
  @DF-UKS Final Energy:  -186.95615582932979
    Total Energy =                       -186.9561558293298162
  @DF-UKS Final Energy:  -186.95620067327374
    Total Energy =                       -186.9562006732737132
  Basis Set: (CC-PVDZ AUX)
    Blend: CC-PVDZ-JKFIT + DEF2-UNIVERSAL-JKFIT
  Basis Set: CC-PVDZ
    Blend: CC-PVDZ
  Basis Set: (CC-PVDZ AUX)
    Blend: CC-PVDZ-JKFIT + DEF2-UNIVERSAL-JKFIT
  @DF-UKS Final Energy:  -186.95620314846650
    Total Energy =                       -186.9562031484664999
  Basis Set: CC-PVDZ
    Blend: CC-PVDZ
  Basis Set: (CC-PVDZ AUX)
    Blend: CC-PVDZ-JKFIT + DEF2-UNIVERSAL-JKFIT
  Charge       = 0
  Multiplicity = 3
  Basis Set: CC-PVDZ
    Blend: CC-PVDZ
  Basis Set: (CC-PVDZ AUX)
    Blend: CC-PVDZ-JKFIT + DEF2-UNIVERSAL-JKFIT

    Orbital Energies [Eh]
    ---------------------

    Alpha Occupied:

       1A1   -38.525640     2A1    -6.750021     3A1    -2.270409
       4A1    -1.202132     1B2    -1.201514     1B1    -1.201514
       5A1    -0.342482     2B2    -0.121317     2B1    -0.121317

    Alpha Virtual:

       6A1    -0.089909     7A1    -0.033190     3B2    -0.000741
       3B1    -0.000741     8A1     0.022475     9A1     0.051334
       4B1     0.079023     4B2     0.079023    10A1     0.146635
       1A2     0.159670    11A1     0.159670     5B2     0.212143
       5B1     0.212143    12A1     0.319743     6B2     0.370969
       6B1     0.370969    13A1     0.435042    14A1     0.709809
       2A2     0.760029    15A1     0.760032     7B2     0.841638
       7B1     0.841638    16A1     0.926908

    Beta Occupied:

       1A1   -38.525422     2A1    -6.736571     3A1    -2.270090
       4A1    -1.202210     1B2    -1.200826     1B1    -1.200826
       5A1    -0.274408

    Beta Virtual:

       6A1    -0.084487     2B2    -0.026826     2B1    -0.026826
       7A1    -0.022036     8A1     0.027295     3B1     0.031694
       3B2     0.031694     9A1     0.052983     4B1     0.081547
       4B2     0.081547    10A1     0.147990    11A1     0.167353
       1A2     0.167355     5B2     0.225165     5B1     0.225165
      12A1     0.333931     6B2     0.419688     6B1     0.419688
      13A1     0.443486    14A1     0.736778     2A2     0.836318
      15A1     0.836325     7B2     0.883434     7B1     0.883434
      16A1     0.955966

    Final Occupation by Irrep:
             A1    A2    B1    B2
    DOCC [     5,    0,    1,    1 ]
    SOCC [     0,    0,    1,    1 ]
    NA   [     5,    0,    2,    2 ]
    NB   [     5,    0,    1,    1 ]

  @DF-UKS Final Energy:  -186.95620329239588

   => Energetics <=

    Nuclear Repulsion Energy =             12.7708342487862136
    One-Electron Energy =                -285.6620575469565892
    Two-Electron Energy =                 100.7923367303704083
    DFT Exchange-Correlation Energy =     -14.8573167245959255
    Empirical Dispersion Energy =           0.0000000000000000
    VV10 Nonlocal Energy =                  0.0000000000000000
    Total Energy =                       -186.9562032923958839

  UHF NO Occupations:
  HONO-2 :    5 A1 1.9967355
  HONO-1 :    2 B2 1.0000000
  HONO-0 :    2 B1 1.0000000
  LUNO+0 :    6 A1 0.0032645
  LUNO+1 :    7 A1 0.0000004
  LUNO+2 :    3 B1 0.0000002
  LUNO+3 :    3 B2 0.0000002

Computation Completed

Properties will be evaluated at   0.000000,   0.000000,   0.000000 [a0]

Properties computed using the SCF density matrix

 Multipole Moments:

 ------------------------------------------------------------------------------------
     Multipole            Electronic (a.u.)      Nuclear  (a.u.)        Total (a.u.)
 ------------------------------------------------------------------------------------

 L = 1.  Multiply by 2.5417464519 to convert [e a0] to [Debye]
 Dipole X            :          0.0000000            0.0000000            0.0000000
 Dipole Y            :          0.0000000            0.0000000            0.0000000
 Dipole Z            :         -1.8857939           -0.7794700           -2.6652639
 Magnitude           :                                                    2.6652639

 ------------------------------------------------------------------------------------

*** tstop() called on Joses-MacBook-Pro-2.local at Wed Jul 16 18:52:22 2025
Module time:
	user time   =       2.41 seconds =       0.04 minutes
	system time =       3.74 seconds =       0.06 minutes
	total time  =          1 seconds =       0.02 minutes
Total time:
	user time   =      58.34 seconds =       0.97 minutes
	system time =      80.64 seconds =       1.34 minutes
	total time  =         16 seconds =       0.27 minutes

*** tstart() called on Joses-MacBook-Pro-2.local
*** at Wed Jul 16 18:52:22 2025

         ------------------------------------------------------------
                                   SCF GRAD
                          Rob Parrish, Justin Turney,
                       Andy Simmonett, and Alex Sokolov
         ------------------------------------------------------------

  ==> Geometry <==

    Molecular point group: c2v
    Full point group: C_inf_v

    Geometry (in Angstrom), charge = 0, multiplicity = 3:

       Center              X                  Y                   Z               Mass
    ------------   -----------------  -----------------  -----------------  -----------------
         B            0.000000000000     0.000000000000     1.541033464853    11.009305360000
         NA           0.000000000000     0.000000000000    -0.737967735841    22.989769282000

  Nuclear repulsion =   12.770834248786214

  ==> Basis Set <==

  Basis Set: CC-PVDZ
    Blend: CC-PVDZ
    Number of shells: 14
    Number of basis functions: 32
    Number of Cartesian functions: 34
    Spherical Harmonics?: true
    Max angular momentum: 2

  ==> DFJKGrad: Density-Fitted SCF Gradients <==

    Gradient:                    1
    J tasked:                  Yes
    K tasked:                  Yes
    wK tasked:                  No
    OpenMP threads:              1
    Integrals threads:           1
    Memory [MiB]:              375
    Schwarz Cutoff:          1E-12
    Fitting Condition:       1E-10

   => Auxiliary Basis Set <=

  Basis Set: (CC-PVDZ AUX)
    Blend: CC-PVDZ-JKFIT + DEF2-UNIVERSAL-JKFIT
    Number of shells: 58
    Number of basis functions: 182
    Number of Cartesian functions: 218
    Spherical Harmonics?: true
    Max angular momentum: 4

  ==> DFT Potential <==

   => LibXC <=

    Version 6.2.2
    S. Lehtola, C. Steigemann, M. J.T. Oliveira, and M. A.L. Marques.,  SoftwareX 7, 1â€“5 (2018) (10.1016/j.softx.2017.11.002)

   => Composite Functional: B3LYP <=

    B3LYP Hyb-GGA Exchange-Correlation Functional

    P. J. Stephens, F. J. Devlin, C. F. Chabalowski, and M. J. Frisch.,  J. Phys. Chem. 98, 11623 (1994) (10.1021/j100096a001)

    Deriv               =              1
    GGA                 =           TRUE
    Meta                =          FALSE

    Exchange Hybrid     =           TRUE
    MP2 Hybrid          =          FALSE

   => Exchange Functionals <=

    0.0800   Slater exchange
    0.7200         Becke 88

   => Exact (HF) Exchange <=

    0.2000               HF

   => Correlation Functionals <=

    0.1900   Vosko, Wilk & Nusair (VWN5_RPA)
    0.8100   Lee, Yang & Parr

   => LibXC Density Thresholds  <==

    XC_HYB_GGA_XC_B3LYP:  1.00E-15

   => Molecular Quadrature <=

    Radial Scheme          =       TREUTLER
    Pruning Scheme         =           NONE
    Nuclear Scheme         =       TREUTLER

    Blocking Scheme        =         OCTREE
    BS radius alpha        =              1
    Pruning alpha          =              1
    Radial Points          =             75
    Spherical Points       =            302
    Total Points           =          43825
    Total Blocks           =            434
    Max Points             =            256
    Max Functions          =             32
    Weights Tolerance      =       1.00E-15

  -Total Gradient:
     Atom            X                  Y                   Z
    ------   -----------------  -----------------  -----------------
       1        0.000000000000     0.000000000000    -0.000045696951
       2        0.000000000000     0.000000000000     0.000009622018

*** tstop() called on Joses-MacBook-Pro-2.local at Wed Jul 16 18:52:22 2025
Module time:
	user time   =       0.84 seconds =       0.01 minutes
	system time =       1.86 seconds =       0.03 minutes
	total time  =          0 seconds =       0.00 minutes
Total time:
	user time   =      59.20 seconds =       0.99 minutes
	system time =      82.50 seconds =       1.38 minutes
	total time  =         16 seconds =       0.27 minutes

    			-----------------------------------------

    			 OPTKING 3.0: for geometry optimizations

    			     By R.A. King, Bethel University

    			        with contributions from

    			    A.V. Copan, J. Cayton, A. Heide

    			-----------------------------------------

	                            ===> Fragment 1 <==

	 Z (Atomic Numbers)          Masses                          Geom
	       5.000000            11.009305          0.00000000  0.00000000  2.91213120
	      11.000000            22.989769          0.00000000  0.00000000 -1.39455691

	 - Coordinate -           - BOHR/RAD -       - ANG/DEG -
	 R(1,2)           =         4.306688           2.279001

	        --- Internal Coordinate Step in ANG or DEG, aJ/ANG or AJ/DEG ---
	-------------------------------------------------------------------------------
	           Coordinate      Previous         Force          Change          New
	           ----------      --------        ------          ------        ------
	               R(1,2)       2.27900        0.00023        0.00029       2.27929
	-------------------------------------------------------------------------------

	                                 ==> Convergence Check <==

	Measures of convergence in internal coordinates in au.

	Criteria marked as inactive (o), active & met (*), and active & unmet ( ).

	----------------------------------------------------------------------------------------------
	   Step    Total Energy     Delta E     Max Force     RMS Force      Max Disp      RMS Disp
	----------------------------------------------------------------------------------------------
	  Convergence Criteria     1.00e-06 *    3.00e-04 *             o    1.20e-03 *             o
	----------------------------------------------------------------------------------------------
	    12    -186.95620329   -1.44e-07 *    2.77e-05 *    2.77e-05 o    5.54e-04 *    5.54e-04 o  ~
	----------------------------------------------------------------------------------------------

Next Geometry in Ang
	Fragment 1 (Ang)

	    B   0.0000000000   0.0000000000   1.5411800708
	   Na   0.0000000000   0.0000000000  -0.7381143418

    Final optimized geometry and variables:
    Molecular point group: c2v
    Full point group: C_inf_v

    Geometry (in Angstrom), charge = 0, multiplicity = 3:

    B            0.000000000000     0.000000000000     1.541033464853
    NA           0.000000000000     0.000000000000    -0.737967735841

    Psi4 stopped on: Wednesday, 16 July 2025 06:52PM
    Psi4 wall time for execution: 0:00:16.41

*** Psi4 exiting successfully. Buy a developer a beer!
