                               Psi4 1.9.1 release

  ==> Input File <==

--------------------------------------------------------------------------
molecule {
0 3
Na   0.00000        0.60000        0.00000
Cl   0.00000       -0.60000        0.00000
}

set {
basis              cc-pvdz
reference          uks
maxiter            500
geom_maxiter       500
DAMPING_PERCENTAGE 1
guess              SAP
}

optimize('b3lyp')
--------------------------------------------------------------------------

    Molecular point group: c2v
  Charge       = 0
  Multiplicity = 3
  Basis Set: CC-PVDZ
    Blend: CC-PVDZ
  Basis Set: (CC-PVDZ AUX)
    Blend: CC-PVDZ-JKFIT + DEF2-UNIVERSAL-JKFIT
  @DF-UKS Final Energy:  -621.41930441184115
    Total Energy =                       -621.4193044118411535
 Dipole X            :          0.0000000            0.0000000            0.0000000
 Dipole Y            :          0.0000000            0.0000000            0.0000000
 Dipole Z            :         -0.6875961           -0.2413546           -0.9289507
 Magnitude           :                                                    0.9289507
    Molecular point group: c2v
  Basis Set: CC-PVDZ
    Blend: CC-PVDZ
  Basis Set: (CC-PVDZ AUX)
    Blend: CC-PVDZ-JKFIT + DEF2-UNIVERSAL-JKFIT
  Basis Set: CC-PVDZ
    Blend: CC-PVDZ
  Basis Set: (CC-PVDZ AUX)
    Blend: CC-PVDZ-JKFIT + DEF2-UNIVERSAL-JKFIT
  @DF-UKS Final Energy:  -621.43517879343403
    Total Energy =                       -621.4351787934341473
  Basis Set: CC-PVDZ
    Blend: CC-PVDZ
  Basis Set: (CC-PVDZ AUX)
    Blend: CC-PVDZ-JKFIT + DEF2-UNIVERSAL-JKFIT
  Basis Set: CC-PVDZ
    Blend: CC-PVDZ
  @DF-UKS Final Energy:  -621.46568985550221
    Total Energy =                       -621.4656898555022053
  @DF-UKS Final Energy:  -621.57499230610176
    Total Energy =                       -621.5749923061017626
  @DF-UKS Final Energy:  -622.01857720167459
    Total Energy =                       -622.0185772016745887
  @DF-UKS Final Energy:  -622.19972604537691
    Total Energy =                       -622.1997260453770195
  @DF-UKS Final Energy:  -622.30857477139602
    Total Energy =                       -622.3085747713960245
  @DF-UKS Final Energy:  -622.36600595663640
    Total Energy =                       -622.3660059566363998
  @DF-UKS Final Energy:  -622.39755321727330
    Total Energy =                       -622.3975532172731846
  @DF-UKS Final Energy:  -622.41585410974847
    Total Energy =                       -622.4158541097483521
  @DF-UKS Final Energy:  -622.42726933659026
    Total Energy =                       -622.4272693365901432
  @DF-UKS Final Energy:  -622.43487472925517
    Total Energy =                       -622.4348747292551707
  @DF-UKS Final Energy:  -622.44016736550793
    Total Energy =                       -622.4401673655079321
  @DF-UKS Final Energy:  -622.44029499204589
    Total Energy =                       -622.4402949920458923
  @DF-UKS Final Energy:  -622.44430593746779
    Total Energy =                       -622.4443059374677887
  @DF-UKS Final Energy:  -622.44435361423427
    Total Energy =                       -622.4443536142342737
  @DF-UKS Final Energy:  -622.44663815404886
    Total Energy =                       -622.4466381540489692
  @DF-UKS Final Energy:  -622.44665512470874
    Total Energy =                       -622.4466551247086272
  @DF-UKS Final Energy:  -622.44787790395071
    Total Energy =                       -622.4478779039507117
  @DF-UKS Final Energy:  -622.44788353598312
    Total Energy =                       -622.4478835359831237
  @DF-UKS Final Energy:  -622.44852038125350
    Total Energy =                       -622.4485203812535019
  @DF-UKS Final Energy:  -622.44852216131358
    Total Energy =                       -622.4485221613135764
  @DF-UKS Final Energy:  -622.44852393280735
    Total Energy =                       -622.4485239328073476
  @DF-UKS Final Energy:  -622.44852569595855
    Total Energy =                       -622.4485256959586650
  @DF-UKS Final Energy:  -622.44852745080982
    Total Energy =                       -622.4485274508098200
  @DF-UKS Final Energy:  -622.44852919748178
    Total Energy =                       -622.4485291974817756
  @DF-UKS Final Energy:  -622.44886038393236
    Total Energy =                       -622.4488603839322423
  @DF-UKS Final Energy:  -622.44886091869387
    Total Energy =                       -622.4488609186939811
  @DF-UKS Final Energy:  -622.44886145216344
    Total Energy =                       -622.4488614521634418
  @DF-UKS Final Energy:  -622.44886198411427
    Total Energy =                       -622.4488619841141599
  @DF-UKS Final Energy:  -622.44886251452886
    Total Energy =                       -622.4488625145287415
  @DF-UKS Final Energy:  -622.44886304356351
    Total Energy =                       -622.4488630435635059
  @DF-UKS Final Energy:  -622.44886357098403
    Total Energy =                       -622.4488635709840310
  @DF-UKS Final Energy:  -622.44886409697915
    Total Energy =                       -622.4488640969791504
  @DF-UKS Final Energy:  -622.44886462146610
    Total Energy =                       -622.4488646214659866
  @DF-UKS Final Energy:  -622.44886514452389
    Total Energy =                       -622.4488651445238929
  @DF-UKS Final Energy:  -622.44886566609875
    Total Energy =                       -622.4488656660987544
  @DF-UKS Final Energy:  -622.44886618618307
    Total Energy =                       -622.4488661861830678
  Basis Set: (CC-PVDZ AUX)
    Blend: CC-PVDZ-JKFIT + DEF2-UNIVERSAL-JKFIT
  Basis Set: CC-PVDZ
    Blend: CC-PVDZ
  Basis Set: (CC-PVDZ AUX)
    Blend: CC-PVDZ-JKFIT + DEF2-UNIVERSAL-JKFIT
  @DF-UKS Final Energy:  -622.44886670487699
    Total Energy =                       -622.4488667048769912
  Basis Set: CC-PVDZ
    Blend: CC-PVDZ
  Basis Set: (CC-PVDZ AUX)
    Blend: CC-PVDZ-JKFIT + DEF2-UNIVERSAL-JKFIT
  Charge       = 0
  Multiplicity = 3
  Basis Set: CC-PVDZ
    Blend: CC-PVDZ
  Basis Set: (CC-PVDZ AUX)
    Blend: CC-PVDZ-JKFIT + DEF2-UNIVERSAL-JKFIT

    Orbital Energies [Eh]
    ---------------------

    Alpha Occupied:

       1A1  -101.591875     2A1   -38.481083     3A1    -9.505913
       4A1    -7.279729     1B1    -7.256101     1B2    -7.256101
       5A1    -2.225814     6A1    -1.156676     2B1    -1.156635
       2B2    -1.156635     7A1    -0.843173     8A1    -0.405359
       3B2    -0.349746     3B1    -0.349746     9A1    -0.129736

    Alpha Virtual:

       4B1    -0.021526     4B2    -0.021526    10A1    -0.021405
      11A1     0.052956    12A1     0.074598     5B2     0.075569
       5B1     0.075569    13A1     0.155396     6B1     0.157526
       6B2     0.157526    14A1     0.158175     1A2     0.158175
      15A1     0.512332     7B2     0.532578     7B1     0.532578
      16A1     0.619365    17A1     0.655466     8B1     0.667169
       8B2     0.667169     2A2     0.711167    18A1     0.711235

    Beta Occupied:

       1A1  -101.585145     2A1   -38.479616     3A1    -9.499263
       4A1    -7.257800     1B1    -7.252107     1B2    -7.252107
       5A1    -2.222869     6A1    -1.154757     2B1    -1.154717
       2B2    -1.154717     7A1    -0.789804     3B2    -0.333829
       3B1    -0.333829

    Beta Virtual:

       8A1    -0.244118     9A1    -0.066197     4B2     0.000126
       4B1     0.000126    10A1     0.001005    11A1     0.065641
      12A1     0.092364     5B2     0.093111     5B1     0.093111
      13A1     0.184984    14A1     0.186701     1A2     0.186701
       6B1     0.187316     6B2     0.187316     7B2     0.539807
       7B1     0.539807    15A1     0.556224    16A1     0.642197
       2A2     0.719501    17A1     0.719563     8B1     0.724831
       8B2     0.724831    18A1     0.734441

    Final Occupation by Irrep:
             A1    A2    B1    B2
    DOCC [     7,    0,    3,    3 ]
    SOCC [     2,    0,    0,    0 ]
    NA   [     9,    0,    3,    3 ]
    NB   [     7,    0,    3,    3 ]

  @DF-UKS Final Energy:  -622.44903859358988

   => Energetics <=

    Nuclear Repulsion Energy =             19.4112367219018438
    One-Electron Energy =                -901.6411885079173771
    Two-Electron Energy =                 294.1351875186421125
    DFT Exchange-Correlation Energy =     -34.3542743262162986
    Empirical Dispersion Energy =           0.0000000000000000
    VV10 Nonlocal Energy =                  0.0000000000000000
    Total Energy =                       -622.4490385935897621

  UHF NO Occupations:
  HONO-2 :    7 A1 1.9991374
  HONO-1 :    8 A1 1.0000000
  HONO-0 :    9 A1 1.0000000
  LUNO+0 :   10 A1 0.0008626
  LUNO+1 :    4 B1 0.0000280
  LUNO+2 :    4 B2 0.0000280
  LUNO+3 :   11 A1 0.0000012

Computation Completed

Properties will be evaluated at   0.000000,   0.000000,   0.000000 [a0]

Properties computed using the SCF density matrix

 Multipole Moments:

 ------------------------------------------------------------------------------------
     Multipole            Electronic (a.u.)      Nuclear  (a.u.)        Total (a.u.)
 ------------------------------------------------------------------------------------

 L = 1.  Multiply by 2.5417464519 to convert [e a0] to [Debye]
 Dipole X            :          0.0000000            0.0000000            0.0000000
 Dipole Y            :          0.0000000            0.0000000            0.0000000
 Dipole Z            :          1.0377237           -1.0253305            0.0123932
 Magnitude           :                                                    0.0123932

 ------------------------------------------------------------------------------------

*** tstop() called on Joses-MacBook-Pro-2.local at Wed Jul 16 19:51:14 2025
Module time:
	user time   =       6.68 seconds =       0.11 minutes
	system time =       3.75 seconds =       0.06 minutes
	total time  =          1 seconds =       0.02 minutes
Total time:
	user time   =     318.91 seconds =       5.32 minutes
	system time =     246.74 seconds =       4.11 minutes
	total time  =         55 seconds =       0.92 minutes

*** tstart() called on Joses-MacBook-Pro-2.local
*** at Wed Jul 16 19:51:14 2025

         ------------------------------------------------------------
                                   SCF GRAD
                          Rob Parrish, Justin Turney,
                       Andy Simmonett, and Alex Sokolov
         ------------------------------------------------------------

  ==> Geometry <==

    Molecular point group: c2v
    Full point group: C_inf_v

    Geometry (in Angstrom), charge = 0, multiplicity = 3:

       Center              X                  Y                   Z               Mass
    ------------   -----------------  -----------------  -----------------  -----------------
         NA           0.000000000000     0.000000000000     3.075762982768    22.989769282000
         CL           0.000000000000     0.000000000000    -2.022116138124    34.968852682000

  Nuclear repulsion =   19.411236721901844

  ==> Basis Set <==

  Basis Set: CC-PVDZ
    Blend: CC-PVDZ
    Number of shells: 16
    Number of basis functions: 36
    Number of Cartesian functions: 38
    Spherical Harmonics?: true
    Max angular momentum: 2

  ==> DFJKGrad: Density-Fitted SCF Gradients <==

    Gradient:                    1
    J tasked:                  Yes
    K tasked:                  Yes
    wK tasked:                  No
    OpenMP threads:              1
    Integrals threads:           1
    Memory [MiB]:              375
    Schwarz Cutoff:          1E-12
    Fitting Condition:       1E-10

   => Auxiliary Basis Set <=

  Basis Set: (CC-PVDZ AUX)
    Blend: CC-PVDZ-JKFIT + DEF2-UNIVERSAL-JKFIT
    Number of shells: 70
    Number of basis functions: 224
    Number of Cartesian functions: 267
    Spherical Harmonics?: true
    Max angular momentum: 4

  ==> DFT Potential <==

   => LibXC <=

    Version 6.2.2
    S. Lehtola, C. Steigemann, M. J.T. Oliveira, and M. A.L. Marques.,  SoftwareX 7, 1â€“5 (2018) (10.1016/j.softx.2017.11.002)

   => Composite Functional: B3LYP <=

    B3LYP Hyb-GGA Exchange-Correlation Functional

    P. J. Stephens, F. J. Devlin, C. F. Chabalowski, and M. J. Frisch.,  J. Phys. Chem. 98, 11623 (1994) (10.1021/j100096a001)

    Deriv               =              1
    GGA                 =           TRUE
    Meta                =          FALSE

    Exchange Hybrid     =           TRUE
    MP2 Hybrid          =          FALSE

   => Exchange Functionals <=

    0.0800   Slater exchange
    0.7200         Becke 88

   => Exact (HF) Exchange <=

    0.2000               HF

   => Correlation Functionals <=

    0.1900   Vosko, Wilk & Nusair (VWN5_RPA)
    0.8100   Lee, Yang & Parr

   => LibXC Density Thresholds  <==

    XC_HYB_GGA_XC_B3LYP:  1.00E-15

   => Molecular Quadrature <=

    Radial Scheme          =       TREUTLER
    Pruning Scheme         =           NONE
    Nuclear Scheme         =       TREUTLER

    Blocking Scheme        =         OCTREE
    BS radius alpha        =              1
    Pruning alpha          =              1
    Radial Points          =             75
    Spherical Points       =            302
    Total Points           =          43927
    Total Blocks           =            463
    Max Points             =            255
    Max Functions          =             36
    Weights Tolerance      =       1.00E-15

  -Total Gradient:
     Atom            X                  Y                   Z
    ------   -----------------  -----------------  -----------------
       1        0.000000000000     0.000000000000    -0.000195259750
       2        0.000000000000    -0.000000000000     0.000184632629

*** tstop() called on Joses-MacBook-Pro-2.local at Wed Jul 16 19:51:14 2025
Module time:
	user time   =       1.97 seconds =       0.03 minutes
	system time =       1.95 seconds =       0.03 minutes
	total time  =          0 seconds =       0.00 minutes
Total time:
	user time   =     320.88 seconds =       5.35 minutes
	system time =     248.69 seconds =       4.14 minutes
	total time  =         55 seconds =       0.92 minutes

    			-----------------------------------------

    			 OPTKING 3.0: for geometry optimizations

    			     By R.A. King, Bethel University

    			        with contributions from

    			    A.V. Copan, J. Cayton, A. Heide

    			-----------------------------------------

	                            ===> Fragment 1 <==

	 Z (Atomic Numbers)          Masses                          Geom
	      11.000000            22.989769          0.00000000  0.00000000  5.81234966
	      17.000000            34.968853          0.00000000  0.00000000 -3.82124569

	 - Coordinate -           - BOHR/RAD -       - ANG/DEG -
	 R(1,2)           =         9.633595           5.097879

	        --- Internal Coordinate Step in ANG or DEG, aJ/ANG or AJ/DEG ---
	-------------------------------------------------------------------------------
	           Coordinate      Previous         Force          Change          New
	           ----------      --------        ------          ------        ------
	               R(1,2)       5.09788        0.00156        0.00040       5.09828
	-------------------------------------------------------------------------------

	                                 ==> Convergence Check <==

	Measures of convergence in internal coordinates in au.

	Criteria marked as inactive (o), active & met (*), and active & unmet ( ).

	----------------------------------------------------------------------------------------------
	   Step    Total Energy     Delta E     Max Force     RMS Force      Max Disp      RMS Disp
	----------------------------------------------------------------------------------------------
	  Convergence Criteria     1.00e-06 *    3.00e-04 *             o    1.20e-03 *             o
	----------------------------------------------------------------------------------------------
	    42    -622.44903859   -1.72e-04      1.90e-04 *    1.90e-04 o    7.50e-04 *    7.50e-04 o  ~
	----------------------------------------------------------------------------------------------

Next Geometry in Ang
	Fragment 1 (Ang)

	   Na   0.0000000000   0.0000000000   3.0759612974
	   Cl   0.0000000000   0.0000000000  -2.0223144528

    Final optimized geometry and variables:
    Molecular point group: c2v
    Full point group: C_inf_v

    Geometry (in Angstrom), charge = 0, multiplicity = 3:

    NA           0.000000000000     0.000000000000     3.075762982768
    CL           0.000000000000     0.000000000000    -2.022116138124

    Psi4 stopped on: Wednesday, 16 July 2025 07:51PM
    Psi4 wall time for execution: 0:00:55.54

*** Psi4 exiting successfully. Buy a developer a beer!
