                               Psi4 1.9.1 release

  ==> Input File <==

--------------------------------------------------------------------------
molecule {
0 3
Li   0.00000        0.60000        0.00000
P   0.00000       -0.60000        0.00000
}

set {
basis              cc-pvdz
reference          uks
maxiter            500
geom_maxiter       500
DAMPING_PERCENTAGE 1
guess              SAP
}

optimize('b3lyp')
--------------------------------------------------------------------------

    Molecular point group: c2v
  Charge       = 0
  Multiplicity = 3
  Basis Set: CC-PVDZ
    Blend: CC-PVDZ
  Basis Set: (CC-PVDZ AUX)
    Blend: CC-PVDZ-JKFIT + DEF2-UNIVERSAL-JKFIT
  @DF-UKS Final Energy:  -348.38153289436747
    Total Energy =                       -348.3815328943675240
 Dipole X            :          0.0000000            0.0000000            0.0000000
 Dipole Y            :          0.0000000            0.0000000            0.0000000
 Dipole Z            :          1.7713318           -0.7353273            1.0360045
 Magnitude           :                                                    1.0360045
    Molecular point group: c2v
  Basis Set: CC-PVDZ
    Blend: CC-PVDZ
  Basis Set: (CC-PVDZ AUX)
    Blend: CC-PVDZ-JKFIT + DEF2-UNIVERSAL-JKFIT
  Basis Set: CC-PVDZ
    Blend: CC-PVDZ
  Basis Set: (CC-PVDZ AUX)
    Blend: CC-PVDZ-JKFIT + DEF2-UNIVERSAL-JKFIT
  @DF-UKS Final Energy:  -348.50114005846882
    Total Energy =                       -348.5011400584688204
  Basis Set: CC-PVDZ
    Blend: CC-PVDZ
  Basis Set: (CC-PVDZ AUX)
    Blend: CC-PVDZ-JKFIT + DEF2-UNIVERSAL-JKFIT
  Basis Set: CC-PVDZ
    Blend: CC-PVDZ
  @DF-UKS Final Energy:  -348.62735983063101
    Total Energy =                       -348.6273598306309509
  @DF-UKS Final Energy:  -348.73357048077065
    Total Energy =                       -348.7335704807707089
  @DF-UKS Final Energy:  -348.78006778102059
    Total Energy =                       -348.7800677810205912
  @DF-UKS Final Energy:  -348.79965781160104
    Total Energy =                       -348.7996578116010937
  @DF-UKS Final Energy:  -348.80667289813755
    Total Energy =                       -348.8066728981375491
  @DF-UKS Final Energy:  -348.80843851732556
    Total Energy =                       -348.8084385173256123
  @DF-UKS Final Energy:  -348.80864576894703
    Total Energy =                       -348.8086457689470876
  @DF-UKS Final Energy:  -348.80867179679279
    Total Energy =                       -348.8086717967927939
  Basis Set: (CC-PVDZ AUX)
    Blend: CC-PVDZ-JKFIT + DEF2-UNIVERSAL-JKFIT
  Basis Set: CC-PVDZ
    Blend: CC-PVDZ
  Basis Set: (CC-PVDZ AUX)
    Blend: CC-PVDZ-JKFIT + DEF2-UNIVERSAL-JKFIT
  @DF-UKS Final Energy:  -348.80867520171415
    Total Energy =                       -348.8086752017142089
  Basis Set: CC-PVDZ
    Blend: CC-PVDZ
  Basis Set: (CC-PVDZ AUX)
    Blend: CC-PVDZ-JKFIT + DEF2-UNIVERSAL-JKFIT
  Charge       = 0
  Multiplicity = 3
  Basis Set: CC-PVDZ
    Blend: CC-PVDZ
  Basis Set: (CC-PVDZ AUX)
    Blend: CC-PVDZ-JKFIT + DEF2-UNIVERSAL-JKFIT

    Orbital Energies [Eh]
    ---------------------

    Alpha Occupied:

       1A1   -77.040130     2A1    -6.509426     3A1    -4.676228
       1B1    -4.675601     1B2    -4.662921     4A1    -2.061643
       5A1    -0.527159     6A1    -0.231727     2B1    -0.205837
       2B2    -0.171300

    Alpha Virtual:

       7A1    -0.064244     3B1    -0.004020     3B2    -0.001724
       8A1     0.025781     4B1     0.067669     4B2     0.069516
       9A1     0.077624    10A1     0.180176     1A2     0.218111
      11A1     0.218671     5B1     0.243692     5B2     0.249814
      12A1     0.341293     6B1     0.472779     6B2     0.498730
      13A1     0.500847     2A2     0.538231    14A1     0.542470
      15A1     0.555495     7B1     0.639620     7B2     0.662557
      16A1     1.047406

    Beta Occupied:

       1A1   -77.032867     2A1    -6.501609     3A1    -4.661694
       1B1    -4.660892     1B2    -4.658006     4A1    -2.058545
       5A1    -0.452821     2B2    -0.150027

    Beta Virtual:

       6A1    -0.110062     2B1    -0.085636     7A1    -0.057466
       3B2     0.001024     3B1     0.013293     8A1     0.029819
       4B2     0.071840     9A1     0.077919     4B1     0.078346
      10A1     0.200145     1A2     0.224526    11A1     0.231408
       5B2     0.261134     5B1     0.272116    12A1     0.377234
       6B2     0.511825     6B1     0.518211    13A1     0.551564
       2A2     0.583749    14A1     0.587738    15A1     0.589842
       7B2     0.697511     7B1     0.705953    16A1     1.076004

    Final Occupation by Irrep:
             A1    A2    B1    B2
    DOCC [     5,    0,    1,    2 ]
    SOCC [     1,    0,    1,    0 ]
    NA   [     6,    0,    2,    2 ]
    NB   [     5,    0,    1,    2 ]

  @DF-UKS Final Energy:  -348.80867570330747

   => Energetics <=

    Nuclear Repulsion Energy =             10.7142856683607910
    One-Electron Energy =                -503.6906291759291889
    Two-Electron Energy =                 164.3948302093506584
    DFT Exchange-Correlation Energy =     -20.2271624050897323
    Empirical Dispersion Energy =           0.0000000000000000
    VV10 Nonlocal Energy =                  0.0000000000000000
    Total Energy =                       -348.8086757033074718

  UHF NO Occupations:
  HONO-2 :    2 B2 1.9983564
  HONO-1 :    2 B1 1.0000000
  HONO-0 :    6 A1 1.0000000
  LUNO+0 :    3 B2 0.0016436
  LUNO+1 :    7 A1 0.0010190
  LUNO+2 :    8 A1 0.0000002
  LUNO+3 :    3 B1 0.0000000

Computation Completed

Properties will be evaluated at   0.000000,   0.000000,   0.000000 [a0]

Properties computed using the SCF density matrix

 Multipole Moments:

 ------------------------------------------------------------------------------------
     Multipole            Electronic (a.u.)      Nuclear  (a.u.)        Total (a.u.)
 ------------------------------------------------------------------------------------

 L = 1.  Multiply by 2.5417464519 to convert [e a0] to [Debye]
 Dipole X            :          0.0000000            0.0000000            0.0000000
 Dipole Y            :          0.0000000            0.0000000            0.0000000
 Dipole Z            :          3.5728270           -1.3619146            2.2109124
 Magnitude           :                                                    2.2109124

 ------------------------------------------------------------------------------------

*** tstop() called on Joses-MacBook-Pro-2.local at Wed Jul 16 18:35:39 2025
Module time:
	user time   =       3.17 seconds =       0.05 minutes
	system time =       3.89 seconds =       0.06 minutes
	total time  =          1 seconds =       0.02 minutes
Total time:
	user time   =      60.36 seconds =       1.01 minutes
	system time =      65.71 seconds =       1.10 minutes
	total time  =         12 seconds =       0.20 minutes

*** tstart() called on Joses-MacBook-Pro-2.local
*** at Wed Jul 16 18:35:39 2025

         ------------------------------------------------------------
                                   SCF GRAD
                          Rob Parrish, Justin Turney,
                       Andy Simmonett, and Alex Sokolov
         ------------------------------------------------------------

  ==> Geometry <==

    Molecular point group: c2v
    Full point group: C_inf_v

    Geometry (in Angstrom), charge = 0, multiplicity = 3:

       Center              X                  Y                   Z               Mass
    ------------   -----------------  -----------------  -----------------  -----------------
         LI           0.000000000000     0.000000000000     1.812081680831     7.016003436600
         P            0.000000000000     0.000000000000    -0.410462613510    30.973761998420

  Nuclear repulsion =   10.714285668360791

  ==> Basis Set <==

  Basis Set: CC-PVDZ
    Blend: CC-PVDZ
    Number of shells: 14
    Number of basis functions: 32
    Number of Cartesian functions: 34
    Spherical Harmonics?: true
    Max angular momentum: 2

  ==> DFJKGrad: Density-Fitted SCF Gradients <==

    Gradient:                    1
    J tasked:                  Yes
    K tasked:                  Yes
    wK tasked:                  No
    OpenMP threads:              1
    Integrals threads:           1
    Memory [MiB]:              375
    Schwarz Cutoff:          1E-12
    Fitting Condition:       1E-10

   => Auxiliary Basis Set <=

  Basis Set: (CC-PVDZ AUX)
    Blend: CC-PVDZ-JKFIT + DEF2-UNIVERSAL-JKFIT
    Number of shells: 53
    Number of basis functions: 163
    Number of Cartesian functions: 190
    Spherical Harmonics?: true
    Max angular momentum: 3

  ==> DFT Potential <==

   => LibXC <=

    Version 6.2.2
    S. Lehtola, C. Steigemann, M. J.T. Oliveira, and M. A.L. Marques.,  SoftwareX 7, 1â€“5 (2018) (10.1016/j.softx.2017.11.002)

   => Composite Functional: B3LYP <=

    B3LYP Hyb-GGA Exchange-Correlation Functional

    P. J. Stephens, F. J. Devlin, C. F. Chabalowski, and M. J. Frisch.,  J. Phys. Chem. 98, 11623 (1994) (10.1021/j100096a001)

    Deriv               =              1
    GGA                 =           TRUE
    Meta                =          FALSE

    Exchange Hybrid     =           TRUE
    MP2 Hybrid          =          FALSE

   => Exchange Functionals <=

    0.0800   Slater exchange
    0.7200         Becke 88

   => Exact (HF) Exchange <=

    0.2000               HF

   => Correlation Functionals <=

    0.1900   Vosko, Wilk & Nusair (VWN5_RPA)
    0.8100   Lee, Yang & Parr

   => LibXC Density Thresholds  <==

    XC_HYB_GGA_XC_B3LYP:  1.00E-15

   => Molecular Quadrature <=

    Radial Scheme          =       TREUTLER
    Pruning Scheme         =           NONE
    Nuclear Scheme         =       TREUTLER

    Blocking Scheme        =         OCTREE
    BS radius alpha        =              1
    Pruning alpha          =              1
    Radial Points          =             75
    Spherical Points       =            302
    Total Points           =          44331
    Total Blocks           =            437
    Max Points             =            254
    Max Functions          =             32
    Weights Tolerance      =       1.00E-15

  -Total Gradient:
     Atom            X                  Y                   Z
    ------   -----------------  -----------------  -----------------
       1        0.000000000000     0.000000000000    -0.000040290211
       2        0.000000000000    -0.000000000000     0.000058659565

*** tstop() called on Joses-MacBook-Pro-2.local at Wed Jul 16 18:35:39 2025
Module time:
	user time   =       1.08 seconds =       0.02 minutes
	system time =       1.46 seconds =       0.02 minutes
	total time  =          0 seconds =       0.00 minutes
Total time:
	user time   =      61.44 seconds =       1.02 minutes
	system time =      67.17 seconds =       1.12 minutes
	total time  =         12 seconds =       0.20 minutes

    			-----------------------------------------

    			 OPTKING 3.0: for geometry optimizations

    			     By R.A. King, Bethel University

    			        with contributions from

    			    A.V. Copan, J. Cayton, A. Heide

    			-----------------------------------------

	                            ===> Fragment 1 <==

	 Z (Atomic Numbers)          Masses                          Geom
	       3.000000             7.016003          0.00000000  0.00000000  3.42433809
	      15.000000            30.973762          0.00000000  0.00000000 -0.77566192

	 - Coordinate -           - BOHR/RAD -       - ANG/DEG -
	 R(1,2)           =         4.200000           2.222544

	        --- Internal Coordinate Step in ANG or DEG, aJ/ANG or AJ/DEG ---
	-------------------------------------------------------------------------------
	           Coordinate      Previous         Force          Change          New
	           ----------      --------        ------          ------        ------
	               R(1,2)       2.22254        0.00041        0.00043       2.22297
	-------------------------------------------------------------------------------

	                                 ==> Convergence Check <==

	Measures of convergence in internal coordinates in au.

	Criteria marked as inactive (o), active & met (*), and active & unmet ( ).

	----------------------------------------------------------------------------------------------
	   Step    Total Energy     Delta E     Max Force     RMS Force      Max Disp      RMS Disp
	----------------------------------------------------------------------------------------------
	  Convergence Criteria     1.00e-06 *    3.00e-04 *             o    1.20e-03 *             o
	----------------------------------------------------------------------------------------------
	    12    -348.80867570   -5.02e-07 *    4.95e-05 *    4.95e-05 o    8.05e-04 *    8.05e-04 o  ~
	----------------------------------------------------------------------------------------------

Next Geometry in Ang
	Fragment 1 (Ang)

	   Li   0.0000000000   0.0000000000   1.8122946761
	    P   0.0000000000   0.0000000000  -0.4106756088

    Final optimized geometry and variables:
    Molecular point group: c2v
    Full point group: C_inf_v

    Geometry (in Angstrom), charge = 0, multiplicity = 3:

    LI           0.000000000000     0.000000000000     1.812081680831
    P            0.000000000000     0.000000000000    -0.410462613510

    Psi4 stopped on: Wednesday, 16 July 2025 06:35PM
    Psi4 wall time for execution: 0:00:13.09

*** Psi4 exiting successfully. Buy a developer a beer!
