                               Psi4 1.9.1 release

  ==> Input File <==

--------------------------------------------------------------------------
molecule {
0 3
Ne   0.00000        0.60000        0.00000
Ar   0.00000       -0.60000        0.00000
}

set {
basis              cc-pvdz
reference          uks
maxiter            500
geom_maxiter       500
DAMPING_PERCENTAGE 1
guess              SAP
}

optimize('b3lyp')
--------------------------------------------------------------------------

    Molecular point group: c2v
  Charge       = 0
  Multiplicity = 3
  Basis Set: CC-PVDZ
    Blend: CC-PVDZ
  Basis Set: (CC-PVDZ AUX)
    Blend: CC-PVDZ-JKFIT
  @DF-UKS Final Energy:  -654.85414449318296
    Total Energy =                       -654.8541444931829574
 Dipole X            :          0.0000000            0.0000000            0.0000000
 Dipole Y            :          0.0000000            0.0000000            0.0000000
 Dipole Z            :         -0.0178786            1.5038390            1.4859605
 Magnitude           :                                                    1.4859605
    Molecular point group: c2v
  Basis Set: CC-PVDZ
    Blend: CC-PVDZ
  Basis Set: (CC-PVDZ AUX)
    Blend: CC-PVDZ-JKFIT
  Basis Set: CC-PVDZ
    Blend: CC-PVDZ
  Basis Set: (CC-PVDZ AUX)
    Blend: CC-PVDZ-JKFIT
  @DF-UKS Final Energy:  -655.18087467198609
    Total Energy =                       -655.1808746719860892
  Basis Set: CC-PVDZ
    Blend: CC-PVDZ
  Basis Set: (CC-PVDZ AUX)
    Blend: CC-PVDZ-JKFIT
  Basis Set: CC-PVDZ
    Blend: CC-PVDZ
  @DF-UKS Final Energy:  -655.44005104494317
    Total Energy =                       -655.4400510449431749
  @DF-UKS Final Energy:  -655.50987942941242
    Total Energy =                       -655.5098794294124218
  @DF-UKS Final Energy:  -655.52733680352924
    Total Energy =                       -655.5273368035292378
  @DF-UKS Final Energy:  -655.53176259574388
    Total Energy =                       -655.5317625957439986
  @DF-UKS Final Energy:  -655.53366035117483
    Total Energy =                       -655.5336603511747171
  @DF-UKS Final Energy:  -655.53407651156226
    Total Energy =                       -655.5340765115622617
  @DF-UKS Final Energy:  -655.53419174137593
    Total Energy =                       -655.5341917413759347
  @DF-UKS Final Energy:  -655.53423620516924
    Total Energy =                       -655.5342362051692362
  Basis Set: (CC-PVDZ AUX)
    Blend: CC-PVDZ-JKFIT
  Basis Set: CC-PVDZ
    Blend: CC-PVDZ
  Basis Set: (CC-PVDZ AUX)
    Blend: CC-PVDZ-JKFIT
  @DF-UKS Final Energy:  -655.53424588560392
    Total Energy =                       -655.5342458856039229
  Basis Set: CC-PVDZ
    Blend: CC-PVDZ
  Basis Set: (CC-PVDZ AUX)
    Blend: CC-PVDZ-JKFIT
  Charge       = 0
  Multiplicity = 3
  Basis Set: CC-PVDZ
    Blend: CC-PVDZ
  Basis Set: (CC-PVDZ AUX)
    Blend: CC-PVDZ-JKFIT

    Orbital Energies [Eh]
    ---------------------

    Alpha Occupied:

       1A1  -115.129577     2A1   -31.068111     3A1   -11.176966
       4A1    -8.744132     1B1    -8.721001     1B2    -8.721001
       5A1    -1.540375     6A1    -1.040191     7A1    -0.686425
       2B2    -0.637277     2B1    -0.637277     3B1    -0.464433
       3B2    -0.464433     8A1    -0.460941     9A1     0.459872

    Alpha Virtual:

       4B2     0.551669     4B1     0.551669    10A1     0.680015
       5B2     0.749600     5B1     0.749600    11A1     0.774750
       1A2     0.792413    12A1     0.792413     6B1     1.335240
       6B2     1.335240    13A1     1.437660    14A1     2.147102
       7B2     4.621156     7B1     4.621156    15A1     4.632376
       2A2     4.632557    16A1     4.641502

    Beta Occupied:

       1A1  -115.115373     2A1   -31.061383     3A1   -11.163298
       1B2    -8.712685     1B1    -8.712685     4A1    -8.700479
       5A1    -1.525918     6A1    -0.968867     7A1    -0.638083
       2B1    -0.630898     2B2    -0.630898     3B1    -0.437604
       3B2    -0.437604

    Beta Virtual:

       8A1    -0.266272     4B2     0.572812     4B1     0.572812
       9A1     0.625598    10A1     0.747428     1A2     0.808748
      11A1     0.808748     5B2     0.818312     5B1     0.818312
      12A1     0.838400     6B1     1.341490     6B2     1.341490
      13A1     1.457844    14A1     2.164684     7B2     4.635437
       7B1     4.635437    15A1     4.635906     2A2     4.636087
      16A1     4.659102

    Final Occupation by Irrep:
             A1    A2    B1    B2
    DOCC [     7,    0,    3,    3 ]
    SOCC [     2,    0,    0,    0 ]
    NA   [     9,    0,    3,    3 ]
    NB   [     7,    0,    3,    3 ]

  @DF-UKS Final Energy:  -655.53424723501666

   => Energetics <=

    Nuclear Repulsion Energy =             49.7403289962982100
    One-Electron Energy =               -1007.8729052360120022
    Two-Electron Energy =                 337.5995348731692616
    DFT Exchange-Correlation Energy =     -35.0012058684721410
    Empirical Dispersion Energy =           0.0000000000000000
    VV10 Nonlocal Energy =                  0.0000000000000000
    Total Energy =                       -655.5342472350166645

  UHF NO Occupations:
  HONO-2 :    7 A1 1.9992827
  HONO-1 :    8 A1 1.0000000
  HONO-0 :    9 A1 1.0000000
  LUNO+0 :   10 A1 0.0007173
  LUNO+1 :   11 A1 0.0001062
  LUNO+2 :    4 B2 0.0000413
  LUNO+3 :    4 B1 0.0000413

Computation Completed

Properties will be evaluated at   0.000000,   0.000000,   0.000000 [a0]

Properties computed using the SCF density matrix

 Multipole Moments:

 ------------------------------------------------------------------------------------
     Multipole            Electronic (a.u.)      Nuclear  (a.u.)        Total (a.u.)
 ------------------------------------------------------------------------------------

 L = 1.  Multiply by 2.5417464519 to convert [e a0] to [Debye]
 Dipole X            :          0.0000000            0.0000000            0.0000000
 Dipole Y            :          0.0000000            0.0000000            0.0000000
 Dipole Z            :         -1.3808289            2.3998555            1.0190266
 Magnitude           :                                                    1.0190266

 ------------------------------------------------------------------------------------

*** tstop() called on Joses-MacBook-Pro-2.local at Wed Jul 16 19:38:34 2025
Module time:
	user time   =       3.84 seconds =       0.06 minutes
	system time =       3.16 seconds =       0.05 minutes
	total time  =          0 seconds =       0.00 minutes
Total time:
	user time   =      59.98 seconds =       1.00 minutes
	system time =      61.67 seconds =       1.03 minutes
	total time  =         11 seconds =       0.18 minutes

*** tstart() called on Joses-MacBook-Pro-2.local
*** at Wed Jul 16 19:38:34 2025

         ------------------------------------------------------------
                                   SCF GRAD
                          Rob Parrish, Justin Turney,
                       Andy Simmonett, and Alex Sokolov
         ------------------------------------------------------------

  ==> Geometry <==

    Molecular point group: c2v
    Full point group: C_inf_v

    Geometry (in Angstrom), charge = 0, multiplicity = 3:

       Center              X                  Y                   Z               Mass
    ------------   -----------------  -----------------  -----------------  -----------------
         NE           0.000000000000     0.000000000000     1.276415990208    19.992440176200
         AR           0.000000000000     0.000000000000    -0.638567280765    39.962383123700

  Nuclear repulsion =   49.740328996298210

  ==> Basis Set <==

  Basis Set: CC-PVDZ
    Blend: CC-PVDZ
    Number of shells: 14
    Number of basis functions: 32
    Number of Cartesian functions: 34
    Spherical Harmonics?: true
    Max angular momentum: 2

  ==> DFJKGrad: Density-Fitted SCF Gradients <==

    Gradient:                    1
    J tasked:                  Yes
    K tasked:                  Yes
    wK tasked:                  No
    OpenMP threads:              1
    Integrals threads:           1
    Memory [MiB]:              375
    Schwarz Cutoff:          1E-12
    Fitting Condition:       1E-10

   => Auxiliary Basis Set <=

  Basis Set: (CC-PVDZ AUX)
    Blend: CC-PVDZ-JKFIT
    Number of shells: 60
    Number of basis functions: 182
    Number of Cartesian functions: 211
    Spherical Harmonics?: true
    Max angular momentum: 3

  ==> DFT Potential <==

   => LibXC <=

    Version 6.2.2
    S. Lehtola, C. Steigemann, M. J.T. Oliveira, and M. A.L. Marques.,  SoftwareX 7, 1â€“5 (2018) (10.1016/j.softx.2017.11.002)

   => Composite Functional: B3LYP <=

    B3LYP Hyb-GGA Exchange-Correlation Functional

    P. J. Stephens, F. J. Devlin, C. F. Chabalowski, and M. J. Frisch.,  J. Phys. Chem. 98, 11623 (1994) (10.1021/j100096a001)

    Deriv               =              1
    GGA                 =           TRUE
    Meta                =          FALSE

    Exchange Hybrid     =           TRUE
    MP2 Hybrid          =          FALSE

   => Exchange Functionals <=

    0.0800   Slater exchange
    0.7200         Becke 88

   => Exact (HF) Exchange <=

    0.2000               HF

   => Correlation Functionals <=

    0.1900   Vosko, Wilk & Nusair (VWN5_RPA)
    0.8100   Lee, Yang & Parr

   => LibXC Density Thresholds  <==

    XC_HYB_GGA_XC_B3LYP:  1.00E-15

   => Molecular Quadrature <=

    Radial Scheme          =       TREUTLER
    Pruning Scheme         =           NONE
    Nuclear Scheme         =       TREUTLER

    Blocking Scheme        =         OCTREE
    BS radius alpha        =              1
    Pruning alpha          =              1
    Radial Points          =             75
    Spherical Points       =            302
    Total Points           =          41421
    Total Blocks           =            368
    Max Points             =            255
    Max Functions          =             32
    Weights Tolerance      =       1.00E-15

  -Total Gradient:
     Atom            X                  Y                   Z
    ------   -----------------  -----------------  -----------------
       1       -0.000000000000    -0.000000000000    -0.000090913962
       2       -0.000000000000     0.000000000000     0.000148488813

*** tstop() called on Joses-MacBook-Pro-2.local at Wed Jul 16 19:38:35 2025
Module time:
	user time   =       0.57 seconds =       0.01 minutes
	system time =       1.74 seconds =       0.03 minutes
	total time  =          1 seconds =       0.02 minutes
Total time:
	user time   =      60.55 seconds =       1.01 minutes
	system time =      63.42 seconds =       1.06 minutes
	total time  =         12 seconds =       0.20 minutes

    			-----------------------------------------

    			 OPTKING 3.0: for geometry optimizations

    			     By R.A. King, Bethel University

    			        with contributions from

    			    A.V. Copan, J. Cayton, A. Heide

    			-----------------------------------------

	                            ===> Fragment 1 <==

	 Z (Atomic Numbers)          Masses                          Geom
	      10.000000            19.992440          0.00000000  0.00000000  2.41207664
	      18.000000            39.962383          0.00000000  0.00000000 -1.20671727

	 - Coordinate -           - BOHR/RAD -       - ANG/DEG -
	 R(1,2)           =         3.618794           1.914983

	        --- Internal Coordinate Step in ANG or DEG, aJ/ANG or AJ/DEG ---
	-------------------------------------------------------------------------------
	           Coordinate      Previous         Force          Change          New
	           ----------      --------        ------          ------        ------
	               R(1,2)       1.91498        0.00099        0.00042       1.91540
	-------------------------------------------------------------------------------

	                                 ==> Convergence Check <==

	Measures of convergence in internal coordinates in au.

	Criteria marked as inactive (o), active & met (*), and active & unmet ( ).

	----------------------------------------------------------------------------------------------
	   Step    Total Energy     Delta E     Max Force     RMS Force      Max Disp      RMS Disp
	----------------------------------------------------------------------------------------------
	  Convergence Criteria     1.00e-06 *    3.00e-04 *             o    1.20e-03 *             o
	----------------------------------------------------------------------------------------------
	    12    -655.53424724   -1.35e-06      1.20e-04 *    1.20e-04 o    7.91e-04 *    7.91e-04 o  ~
	----------------------------------------------------------------------------------------------

Next Geometry in Ang
	Fragment 1 (Ang)

	   Ne   0.0000000000   0.0000000000   1.2766254055
	   Ar   0.0000000000   0.0000000000  -0.6387766960

    Final optimized geometry and variables:
    Molecular point group: c2v
    Full point group: C_inf_v

    Geometry (in Angstrom), charge = 0, multiplicity = 3:

    NE           0.000000000000     0.000000000000     1.276415990208
    AR           0.000000000000     0.000000000000    -0.638567280765

    Psi4 stopped on: Wednesday, 16 July 2025 07:38PM
    Psi4 wall time for execution: 0:00:12.50

*** Psi4 exiting successfully. Buy a developer a beer!
