                               Psi4 1.9.1 release

  ==> Input File <==

--------------------------------------------------------------------------
molecule {
0 3
Al   0.00000        0.60000        0.00000
Cl   0.00000       -0.60000        0.00000
}

set {
basis              cc-pvdz
reference          uks
maxiter            500
geom_maxiter       500
DAMPING_PERCENTAGE 1
guess              SAP
}

optimize('b3lyp')
--------------------------------------------------------------------------

    Molecular point group: c2v
  Charge       = 0
  Multiplicity = 3
  Basis Set: CC-PVDZ
    Blend: CC-PVDZ
  Basis Set: (CC-PVDZ AUX)
    Blend: CC-PVDZ-JKFIT
  @DF-UKS Final Energy:  -701.38870578611568
    Total Energy =                       -701.3887057861156791
 Dipole X            :          0.0000000            0.0000000            0.0000000
 Dipole Y            :          0.0000000            0.0000000            0.0000000
 Dipole Z            :         -0.5677760           -0.1497521           -0.7175281
 Magnitude           :                                                    0.7175281
    Molecular point group: c2v
  Basis Set: CC-PVDZ
    Blend: CC-PVDZ
  Basis Set: (CC-PVDZ AUX)
    Blend: CC-PVDZ-JKFIT
  Basis Set: CC-PVDZ
    Blend: CC-PVDZ
  Basis Set: (CC-PVDZ AUX)
    Blend: CC-PVDZ-JKFIT
  @DF-UKS Final Energy:  -701.42067703385658
    Total Energy =                       -701.4206770338565775
  Basis Set: CC-PVDZ
    Blend: CC-PVDZ
  Basis Set: (CC-PVDZ AUX)
    Blend: CC-PVDZ-JKFIT
  Basis Set: CC-PVDZ
    Blend: CC-PVDZ
  @DF-UKS Final Energy:  -701.48111583457910
    Total Energy =                       -701.4811158345791000
  @DF-UKS Final Energy:  -701.68730342464244
    Total Energy =                       -701.6873034246425505
  @DF-UKS Final Energy:  -702.25187148795931
    Total Energy =                       -702.2518714879593063
  @DF-UKS Final Energy:  -702.43476811848996
    Total Energy =                       -702.4347681184899557
  @DF-UKS Final Energy:  -702.53940760525757
    Total Energy =                       -702.5394076052575656
  @DF-UKS Final Energy:  -702.58563045973403
    Total Energy =                       -702.5856304597339204
  @DF-UKS Final Energy:  -702.60333227909166
    Total Energy =                       -702.6033322790916600
  @DF-UKS Final Energy:  -702.60762857218617
    Total Energy =                       -702.6076285721862860
  @DF-UKS Final Energy:  -702.60912416002498
    Total Energy =                       -702.6091241600249759
  @DF-UKS Final Energy:  -702.60938070998475
    Total Energy =                       -702.6093807099847481
  @DF-UKS Final Energy:  -702.60942912662904
    Total Energy =                       -702.6094291266290384
  Basis Set: (CC-PVDZ AUX)
    Blend: CC-PVDZ-JKFIT
  Basis Set: CC-PVDZ
    Blend: CC-PVDZ
  Basis Set: (CC-PVDZ AUX)
    Blend: CC-PVDZ-JKFIT
  @DF-UKS Final Energy:  -702.60944011832612
    Total Energy =                       -702.6094401183262335
  Basis Set: CC-PVDZ
    Blend: CC-PVDZ
  Basis Set: (CC-PVDZ AUX)
    Blend: CC-PVDZ-JKFIT
  Charge       = 0
  Multiplicity = 3
  Basis Set: CC-PVDZ
    Blend: CC-PVDZ
  Basis Set: (CC-PVDZ AUX)
    Blend: CC-PVDZ-JKFIT

    Orbital Energies [Eh]
    ---------------------

    Alpha Occupied:

       1A1  -101.536662     2A1   -56.122748     3A1    -9.455046
       4A1    -7.216335     1B2    -7.209495     1B1    -7.208658
       5A1    -4.202517     2B2    -2.757119     6A1    -2.755011
       2B1    -2.753454     7A1    -0.814420     8A1    -0.425744
       3B2    -0.333950     3B1    -0.333850     9A1    -0.300260
       4B1    -0.145391

    Alpha Virtual:

       4B2    -0.089190    10A1    -0.002897    11A1     0.138451
       5B1     0.185306     5B2     0.192175    12A1     0.197095
       1A2     0.222640    13A1     0.228127     6B1     0.239779
       6B2     0.245034    14A1     0.319828     7B2     0.584842
       7B1     0.587949    15A1     0.617358     2A2     0.742364
      16A1     0.742433    17A1     0.777094     8B2     0.830868
       8B1     0.831348    18A1     1.176228

    Beta Occupied:

       1A1  -101.534888     2A1   -56.117113     3A1    -9.453299
       4A1    -7.211827     1B2    -7.208524     1B1    -7.206424
       5A1    -4.194313     2B2    -2.752187     6A1    -2.748195
       2B1    -2.741374     7A1    -0.803072     8A1    -0.397949
       3B2    -0.330806     3B1    -0.323706

    Beta Virtual:

       9A1    -0.182495     4B2    -0.055922     4B1    -0.031333
      10A1     0.024998    11A1     0.159543     5B2     0.204052
       5B1     0.222317    12A1     0.225897     6B2     0.277359
      13A1     0.280497     1A2     0.280722     6B1     0.299949
      14A1     0.347713     7B2     0.587828     7B1     0.593265
      15A1     0.635128    16A1     0.747539     2A2     0.747607
      17A1     0.787534     8B2     0.842378     8B1     0.850668
      18A1     1.185854

    Final Occupation by Irrep:
             A1    A2    B1    B2
    DOCC [     8,    0,    3,    3 ]
    SOCC [     1,    0,    1,    0 ]
    NA   [     9,    0,    4,    3 ]
    NB   [     8,    0,    3,    3 ]

  @DF-UKS Final Energy:  -702.60944099466838

   => Energetics <=

    Nuclear Repulsion Energy =             54.0015397056000523
    One-Electron Energy =               -1079.7456388265857186
    Two-Electron Energy =                 360.9113770978006528
    DFT Exchange-Correlation Energy =     -37.7767189714831630
    Empirical Dispersion Energy =           0.0000000000000000
    VV10 Nonlocal Energy =                  0.0000000000000000
    Total Energy =                       -702.6094409946683754

  UHF NO Occupations:
  HONO-2 :    8 A1 1.9994885
  HONO-1 :    4 B1 1.0000000
  HONO-0 :    9 A1 1.0000000
  LUNO+0 :   10 A1 0.0005115
  LUNO+1 :    4 B2 0.0001548
  LUNO+2 :    5 B1 0.0000947
  LUNO+3 :   11 A1 0.0000232

Computation Completed

Properties will be evaluated at   0.000000,   0.000000,   0.000000 [a0]

Properties computed using the SCF density matrix

 Multipole Moments:

 ------------------------------------------------------------------------------------
     Multipole            Electronic (a.u.)      Nuclear  (a.u.)        Total (a.u.)
 ------------------------------------------------------------------------------------

 L = 1.  Multiply by 2.5417464519 to convert [e a0] to [Debye]
 Dipole X            :          0.0000000            0.0000000            0.0000000
 Dipole Y            :          0.0000000            0.0000000            0.0000000
 Dipole Z            :          1.0501703           -0.2702583            0.7799121
 Magnitude           :                                                    0.7799121

 ------------------------------------------------------------------------------------

*** tstop() called on Joses-MacBook-Pro-2.local at Wed Jul 16 20:10:05 2025
Module time:
	user time   =       7.08 seconds =       0.12 minutes
	system time =       1.99 seconds =       0.03 minutes
	total time  =          1 seconds =       0.02 minutes
Total time:
	user time   =     164.04 seconds =       2.73 minutes
	system time =      46.80 seconds =       0.78 minutes
	total time  =         20 seconds =       0.33 minutes

*** tstart() called on Joses-MacBook-Pro-2.local
*** at Wed Jul 16 20:10:05 2025

         ------------------------------------------------------------
                                   SCF GRAD
                          Rob Parrish, Justin Turney,
                       Andy Simmonett, and Alex Sokolov
         ------------------------------------------------------------

  ==> Geometry <==

    Molecular point group: c2v
    Full point group: C_inf_v

    Geometry (in Angstrom), charge = 0, multiplicity = 3:

       Center              X                  Y                   Z               Mass
    ------------   -----------------  -----------------  -----------------  -----------------
         AL           0.000000000000     0.000000000000     1.222431673209    26.981538530000
         CL           0.000000000000     0.000000000000    -0.943213310168    34.968852682000

  Nuclear repulsion =   54.001539705600052

  ==> Basis Set <==

  Basis Set: CC-PVDZ
    Blend: CC-PVDZ
    Number of shells: 16
    Number of basis functions: 36
    Number of Cartesian functions: 38
    Spherical Harmonics?: true
    Max angular momentum: 2

  ==> DFJKGrad: Density-Fitted SCF Gradients <==

    Gradient:                    1
    J tasked:                  Yes
    K tasked:                  Yes
    wK tasked:                  No
    OpenMP threads:              1
    Integrals threads:           1
    Memory [MiB]:              375
    Schwarz Cutoff:          1E-12
    Fitting Condition:       1E-10

   => Auxiliary Basis Set <=

  Basis Set: (CC-PVDZ AUX)
    Blend: CC-PVDZ-JKFIT
    Number of shells: 72
    Number of basis functions: 224
    Number of Cartesian functions: 260
    Spherical Harmonics?: true
    Max angular momentum: 3

  ==> DFT Potential <==

   => LibXC <=

    Version 6.2.2
    S. Lehtola, C. Steigemann, M. J.T. Oliveira, and M. A.L. Marques.,  SoftwareX 7, 1â€“5 (2018) (10.1016/j.softx.2017.11.002)

   => Composite Functional: B3LYP <=

    B3LYP Hyb-GGA Exchange-Correlation Functional

    P. J. Stephens, F. J. Devlin, C. F. Chabalowski, and M. J. Frisch.,  J. Phys. Chem. 98, 11623 (1994) (10.1021/j100096a001)

    Deriv               =              1
    GGA                 =           TRUE
    Meta                =          FALSE

    Exchange Hybrid     =           TRUE
    MP2 Hybrid          =          FALSE

   => Exchange Functionals <=

    0.0800   Slater exchange
    0.7200         Becke 88

   => Exact (HF) Exchange <=

    0.2000               HF

   => Correlation Functionals <=

    0.1900   Vosko, Wilk & Nusair (VWN5_RPA)
    0.8100   Lee, Yang & Parr

   => LibXC Density Thresholds  <==

    XC_HYB_GGA_XC_B3LYP:  1.00E-15

   => Molecular Quadrature <=

    Radial Scheme          =       TREUTLER
    Pruning Scheme         =           NONE
    Nuclear Scheme         =       TREUTLER

    Blocking Scheme        =         OCTREE
    BS radius alpha        =              1
    Pruning alpha          =              1
    Radial Points          =             75
    Spherical Points       =            302
    Total Points           =          42654
    Total Blocks           =            400
    Max Points             =            256
    Max Functions          =             36
    Weights Tolerance      =       1.00E-15

  -Total Gradient:
     Atom            X                  Y                   Z
    ------   -----------------  -----------------  -----------------
       1        0.000000000000     0.000000000000    -0.000063026928
       2        0.000000000000     0.000000000000     0.000108407816

*** tstop() called on Joses-MacBook-Pro-2.local at Wed Jul 16 20:10:06 2025
Module time:
	user time   =       2.35 seconds =       0.04 minutes
	system time =       1.53 seconds =       0.03 minutes
	total time  =          1 seconds =       0.02 minutes
Total time:
	user time   =     166.39 seconds =       2.77 minutes
	system time =      48.33 seconds =       0.81 minutes
	total time  =         21 seconds =       0.35 minutes

    			-----------------------------------------

    			 OPTKING 3.0: for geometry optimizations

    			     By R.A. King, Bethel University

    			        with contributions from

    			    A.V. Copan, J. Cayton, A. Heide

    			-----------------------------------------

	                            ===> Fragment 1 <==

	 Z (Atomic Numbers)          Masses                          Geom
	      13.000000            26.981539          0.00000000  0.00000000  2.31006107
	      17.000000            34.968853          0.00000000  0.00000000 -1.78241483

	 - Coordinate -           - BOHR/RAD -       - ANG/DEG -
	 R(1,2)           =         4.092476           2.165645

	        --- Internal Coordinate Step in ANG or DEG, aJ/ANG or AJ/DEG ---
	-------------------------------------------------------------------------------
	           Coordinate      Previous         Force          Change          New
	           ----------      --------        ------          ------        ------
	               R(1,2)       2.16564        0.00071        0.00032       2.16597
	-------------------------------------------------------------------------------

	                                 ==> Convergence Check <==

	Measures of convergence in internal coordinates in au.

	Criteria marked as inactive (o), active & met (*), and active & unmet ( ).

	----------------------------------------------------------------------------------------------
	   Step    Total Energy     Delta E     Max Force     RMS Force      Max Disp      RMS Disp
	----------------------------------------------------------------------------------------------
	  Convergence Criteria     1.00e-06 *    3.00e-04 *             o    1.20e-03 *             o
	----------------------------------------------------------------------------------------------
	    15    -702.60944099   -8.76e-07 *    8.57e-05 *    8.57e-05 o    6.10e-04 *    6.10e-04 o  ~
	----------------------------------------------------------------------------------------------

Next Geometry in Ang
	Fragment 1 (Ang)

	   Al   0.0000000000   0.0000000000   1.2225929724
	   Cl   0.0000000000   0.0000000000  -0.9433746094

    Final optimized geometry and variables:
    Molecular point group: c2v
    Full point group: C_inf_v

    Geometry (in Angstrom), charge = 0, multiplicity = 3:

    AL           0.000000000000     0.000000000000     1.222431673209
    CL           0.000000000000     0.000000000000    -0.943213310168

    Psi4 stopped on: Wednesday, 16 July 2025 08:10PM
    Psi4 wall time for execution: 0:00:20.95

*** Psi4 exiting successfully. Buy a developer a beer!
