                               Psi4 1.9.1 release

  ==> Input File <==

--------------------------------------------------------------------------
molecule {
0 3
Mg   0.00000        0.60000        0.00000
Si   0.00000       -0.60000        0.00000
}

set {
basis              cc-pvdz
reference          uks
maxiter            500
geom_maxiter       500
DAMPING_PERCENTAGE 1
guess              SAP
}

optimize('b3lyp')
--------------------------------------------------------------------------

    Molecular point group: c2v
  Charge       = 0
  Multiplicity = 3
  Basis Set: CC-PVDZ
    Blend: CC-PVDZ
  Basis Set: (CC-PVDZ AUX)
    Blend: CC-PVDZ-JKFIT + DEF2-UNIVERSAL-JKFIT
  @DF-UKS Final Energy:  -488.54197912437121
    Total Energy =                       -488.5419791243712098
 Dipole X            :          0.0000000            0.0000000            0.0000000
 Dipole Y            :          0.0000000            0.0000000            0.0000000
 Dipole Z            :          0.5794080           -0.0029443            0.5764637
 Magnitude           :                                                    0.5764637
    Molecular point group: c2v
  Basis Set: CC-PVDZ
    Blend: CC-PVDZ
  Basis Set: (CC-PVDZ AUX)
    Blend: CC-PVDZ-JKFIT + DEF2-UNIVERSAL-JKFIT
  Basis Set: CC-PVDZ
    Blend: CC-PVDZ
  Basis Set: (CC-PVDZ AUX)
    Blend: CC-PVDZ-JKFIT + DEF2-UNIVERSAL-JKFIT
  @DF-UKS Final Energy:  -488.55295591286216
    Total Energy =                       -488.5529559128621599
  Basis Set: CC-PVDZ
    Blend: CC-PVDZ
  Basis Set: (CC-PVDZ AUX)
    Blend: CC-PVDZ-JKFIT + DEF2-UNIVERSAL-JKFIT
  Basis Set: CC-PVDZ
    Blend: CC-PVDZ
  @DF-UKS Final Energy:  -488.57420173482274
    Total Energy =                       -488.5742017348227364
  @DF-UKS Final Energy:  -488.65184476302431
    Total Energy =                       -488.6518447630243145
  @DF-UKS Final Energy:  -489.01048473894707
    Total Energy =                       -489.0104847389470706
  @DF-UKS Final Energy:  -489.22459250965869
    Total Energy =                       -489.2245925096586916
  @DF-UKS Final Energy:  -489.35027558526355
    Total Energy =                       -489.3502755852635460
  @DF-UKS Final Energy:  -489.45902453605277
    Total Energy =                       -489.4590245360527661
  @DF-UKS Final Energy:  -489.50152530564259
    Total Energy =                       -489.5015253056425877
  @DF-UKS Final Energy:  -489.50892622166305
    Total Energy =                       -489.5089262216630459
  @DF-UKS Final Energy:  -489.51187645031490
    Total Energy =                       -489.5118764503149009
  @DF-UKS Final Energy:  -489.51234975196388
    Total Energy =                       -489.5123497519638818
  @DF-UKS Final Energy:  -489.51244788255781
    Total Energy =                       -489.5124478825578649
  Basis Set: (CC-PVDZ AUX)
    Blend: CC-PVDZ-JKFIT + DEF2-UNIVERSAL-JKFIT
  Basis Set: CC-PVDZ
    Blend: CC-PVDZ
  Basis Set: (CC-PVDZ AUX)
    Blend: CC-PVDZ-JKFIT + DEF2-UNIVERSAL-JKFIT
  @DF-UKS Final Energy:  -489.51245713167305
    Total Energy =                       -489.5124571316729885
  Basis Set: CC-PVDZ
    Blend: CC-PVDZ
  Basis Set: (CC-PVDZ AUX)
    Blend: CC-PVDZ-JKFIT + DEF2-UNIVERSAL-JKFIT
  Charge       = 0
  Multiplicity = 3
  Basis Set: CC-PVDZ
    Blend: CC-PVDZ
  Basis Set: (CC-PVDZ AUX)
    Blend: CC-PVDZ-JKFIT + DEF2-UNIVERSAL-JKFIT

    Orbital Energies [Eh]
    ---------------------

    Alpha Occupied:

       1A1   -66.129986     2A1   -46.853993     3A1    -5.273122
       1B1    -3.632157     1B2    -3.632157     4A1    -3.632070
       5A1    -3.134219     2B2    -1.878001     2B1    -1.878001
       6A1    -1.877597     7A1    -0.443395     8A1    -0.227726
       3B1    -0.175912     3B2    -0.175912

    Alpha Virtual:

       9A1    -0.106135     4B2    -0.027382     4B1    -0.027382
      10A1     0.025986    11A1     0.088637     5B2     0.143239
       5B1     0.143239    12A1     0.161055     6B2     0.262860
       6B1     0.262860    13A1     0.267408     1A2     0.287512
      14A1     0.287512     7B1     0.341307     7B2     0.341307
      15A1     0.381655     2A2     0.383333    16A1     0.383336
      17A1     0.481568     8B2     0.519166     8B1     0.519166
      18A1     0.753075

    Beta Occupied:

       1A1   -66.124546     2A1   -46.854129     3A1    -5.266984
       4A1    -3.627214     1B1    -3.621271     1B2    -3.621271
       5A1    -3.134643     6A1    -1.877914     2B2    -1.877835
       2B1    -1.877835     7A1    -0.381135     8A1    -0.214688

    Beta Virtual:

       9A1    -0.096833     3B1    -0.080334     3B2    -0.080334
       4B2    -0.012795     4B1    -0.012795    10A1     0.032384
      11A1     0.089461     5B2     0.146987     5B1     0.146987
      12A1     0.173412    13A1     0.276423     6B2     0.279567
       6B1     0.279567     1A2     0.296664    14A1     0.296665
       7B1     0.377188     7B2     0.377188    15A1     0.405302
       2A2     0.446722    16A1     0.446723    17A1     0.498417
       8B2     0.549066     8B1     0.549066    18A1     0.773876

    Final Occupation by Irrep:
             A1    A2    B1    B2
    DOCC [     8,    0,    2,    2 ]
    SOCC [     0,    0,    1,    1 ]
    NA   [     8,    0,    3,    3 ]
    NB   [     8,    0,    2,    2 ]

  @DF-UKS Final Energy:  -489.51245802535658

   => Energetics <=

    Nuclear Repulsion Energy =             34.5142184171235016
    One-Electron Energy =                -749.1767390910316635
    Two-Electron Energy =                 255.2265848244439042
    DFT Exchange-Correlation Energy =     -30.0765221758923609
    Empirical Dispersion Energy =           0.0000000000000000
    VV10 Nonlocal Energy =                  0.0000000000000000
    Total Energy =                       -489.5124580253566364

  UHF NO Occupations:
  HONO-2 :    8 A1 1.9664666
  HONO-1 :    3 B1 1.0000000
  HONO-0 :    3 B2 1.0000000
  LUNO+0 :    9 A1 0.0335334
  LUNO+1 :   10 A1 0.0008956
  LUNO+2 :    4 B1 0.0000001
  LUNO+3 :    4 B2 0.0000001

Computation Completed

Properties will be evaluated at   0.000000,   0.000000,   0.000000 [a0]

Properties computed using the SCF density matrix

 Multipole Moments:

 ------------------------------------------------------------------------------------
     Multipole            Electronic (a.u.)      Nuclear  (a.u.)        Total (a.u.)
 ------------------------------------------------------------------------------------

 L = 1.  Multiply by 2.5417464519 to convert [e a0] to [Debye]
 Dipole X            :          0.0000000            0.0000000            0.0000000
 Dipole Y            :          0.0000000            0.0000000            0.0000000
 Dipole Z            :          1.2672437           -0.0063198            1.2609239
 Magnitude           :                                                    1.2609239

 ------------------------------------------------------------------------------------

*** tstop() called on Joses-MacBook-Pro-2.local at Wed Jul 16 19:56:47 2025
Module time:
	user time   =       8.31 seconds =       0.14 minutes
	system time =       2.47 seconds =       0.04 minutes
	total time  =          1 seconds =       0.02 minutes
Total time:
	user time   =     200.96 seconds =       3.35 minutes
	system time =      55.36 seconds =       0.92 minutes
	total time  =         24 seconds =       0.40 minutes

*** tstart() called on Joses-MacBook-Pro-2.local
*** at Wed Jul 16 19:56:47 2025

         ------------------------------------------------------------
                                   SCF GRAD
                          Rob Parrish, Justin Turney,
                       Andy Simmonett, and Alex Sokolov
         ------------------------------------------------------------

  ==> Geometry <==

    Molecular point group: c2v
    Full point group: C_inf_v

    Geometry (in Angstrom), charge = 0, multiplicity = 3:

       Center              X                  Y                   Z               Mass
    ------------   -----------------  -----------------  -----------------  -----------------
         MG           0.000000000000     0.000000000000     1.386841345689    23.985041697000
         SI           0.000000000000     0.000000000000    -1.188960033271    27.976926534650

  Nuclear repulsion =   34.514218417123502

  ==> Basis Set <==

  Basis Set: CC-PVDZ
    Blend: CC-PVDZ
    Number of shells: 16
    Number of basis functions: 36
    Number of Cartesian functions: 38
    Spherical Harmonics?: true
    Max angular momentum: 2

  ==> DFJKGrad: Density-Fitted SCF Gradients <==

    Gradient:                    1
    J tasked:                  Yes
    K tasked:                  Yes
    wK tasked:                  No
    OpenMP threads:              1
    Integrals threads:           1
    Memory [MiB]:              375
    Schwarz Cutoff:          1E-12
    Fitting Condition:       1E-10

   => Auxiliary Basis Set <=

  Basis Set: (CC-PVDZ AUX)
    Blend: CC-PVDZ-JKFIT + DEF2-UNIVERSAL-JKFIT
    Number of shells: 70
    Number of basis functions: 224
    Number of Cartesian functions: 267
    Spherical Harmonics?: true
    Max angular momentum: 4

  ==> DFT Potential <==

   => LibXC <=

    Version 6.2.2
    S. Lehtola, C. Steigemann, M. J.T. Oliveira, and M. A.L. Marques.,  SoftwareX 7, 1â€“5 (2018) (10.1016/j.softx.2017.11.002)

   => Composite Functional: B3LYP <=

    B3LYP Hyb-GGA Exchange-Correlation Functional

    P. J. Stephens, F. J. Devlin, C. F. Chabalowski, and M. J. Frisch.,  J. Phys. Chem. 98, 11623 (1994) (10.1021/j100096a001)

    Deriv               =              1
    GGA                 =           TRUE
    Meta                =          FALSE

    Exchange Hybrid     =           TRUE
    MP2 Hybrid          =          FALSE

   => Exchange Functionals <=

    0.0800   Slater exchange
    0.7200         Becke 88

   => Exact (HF) Exchange <=

    0.2000               HF

   => Correlation Functionals <=

    0.1900   Vosko, Wilk & Nusair (VWN5_RPA)
    0.8100   Lee, Yang & Parr

   => LibXC Density Thresholds  <==

    XC_HYB_GGA_XC_B3LYP:  1.00E-15

   => Molecular Quadrature <=

    Radial Scheme          =       TREUTLER
    Pruning Scheme         =           NONE
    Nuclear Scheme         =       TREUTLER

    Blocking Scheme        =         OCTREE
    BS radius alpha        =              1
    Pruning alpha          =              1
    Radial Points          =             75
    Spherical Points       =            302
    Total Points           =          42943
    Total Blocks           =            418
    Max Points             =            255
    Max Functions          =             36
    Weights Tolerance      =       1.00E-15

  -Total Gradient:
     Atom            X                  Y                   Z
    ------   -----------------  -----------------  -----------------
       1       -0.000000000000     0.000000000000    -0.000087723903
       2       -0.000000000000    -0.000000000000     0.000104789190

*** tstop() called on Joses-MacBook-Pro-2.local at Wed Jul 16 19:56:48 2025
Module time:
	user time   =       2.75 seconds =       0.05 minutes
	system time =       2.16 seconds =       0.04 minutes
	total time  =          1 seconds =       0.02 minutes
Total time:
	user time   =     203.72 seconds =       3.40 minutes
	system time =      57.54 seconds =       0.96 minutes
	total time  =         25 seconds =       0.42 minutes

    			-----------------------------------------

    			 OPTKING 3.0: for geometry optimizations

    			     By R.A. King, Bethel University

    			        with contributions from

    			    A.V. Copan, J. Cayton, A. Heide

    			-----------------------------------------

	                            ===> Fragment 1 <==

	 Z (Atomic Numbers)          Masses                          Geom
	      12.000000            23.985042          0.00000000  0.00000000  2.62075032
	      14.000000            27.976927          0.00000000  0.00000000 -2.24680884

	 - Coordinate -           - BOHR/RAD -       - ANG/DEG -
	 R(1,2)           =         4.867559           2.575801

	        --- Internal Coordinate Step in ANG or DEG, aJ/ANG or AJ/DEG ---
	-------------------------------------------------------------------------------
	           Coordinate      Previous         Force          Change          New
	           ----------      --------        ------          ------        ------
	               R(1,2)       2.57580        0.00079        0.00104       2.57684
	-------------------------------------------------------------------------------

	                                 ==> Convergence Check <==

	Measures of convergence in internal coordinates in au.

	Criteria marked as inactive (o), active & met (*), and active & unmet ( ).

	----------------------------------------------------------------------------------------------
	   Step    Total Energy     Delta E     Max Force     RMS Force      Max Disp      RMS Disp
	----------------------------------------------------------------------------------------------
	  Convergence Criteria     1.00e-06 *    3.00e-04 *             o    1.20e-03 *             o
	----------------------------------------------------------------------------------------------
	    15    -489.51245803   -8.94e-07 *    9.63e-05 *    9.63e-05 o    1.96e-03      1.96e-03 o  ~
	----------------------------------------------------------------------------------------------

Next Geometry in Ang
	Fragment 1 (Ang)

	   Mg   0.0000000000   0.0000000000   1.3873599043
	   Si   0.0000000000   0.0000000000  -1.1894785919

    Final optimized geometry and variables:
    Molecular point group: c2v
    Full point group: C_inf_v

    Geometry (in Angstrom), charge = 0, multiplicity = 3:

    MG           0.000000000000     0.000000000000     1.386841345689
    SI           0.000000000000     0.000000000000    -1.188960033271

    Psi4 stopped on: Wednesday, 16 July 2025 07:56PM
    Psi4 wall time for execution: 0:00:25.77

*** Psi4 exiting successfully. Buy a developer a beer!
