                               Psi4 1.9.1 release

  ==> Input File <==

--------------------------------------------------------------------------
molecule {
0 3
Mg   0.00000        0.60000        0.00000
S   0.00000       -0.60000        0.00000
}

set {
basis              cc-pvdz
reference          uks
maxiter            500
geom_maxiter       500
DAMPING_PERCENTAGE 1
guess              SAP
}

optimize('b3lyp')
--------------------------------------------------------------------------

    Molecular point group: c2v
  Charge       = 0
  Multiplicity = 3
  Basis Set: CC-PVDZ
    Blend: CC-PVDZ
  Basis Set: (CC-PVDZ AUX)
    Blend: CC-PVDZ-JKFIT + DEF2-UNIVERSAL-JKFIT
  @DF-UKS Final Energy:  -597.17574138719283
    Total Energy =                       -597.1757413871928293
 Dipole X            :          0.0000000            0.0000000            0.0000000
 Dipole Y            :          0.0000000            0.0000000            0.0000000
 Dipole Z            :         -0.2673811           -0.0038828           -0.2712639
 Magnitude           :                                                    0.2712639
    Molecular point group: c2v
  Basis Set: CC-PVDZ
    Blend: CC-PVDZ
  Basis Set: (CC-PVDZ AUX)
    Blend: CC-PVDZ-JKFIT + DEF2-UNIVERSAL-JKFIT
  Basis Set: CC-PVDZ
    Blend: CC-PVDZ
  Basis Set: (CC-PVDZ AUX)
    Blend: CC-PVDZ-JKFIT + DEF2-UNIVERSAL-JKFIT
  @DF-UKS Final Energy:  -597.19400801507800
    Total Energy =                       -597.1940080150779977
  Basis Set: CC-PVDZ
    Blend: CC-PVDZ
  Basis Set: (CC-PVDZ AUX)
    Blend: CC-PVDZ-JKFIT + DEF2-UNIVERSAL-JKFIT
  Basis Set: CC-PVDZ
    Blend: CC-PVDZ
  @DF-UKS Final Energy:  -597.22912231127646
    Total Energy =                       -597.2291223112765692
  @DF-UKS Final Energy:  -597.35488521390937
    Total Energy =                       -597.3548852139093697
  @DF-UKS Final Energy:  -597.85539487686731
    Total Energy =                       -597.8553948768673081
  @DF-UKS Final Energy:  -598.05311685105562
    Total Energy =                       -598.0531168510556199
  @DF-UKS Final Energy:  -598.15625186151874
    Total Energy =                       -598.1562518615187400
  @DF-UKS Final Energy:  -598.20224968667469
    Total Energy =                       -598.2022496866745769
  @DF-UKS Final Energy:  -598.22160167374716
    Total Energy =                       -598.2216016737471591
  @DF-UKS Final Energy:  -598.22799304432033
    Total Energy =                       -598.2279930443203284
  @DF-UKS Final Energy:  -598.22920875878776
    Total Energy =                       -598.2292087587877631
  @DF-UKS Final Energy:  -598.22951383396457
    Total Energy =                       -598.2295138339645746
  @DF-UKS Final Energy:  -598.22954448212897
    Total Energy =                       -598.2295444821289720
  Basis Set: (CC-PVDZ AUX)
    Blend: CC-PVDZ-JKFIT + DEF2-UNIVERSAL-JKFIT
  Basis Set: CC-PVDZ
    Blend: CC-PVDZ
  Basis Set: (CC-PVDZ AUX)
    Blend: CC-PVDZ-JKFIT + DEF2-UNIVERSAL-JKFIT
  @DF-UKS Final Energy:  -598.22954768395664
    Total Energy =                       -598.2295476839566390
  Basis Set: CC-PVDZ
    Blend: CC-PVDZ
  Basis Set: (CC-PVDZ AUX)
    Blend: CC-PVDZ-JKFIT + DEF2-UNIVERSAL-JKFIT
  Charge       = 0
  Multiplicity = 3
  Basis Set: CC-PVDZ
    Blend: CC-PVDZ
  Basis Set: (CC-PVDZ AUX)
    Blend: CC-PVDZ-JKFIT + DEF2-UNIVERSAL-JKFIT

    Orbital Energies [Eh]
    ---------------------

    Alpha Occupied:

       1A1   -88.850358     2A1   -46.905537     3A1    -7.912085
       4A1    -5.884998     1B2    -5.867026     1B1    -5.867026
       5A1    -3.183955     6A1    -1.927511     2B2    -1.927190
       2B1    -1.927190     7A1    -0.659476     8A1    -0.334858
       3B1    -0.241412     3B2    -0.241412     9A1    -0.209579

    Alpha Virtual:

       4B2    -0.046386     4B1    -0.046386    10A1     0.011876
      11A1     0.079025     5B2     0.129614     5B1     0.129614
      12A1     0.165940     6B1     0.265653     6B2     0.265653
       1A2     0.269818    13A1     0.269818    14A1     0.324378
       7B1     0.552423     7B2     0.552423    15A1     0.579177
      16A1     0.641646    17A1     0.651544     2A2     0.651548
       8B2     0.723641     8B1     0.723641    18A1     1.055991

    Beta Occupied:

       1A1   -88.845394     2A1   -46.902034     3A1    -7.906855
       4A1    -5.868842     1B2    -5.863963     1B1    -5.863963
       5A1    -3.177989     2B2    -1.923428     2B1    -1.923428
       6A1    -1.921013     7A1    -0.614005     3B1    -0.228474
       3B2    -0.228474

    Beta Virtual:

       8A1    -0.208781     9A1    -0.102768     4B2    -0.019180
       4B1    -0.019180    10A1     0.033143    11A1     0.097173
       5B2     0.145248     5B1     0.145248    12A1     0.206782
      13A1     0.301136     1A2     0.301137     6B2     0.314037
       6B1     0.314037    14A1     0.366729     7B1     0.560190
       7B2     0.560190    15A1     0.625005    16A1     0.658584
       2A2     0.658588    17A1     0.672918     8B2     0.765786
       8B1     0.765786    18A1     1.088972

    Final Occupation by Irrep:
             A1    A2    B1    B2
    DOCC [     7,    0,    3,    3 ]
    SOCC [     2,    0,    0,    0 ]
    NA   [     9,    0,    3,    3 ]
    NB   [     7,    0,    3,    3 ]

  @DF-UKS Final Energy:  -598.22954803654363

   => Energetics <=

    Nuclear Repulsion Energy =             43.9060483618611812
    One-Electron Energy =                -916.8564617103814953
    Two-Electron Energy =                 308.7043639137835953
    DFT Exchange-Correlation Energy =     -33.9834986018068932
    Empirical Dispersion Energy =           0.0000000000000000
    VV10 Nonlocal Energy =                  0.0000000000000000
    Total Energy =                       -598.2295480365436333

  UHF NO Occupations:
  HONO-2 :    7 A1 1.9989283
  HONO-1 :    8 A1 1.0000000
  HONO-0 :    9 A1 1.0000000
  LUNO+0 :   10 A1 0.0010717
  LUNO+1 :    4 B2 0.0001758
  LUNO+2 :    4 B1 0.0001758
  LUNO+3 :    5 B1 0.0000006

Computation Completed

Properties will be evaluated at   0.000000,   0.000000,   0.000000 [a0]

Properties computed using the SCF density matrix

 Multipole Moments:

 ------------------------------------------------------------------------------------
     Multipole            Electronic (a.u.)      Nuclear  (a.u.)        Total (a.u.)
 ------------------------------------------------------------------------------------

 L = 1.  Multiply by 2.5417464519 to convert [e a0] to [Debye]
 Dipole X            :          0.0000000            0.0000000            0.0000000
 Dipole Y            :          0.0000000            0.0000000            0.0000000
 Dipole Z            :          1.2721056           -0.0074877            1.2646179
 Magnitude           :                                                    1.2646179

 ------------------------------------------------------------------------------------

*** tstop() called on Joses-MacBook-Pro-2.local at Wed Jul 16 19:59:32 2025
Module time:
	user time   =       7.47 seconds =       0.12 minutes
	system time =       2.19 seconds =       0.04 minutes
	total time  =          1 seconds =       0.02 minutes
Total time:
	user time   =     180.53 seconds =       3.01 minutes
	system time =      60.09 seconds =       1.00 minutes
	total time  =         23 seconds =       0.38 minutes

*** tstart() called on Joses-MacBook-Pro-2.local
*** at Wed Jul 16 19:59:32 2025

         ------------------------------------------------------------
                                   SCF GRAD
                          Rob Parrish, Justin Turney,
                       Andy Simmonett, and Alex Sokolov
         ------------------------------------------------------------

  ==> Geometry <==

    Molecular point group: c2v
    Full point group: C_inf_v

    Geometry (in Angstrom), charge = 0, multiplicity = 3:

       Center              X                  Y                   Z               Mass
    ------------   -----------------  -----------------  -----------------  -----------------
         MG           0.000000000000     0.000000000000     1.322188825314    23.985041697000
         S            0.000000000000     0.000000000000    -0.991889262772    31.972071174400

  Nuclear repulsion =   43.906048361861181

  ==> Basis Set <==

  Basis Set: CC-PVDZ
    Blend: CC-PVDZ
    Number of shells: 16
    Number of basis functions: 36
    Number of Cartesian functions: 38
    Spherical Harmonics?: true
    Max angular momentum: 2

  ==> DFJKGrad: Density-Fitted SCF Gradients <==

    Gradient:                    1
    J tasked:                  Yes
    K tasked:                  Yes
    wK tasked:                  No
    OpenMP threads:              1
    Integrals threads:           1
    Memory [MiB]:              375
    Schwarz Cutoff:          1E-12
    Fitting Condition:       1E-10

   => Auxiliary Basis Set <=

  Basis Set: (CC-PVDZ AUX)
    Blend: CC-PVDZ-JKFIT + DEF2-UNIVERSAL-JKFIT
    Number of shells: 70
    Number of basis functions: 224
    Number of Cartesian functions: 267
    Spherical Harmonics?: true
    Max angular momentum: 4

  ==> DFT Potential <==

   => LibXC <=

    Version 6.2.2
    S. Lehtola, C. Steigemann, M. J.T. Oliveira, and M. A.L. Marques.,  SoftwareX 7, 1â€“5 (2018) (10.1016/j.softx.2017.11.002)

   => Composite Functional: B3LYP <=

    B3LYP Hyb-GGA Exchange-Correlation Functional

    P. J. Stephens, F. J. Devlin, C. F. Chabalowski, and M. J. Frisch.,  J. Phys. Chem. 98, 11623 (1994) (10.1021/j100096a001)

    Deriv               =              1
    GGA                 =           TRUE
    Meta                =          FALSE

    Exchange Hybrid     =           TRUE
    MP2 Hybrid          =          FALSE

   => Exchange Functionals <=

    0.0800   Slater exchange
    0.7200         Becke 88

   => Exact (HF) Exchange <=

    0.2000               HF

   => Correlation Functionals <=

    0.1900   Vosko, Wilk & Nusair (VWN5_RPA)
    0.8100   Lee, Yang & Parr

   => LibXC Density Thresholds  <==

    XC_HYB_GGA_XC_B3LYP:  1.00E-15

   => Molecular Quadrature <=

    Radial Scheme          =       TREUTLER
    Pruning Scheme         =           NONE
    Nuclear Scheme         =       TREUTLER

    Blocking Scheme        =         OCTREE
    BS radius alpha        =              1
    Pruning alpha          =              1
    Radial Points          =             75
    Spherical Points       =            302
    Total Points           =          43011
    Total Blocks           =            418
    Max Points             =            256
    Max Functions          =             36
    Weights Tolerance      =       1.00E-15

  -Total Gradient:
     Atom            X                  Y                   Z
    ------   -----------------  -----------------  -----------------
       1       -0.000000000000     0.000000000000    -0.000021339190
       2        0.000000000000     0.000000000000     0.000066039700

*** tstop() called on Joses-MacBook-Pro-2.local at Wed Jul 16 19:59:32 2025
Module time:
	user time   =       2.68 seconds =       0.04 minutes
	system time =       1.58 seconds =       0.03 minutes
	total time  =          0 seconds =       0.00 minutes
Total time:
	user time   =     183.21 seconds =       3.05 minutes
	system time =      61.68 seconds =       1.03 minutes
	total time  =         23 seconds =       0.38 minutes

    			-----------------------------------------

    			 OPTKING 3.0: for geometry optimizations

    			     By R.A. King, Bethel University

    			        with contributions from

    			    A.V. Copan, J. Cayton, A. Heide

    			-----------------------------------------

	                            ===> Fragment 1 <==

	 Z (Atomic Numbers)          Masses                          Geom
	      12.000000            23.985042          0.00000000  0.00000000  2.49857477
	      16.000000            31.972071          0.00000000  0.00000000 -1.87439905

	 - Coordinate -           - BOHR/RAD -       - ANG/DEG -
	 R(1,2)           =         4.372974           2.314078

	        --- Internal Coordinate Step in ANG or DEG, aJ/ANG or AJ/DEG ---
	-------------------------------------------------------------------------------
	           Coordinate      Previous         Force          Change          New
	           ----------      --------        ------          ------        ------
	               R(1,2)       2.31408        0.00036        0.00026       2.31434
	-------------------------------------------------------------------------------

	                                 ==> Convergence Check <==

	Measures of convergence in internal coordinates in au.

	Criteria marked as inactive (o), active & met (*), and active & unmet ( ).

	----------------------------------------------------------------------------------------------
	   Step    Total Energy     Delta E     Max Force     RMS Force      Max Disp      RMS Disp
	----------------------------------------------------------------------------------------------
	  Convergence Criteria     1.00e-06 *    3.00e-04 *             o    1.20e-03 *             o
	----------------------------------------------------------------------------------------------
	    15    -598.22954804   -3.53e-07 *    4.37e-05 *    4.37e-05 o    4.90e-04 *    4.90e-04 o  ~
	----------------------------------------------------------------------------------------------

Next Geometry in Ang
	Fragment 1 (Ang)

	   Mg   0.0000000000   0.0000000000   1.3223185016
	    S   0.0000000000   0.0000000000  -0.9920189390

    Final optimized geometry and variables:
    Molecular point group: c2v
    Full point group: C_inf_v

    Geometry (in Angstrom), charge = 0, multiplicity = 3:

    MG           0.000000000000     0.000000000000     1.322188825314
    S            0.000000000000     0.000000000000    -0.991889262772

    Psi4 stopped on: Wednesday, 16 July 2025 07:59PM
    Psi4 wall time for execution: 0:00:24.18

*** Psi4 exiting successfully. Buy a developer a beer!
