                               Psi4 1.9.1 release

  ==> Input File <==

--------------------------------------------------------------------------
molecule {
0 3
Li   0.00000        0.60000        0.00000
N   0.00000       -0.60000        0.00000
}

set {
basis              cc-pvdz
reference          uks
maxiter            500
geom_maxiter       500
DAMPING_PERCENTAGE 1
guess              SAP
}

optimize('b3lyp')
--------------------------------------------------------------------------

    Molecular point group: c2v
  Charge       = 0
  Multiplicity = 3
  Basis Set: CC-PVDZ
    Blend: CC-PVDZ
  Basis Set: (CC-PVDZ AUX)
    Blend: CC-PVDZ-JKFIT + DEF2-UNIVERSAL-JKFIT
  @DF-UKS Final Energy:   -61.98435405866690
    Total Energy =                        -61.9843540586669022
 Dipole X            :          0.0000000            0.0000000            0.0000000
 Dipole Y            :          0.0000000            0.0000000            0.0000000
 Dipole Z            :          2.3200786           -0.7662953            1.5537833
 Magnitude           :                                                    1.5537833
    Molecular point group: c2v
  Basis Set: CC-PVDZ
    Blend: CC-PVDZ
  Basis Set: (CC-PVDZ AUX)
    Blend: CC-PVDZ-JKFIT + DEF2-UNIVERSAL-JKFIT
  Basis Set: CC-PVDZ
    Blend: CC-PVDZ
  Basis Set: (CC-PVDZ AUX)
    Blend: CC-PVDZ-JKFIT + DEF2-UNIVERSAL-JKFIT
  @DF-UKS Final Energy:   -62.09073265432438
    Total Energy =                        -62.0907326543243769
  Basis Set: CC-PVDZ
    Blend: CC-PVDZ
  Basis Set: (CC-PVDZ AUX)
    Blend: CC-PVDZ-JKFIT + DEF2-UNIVERSAL-JKFIT
  Basis Set: CC-PVDZ
    Blend: CC-PVDZ
  @DF-UKS Final Energy:   -62.11868679298752
    Total Energy =                        -62.1186867929875177
  @DF-UKS Final Energy:   -62.13061584101456
    Total Energy =                        -62.1306158410145599
  @DF-UKS Final Energy:   -62.13319076466243
    Total Energy =                        -62.1331907646624302
  @DF-UKS Final Energy:   -62.13397261548744
    Total Energy =                        -62.1339726154874370
  @DF-UKS Final Energy:   -62.13409133917582
    Total Energy =                        -62.1340913391758178
  @DF-UKS Final Energy:   -62.13411077517918
    Total Energy =                        -62.1341107751791810
  Basis Set: (CC-PVDZ AUX)
    Blend: CC-PVDZ-JKFIT + DEF2-UNIVERSAL-JKFIT
  Basis Set: CC-PVDZ
    Blend: CC-PVDZ
  Basis Set: (CC-PVDZ AUX)
    Blend: CC-PVDZ-JKFIT + DEF2-UNIVERSAL-JKFIT
  @DF-UKS Final Energy:   -62.13411449536432
    Total Energy =                        -62.1341144953643152
  Basis Set: CC-PVDZ
    Blend: CC-PVDZ
  Basis Set: (CC-PVDZ AUX)
    Blend: CC-PVDZ-JKFIT + DEF2-UNIVERSAL-JKFIT
  Charge       = 0
  Multiplicity = 3
  Basis Set: CC-PVDZ
    Blend: CC-PVDZ
  Basis Set: (CC-PVDZ AUX)
    Blend: CC-PVDZ-JKFIT + DEF2-UNIVERSAL-JKFIT

    Orbital Energies [Eh]
    ---------------------

    Alpha Occupied:

       1A1   -14.300726     2A1    -2.029235     3A1    -0.683955
       4A1    -0.264067     1B1    -0.246437     1B2    -0.196483

    Alpha Virtual:

       5A1    -0.056418     2B2     0.007282     2B1     0.007813
       6A1     0.034359     7A1     0.088884     3B1     0.095890
       3B2     0.096444     8A1     0.201675     1A2     0.242808
       9A1     0.244303     4B1     0.298533     4B2     0.302986
      10A1     0.389678    11A1     0.845934     5B1     0.888466
       5B2     0.922267    12A1     1.509521    13A1     1.765664
       6B1     1.820330     2A2     1.828486    14A1     1.837154
       6B2     1.859430

    Beta Occupied:

       1A1   -14.264636     2A1    -2.026279     3A1    -0.556214
       1B2    -0.152641

    Beta Virtual:

       4A1    -0.066514     1B1    -0.056260     5A1    -0.039455
       2B2     0.010648     2B1     0.030425     6A1     0.038946
       7A1     0.090761     3B2     0.096128     3B1     0.108095
       8A1     0.223337     1A2     0.242797     9A1     0.250763
       4B2     0.308238     4B1     0.324313    10A1     0.408428
      11A1     0.939039     5B2     0.951155     5B1     0.975755
      12A1     1.567960    13A1     1.888350     2A2     1.904770
      14A1     1.914311     6B2     1.935365     6B1     1.954228

    Final Occupation by Irrep:
             A1    A2    B1    B2
    DOCC [     3,    0,    0,    1 ]
    SOCC [     1,    0,    1,    0 ]
    NA   [     4,    0,    1,    1 ]
    NB   [     3,    0,    0,    1 ]

  @DF-UKS Final Energy:   -62.13411470208221

   => Energetics <=

    Nuclear Repulsion Energy =              6.3870002128340957
    One-Electron Energy =                 -97.2326623726568897
    Two-Electron Energy =                  35.7725054394813924
    DFT Exchange-Correlation Energy =      -7.0609579817408168
    Empirical Dispersion Energy =           0.0000000000000000
    VV10 Nonlocal Energy =                  0.0000000000000000
    Total Energy =                        -62.1341147020822149

  UHF NO Occupations:
  HONO-2 :    1 B2 1.9925795
  HONO-1 :    4 A1 1.0000000
  HONO-0 :    1 B1 1.0000000
  LUNO+0 :    2 B2 0.0074205
  LUNO+1 :    5 A1 0.0012209
  LUNO+2 :    6 A1 0.0000004
  LUNO+3 :    7 A1 0.0000002

Computation Completed

Properties will be evaluated at   0.000000,   0.000000,   0.000000 [a0]

Properties computed using the SCF density matrix

 Multipole Moments:

 ------------------------------------------------------------------------------------
     Multipole            Electronic (a.u.)      Nuclear  (a.u.)        Total (a.u.)
 ------------------------------------------------------------------------------------

 L = 1.  Multiply by 2.5417464519 to convert [e a0] to [Debye]
 Dipole X            :          0.0000000            0.0000000            0.0000000
 Dipole Y            :          0.0000000            0.0000000            0.0000000
 Dipole Z            :          3.2264863           -1.1110623            2.1154240
 Magnitude           :                                                    2.1154240

 ------------------------------------------------------------------------------------

*** tstop() called on Joses-MacBook-Pro-2.local at Wed Jul 16 18:30:10 2025
Module time:
	user time   =       2.54 seconds =       0.04 minutes
	system time =       3.20 seconds =       0.05 minutes
	total time  =          0 seconds =       0.00 minutes
Total time:
	user time   =      40.24 seconds =       0.67 minutes
	system time =      43.65 seconds =       0.73 minutes
	total time  =          7 seconds =       0.12 minutes

*** tstart() called on Joses-MacBook-Pro-2.local
*** at Wed Jul 16 18:30:10 2025

         ------------------------------------------------------------
                                   SCF GRAD
                          Rob Parrish, Justin Turney,
                       Andy Simmonett, and Alex Sokolov
         ------------------------------------------------------------

  ==> Geometry <==

    Molecular point group: c2v
    Full point group: C_inf_v

    Geometry (in Angstrom), charge = 0, multiplicity = 3:

       Center              X                  Y                   Z               Mass
    ------------   -----------------  -----------------  -----------------  -----------------
         LI           0.000000000000     0.000000000000     1.159132894397     7.016003436600
         N            0.000000000000     0.000000000000    -0.580763935689    14.003074004430

  Nuclear repulsion =    6.387000212834096

  ==> Basis Set <==

  Basis Set: CC-PVDZ
    Blend: CC-PVDZ
    Number of shells: 12
    Number of basis functions: 28
    Number of Cartesian functions: 30
    Spherical Harmonics?: true
    Max angular momentum: 2

  ==> DFJKGrad: Density-Fitted SCF Gradients <==

    Gradient:                    1
    J tasked:                  Yes
    K tasked:                  Yes
    wK tasked:                  No
    OpenMP threads:              1
    Integrals threads:           1
    Memory [MiB]:              375
    Schwarz Cutoff:          1E-12
    Fitting Condition:       1E-10

   => Auxiliary Basis Set <=

  Basis Set: (CC-PVDZ AUX)
    Blend: CC-PVDZ-JKFIT + DEF2-UNIVERSAL-JKFIT
    Number of shells: 41
    Number of basis functions: 121
    Number of Cartesian functions: 141
    Spherical Harmonics?: true
    Max angular momentum: 3

  ==> DFT Potential <==

   => LibXC <=

    Version 6.2.2
    S. Lehtola, C. Steigemann, M. J.T. Oliveira, and M. A.L. Marques.,  SoftwareX 7, 1â€“5 (2018) (10.1016/j.softx.2017.11.002)

   => Composite Functional: B3LYP <=

    B3LYP Hyb-GGA Exchange-Correlation Functional

    P. J. Stephens, F. J. Devlin, C. F. Chabalowski, and M. J. Frisch.,  J. Phys. Chem. 98, 11623 (1994) (10.1021/j100096a001)

    Deriv               =              1
    GGA                 =           TRUE
    Meta                =          FALSE

    Exchange Hybrid     =           TRUE
    MP2 Hybrid          =          FALSE

   => Exchange Functionals <=

    0.0800   Slater exchange
    0.7200         Becke 88

   => Exact (HF) Exchange <=

    0.2000               HF

   => Correlation Functionals <=

    0.1900   Vosko, Wilk & Nusair (VWN5_RPA)
    0.8100   Lee, Yang & Parr

   => LibXC Density Thresholds  <==

    XC_HYB_GGA_XC_B3LYP:  1.00E-15

   => Molecular Quadrature <=

    Radial Scheme          =       TREUTLER
    Pruning Scheme         =           NONE
    Nuclear Scheme         =       TREUTLER

    Blocking Scheme        =         OCTREE
    BS radius alpha        =              1
    Pruning alpha          =              1
    Radial Points          =             75
    Spherical Points       =            302
    Total Points           =          44287
    Total Blocks           =            424
    Max Points             =            254
    Max Functions          =             28
    Weights Tolerance      =       1.00E-15

  -Total Gradient:
     Atom            X                  Y                   Z
    ------   -----------------  -----------------  -----------------
       1       -0.000000000000    -0.000000000000    -0.000025659250
       2       -0.000000000000    -0.000000000000     0.000038061560

*** tstop() called on Joses-MacBook-Pro-2.local at Wed Jul 16 18:30:11 2025
Module time:
	user time   =       0.56 seconds =       0.01 minutes
	system time =       1.15 seconds =       0.02 minutes
	total time  =          1 seconds =       0.02 minutes
Total time:
	user time   =      40.81 seconds =       0.68 minutes
	system time =      44.80 seconds =       0.75 minutes
	total time  =          8 seconds =       0.13 minutes

    			-----------------------------------------

    			 OPTKING 3.0: for geometry optimizations

    			     By R.A. King, Bethel University

    			        with contributions from

    			    A.V. Copan, J. Cayton, A. Heide

    			-----------------------------------------

	                            ===> Fragment 1 <==

	 Z (Atomic Numbers)          Masses                          Geom
	       3.000000             7.016003          0.00000000  0.00000000  2.19044371
	       7.000000            14.003074          0.00000000  0.00000000 -1.09748478

	 - Coordinate -           - BOHR/RAD -       - ANG/DEG -
	 R(1,2)           =         3.287928           1.739897

	        --- Internal Coordinate Step in ANG or DEG, aJ/ANG or AJ/DEG ---
	-------------------------------------------------------------------------------
	           Coordinate      Previous         Force          Change          New
	           ----------      --------        ------          ------        ------
	               R(1,2)       1.73990        0.00026        0.00014       1.74004
	-------------------------------------------------------------------------------

	                                 ==> Convergence Check <==

	Measures of convergence in internal coordinates in au.

	Criteria marked as inactive (o), active & met (*), and active & unmet ( ).

	----------------------------------------------------------------------------------------------
	   Step    Total Energy     Delta E     Max Force     RMS Force      Max Disp      RMS Disp
	----------------------------------------------------------------------------------------------
	  Convergence Criteria     1.00e-06 *    3.00e-04 *             o    1.20e-03 *             o
	----------------------------------------------------------------------------------------------
	    10     -62.13411470   -2.07e-07 *    3.19e-05 *    3.19e-05 o    2.62e-04 *    2.62e-04 o  ~
	----------------------------------------------------------------------------------------------

Next Geometry in Ang
	Fragment 1 (Ang)

	   Li   0.0000000000   0.0000000000   1.1592021836
	    N   0.0000000000   0.0000000000  -0.5808332249

    Final optimized geometry and variables:
    Molecular point group: c2v
    Full point group: C_inf_v

    Geometry (in Angstrom), charge = 0, multiplicity = 3:

    LI           0.000000000000     0.000000000000     1.159132894397
    N            0.000000000000     0.000000000000    -0.580763935689

    Psi4 stopped on: Wednesday, 16 July 2025 06:30PM
    Psi4 wall time for execution: 0:00:08.69

*** Psi4 exiting successfully. Buy a developer a beer!
