                               Psi4 1.9.1 release

  ==> Input File <==

--------------------------------------------------------------------------
molecule {
0 3
Ne   0.00000        0.60000        0.00000
S   0.00000       -0.60000        0.00000
}

set {
basis              cc-pvdz
reference          uks
maxiter            500
geom_maxiter       500
DAMPING_PERCENTAGE 1
guess              SAP
}

optimize('b3lyp')
--------------------------------------------------------------------------

    Molecular point group: c2v
  Charge       = 0
  Multiplicity = 3
  Basis Set: CC-PVDZ
    Blend: CC-PVDZ
  Basis Set: (CC-PVDZ AUX)
    Blend: CC-PVDZ-JKFIT
  @DF-UKS Final Energy:  -526.32391283456093
    Total Energy =                       -526.3239128345609288
 Dipole X            :          0.0000000            0.0000000            0.0000000
 Dipole Y            :          0.0000000            0.0000000            0.0000000
 Dipole Z            :          1.4608506           -0.0069094            1.4539412
 Magnitude           :                                                    1.4539412
    Molecular point group: c2v
  Basis Set: CC-PVDZ
    Blend: CC-PVDZ
  Basis Set: (CC-PVDZ AUX)
    Blend: CC-PVDZ-JKFIT
  Basis Set: CC-PVDZ
    Blend: CC-PVDZ
  Basis Set: (CC-PVDZ AUX)
    Blend: CC-PVDZ-JKFIT
  @DF-UKS Final Energy:  -526.60341721704549
    Total Energy =                       -526.6034172170454895
  Basis Set: CC-PVDZ
    Blend: CC-PVDZ
  Basis Set: (CC-PVDZ AUX)
    Blend: CC-PVDZ-JKFIT
  Basis Set: CC-PVDZ
    Blend: CC-PVDZ
  @DF-UKS Final Energy:  -526.79097327287843
    Total Energy =                       -526.7909732728784320
  @DF-UKS Final Energy:  -526.91066011235728
    Total Energy =                       -526.9106601123572773
  @DF-UKS Final Energy:  -526.97401744674119
    Total Energy =                       -526.9740174467411862
  @DF-UKS Final Energy:  -527.00532352411278
    Total Energy =                       -527.0053235241127823
  @DF-UKS Final Energy:  -527.02130768042105
    Total Energy =                       -527.0213076804210459
  @DF-UKS Final Energy:  -527.02923019353739
    Total Energy =                       -527.0292301935373871
  @DF-UKS Final Energy:  -527.03297052416076
    Total Energy =                       -527.0329705241607599
  @DF-UKS Final Energy:  -527.03460379192757
    Total Energy =                       -527.0346037919275659
  @DF-UKS Final Energy:  -527.03524408808505
    Total Energy =                       -527.0352440880850509
  @DF-UKS Final Energy:  -527.03545744798998
    Total Energy =                       -527.0354574479899838
  @DF-UKS Final Energy:  -527.03550094144623
    Total Energy =                       -527.0355009414462302
  @DF-UKS Final Energy:  -527.03551468337218
    Total Energy =                       -527.0355146833721847
  Basis Set: (CC-PVDZ AUX)
    Blend: CC-PVDZ-JKFIT
  Basis Set: CC-PVDZ
    Blend: CC-PVDZ
  Basis Set: (CC-PVDZ AUX)
    Blend: CC-PVDZ-JKFIT
  @DF-UKS Final Energy:  -527.03551691028440
    Total Energy =                       -527.0355169102844002
  Basis Set: CC-PVDZ
    Blend: CC-PVDZ
  Basis Set: (CC-PVDZ AUX)
    Blend: CC-PVDZ-JKFIT
  Charge       = 0
  Multiplicity = 3
  Basis Set: CC-PVDZ
    Blend: CC-PVDZ
  Basis Set: (CC-PVDZ AUX)
    Blend: CC-PVDZ-JKFIT

    Orbital Energies [Eh]
    ---------------------

    Alpha Occupied:

       1A1   -88.928154     2A1   -30.969106     3A1    -7.986582
       1B1    -5.955813     4A1    -5.955784     1B2    -5.936054
       5A1    -1.433900     6A1    -0.718642     7A1    -0.544163
       2B1    -0.541898     2B2    -0.541672     3B1    -0.327428
       8A1    -0.325726     3B2    -0.278904

    Alpha Virtual:

       9A1     0.445553     4B1     0.455432    10A1     0.459196
       4B2     0.486382    11A1     0.522887     5B1     0.523694
       1A2     0.562315     5B2     0.562321    12A1     0.576236
       6B1     1.359553     6B2     1.360048    13A1     1.403077
      14A1     1.842281     7B1     4.722896     7B2     4.723028
       2A2     4.723667    15A1     4.723735    16A1     4.723927

    Beta Occupied:

       1A1   -88.917340     2A1   -30.968816     3A1    -7.975548
       1B1    -5.934449     4A1    -5.934321     1B2    -5.929531
       5A1    -1.433348     6A1    -0.626030     7A1    -0.542373
       2B1    -0.541647     2B2    -0.541465     3B2    -0.252094

    Beta Virtual:

       3B1    -0.170006     8A1    -0.168374     9A1     0.480601
       4B2     0.499347     4B1     0.505510    10A1     0.507378
       1A2     0.619514     5B2     0.619583    11A1     0.622331
      12A1     0.630753     5B1     0.631726     6B1     1.359528
       6B2     1.359986    13A1     1.404486    14A1     1.843168
       7B1     4.723495     7B2     4.723611     2A2     4.723837
      15A1     4.724064    16A1     4.724497

    Final Occupation by Irrep:
             A1    A2    B1    B2
    DOCC [     7,    0,    2,    3 ]
    SOCC [     1,    0,    1,    0 ]
    NA   [     8,    0,    3,    3 ]
    NB   [     7,    0,    2,    3 ]

  @DF-UKS Final Energy:  -527.03551735411008

   => Energetics <=

    Nuclear Repulsion Energy =             27.6262596763849686
    One-Electron Energy =                -787.3542356798983519
    Two-Electron Energy =                 263.4570624317430543
    DFT Exchange-Correlation Energy =     -30.7646037823397727
    Empirical Dispersion Energy =           0.0000000000000000
    VV10 Nonlocal Energy =                  0.0000000000000000
    Total Energy =                       -527.0355173541100839

  UHF NO Occupations:
  HONO-2 :    7 A1 1.9989793
  HONO-1 :    8 A1 1.0000000
  HONO-0 :    3 B1 1.0000000
  LUNO+0 :    9 A1 0.0010207
  LUNO+1 :    4 B2 0.0000991
  LUNO+2 :   10 A1 0.0000018
  LUNO+3 :    4 B1 0.0000000

Computation Completed

Properties will be evaluated at   0.000000,   0.000000,   0.000000 [a0]

Properties computed using the SCF density matrix

 Multipole Moments:

 ------------------------------------------------------------------------------------
     Multipole            Electronic (a.u.)      Nuclear  (a.u.)        Total (a.u.)
 ------------------------------------------------------------------------------------

 L = 1.  Multiply by 2.5417464519 to convert [e a0] to [Debye]
 Dipole X            :          0.0000000            0.0000000            0.0000000
 Dipole Y            :          0.0000000            0.0000000            0.0000000
 Dipole Z            :          0.0597377           -0.0176464            0.0420912
 Magnitude           :                                                    0.0420912

 ------------------------------------------------------------------------------------

*** tstop() called on Joses-MacBook-Pro-2.local at Wed Jul 16 19:37:03 2025
Module time:
	user time   =       2.36 seconds =       0.04 minutes
	system time =       3.07 seconds =       0.05 minutes
	total time  =          1 seconds =       0.02 minutes
Total time:
	user time   =      73.02 seconds =       1.22 minutes
	system time =      83.15 seconds =       1.39 minutes
	total time  =         15 seconds =       0.25 minutes

*** tstart() called on Joses-MacBook-Pro-2.local
*** at Wed Jul 16 19:37:03 2025

         ------------------------------------------------------------
                                   SCF GRAD
                          Rob Parrish, Justin Turney,
                       Andy Simmonett, and Alex Sokolov
         ------------------------------------------------------------

  ==> Geometry <==

    Molecular point group: c2v
    Full point group: C_inf_v

    Geometry (in Angstrom), charge = 0, multiplicity = 3:

       Center              X                  Y                   Z               Mass
    ------------   -----------------  -----------------  -----------------  -----------------
         NE           0.000000000000     0.000000000000     1.885658091687    19.992440176200
         S            0.000000000000     0.000000000000    -1.179119938311    31.972071174400

  Nuclear repulsion =   27.626259676384969

  ==> Basis Set <==

  Basis Set: CC-PVDZ
    Blend: CC-PVDZ
    Number of shells: 14
    Number of basis functions: 32
    Number of Cartesian functions: 34
    Spherical Harmonics?: true
    Max angular momentum: 2

  ==> DFJKGrad: Density-Fitted SCF Gradients <==

    Gradient:                    1
    J tasked:                  Yes
    K tasked:                  Yes
    wK tasked:                  No
    OpenMP threads:              1
    Integrals threads:           1
    Memory [MiB]:              375
    Schwarz Cutoff:          1E-12
    Fitting Condition:       1E-10

   => Auxiliary Basis Set <=

  Basis Set: (CC-PVDZ AUX)
    Blend: CC-PVDZ-JKFIT
    Number of shells: 60
    Number of basis functions: 182
    Number of Cartesian functions: 211
    Spherical Harmonics?: true
    Max angular momentum: 3

  ==> DFT Potential <==

   => LibXC <=

    Version 6.2.2
    S. Lehtola, C. Steigemann, M. J.T. Oliveira, and M. A.L. Marques.,  SoftwareX 7, 1â€“5 (2018) (10.1016/j.softx.2017.11.002)

   => Composite Functional: B3LYP <=

    B3LYP Hyb-GGA Exchange-Correlation Functional

    P. J. Stephens, F. J. Devlin, C. F. Chabalowski, and M. J. Frisch.,  J. Phys. Chem. 98, 11623 (1994) (10.1021/j100096a001)

    Deriv               =              1
    GGA                 =           TRUE
    Meta                =          FALSE

    Exchange Hybrid     =           TRUE
    MP2 Hybrid          =          FALSE

   => Exchange Functionals <=

    0.0800   Slater exchange
    0.7200         Becke 88

   => Exact (HF) Exchange <=

    0.2000               HF

   => Correlation Functionals <=

    0.1900   Vosko, Wilk & Nusair (VWN5_RPA)
    0.8100   Lee, Yang & Parr

   => LibXC Density Thresholds  <==

    XC_HYB_GGA_XC_B3LYP:  1.00E-15

   => Molecular Quadrature <=

    Radial Scheme          =       TREUTLER
    Pruning Scheme         =           NONE
    Nuclear Scheme         =       TREUTLER

    Blocking Scheme        =         OCTREE
    BS radius alpha        =              1
    Pruning alpha          =              1
    Radial Points          =             75
    Spherical Points       =            302
    Total Points           =          42303
    Total Blocks           =            385
    Max Points             =            253
    Max Functions          =             32
    Weights Tolerance      =       1.00E-15

  -Total Gradient:
     Atom            X                  Y                   Z
    ------   -----------------  -----------------  -----------------
       1        0.000000000000    -0.000000000000    -0.000026612242
       2       -0.000000000000    -0.000000000000     0.000008349765

*** tstop() called on Joses-MacBook-Pro-2.local at Wed Jul 16 19:37:03 2025
Module time:
	user time   =       0.93 seconds =       0.02 minutes
	system time =       1.80 seconds =       0.03 minutes
	total time  =          0 seconds =       0.00 minutes
Total time:
	user time   =      73.95 seconds =       1.23 minutes
	system time =      84.95 seconds =       1.42 minutes
	total time  =         15 seconds =       0.25 minutes

    			-----------------------------------------

    			 OPTKING 3.0: for geometry optimizations

    			     By R.A. King, Bethel University

    			        with contributions from

    			    A.V. Copan, J. Cayton, A. Heide

    			-----------------------------------------

	                            ===> Fragment 1 <==

	 Z (Atomic Numbers)          Masses                          Geom
	      10.000000            19.992440          0.00000000  0.00000000  3.56337736
	      16.000000            31.972071          0.00000000  0.00000000 -2.22821375

	 - Coordinate -           - BOHR/RAD -       - ANG/DEG -
	 R(1,2)           =         5.791591           3.064778

	        --- Internal Coordinate Step in ANG or DEG, aJ/ANG or AJ/DEG ---
	-------------------------------------------------------------------------------
	           Coordinate      Previous         Force          Change          New
	           ----------      --------        ------          ------        ------
	               R(1,2)       3.06478        0.00014        0.00248       3.06726
	-------------------------------------------------------------------------------

	                                 ==> Convergence Check <==

	Measures of convergence in internal coordinates in au.

	Criteria marked as inactive (o), active & met (*), and active & unmet ( ).

	----------------------------------------------------------------------------------------------
	   Step    Total Energy     Delta E     Max Force     RMS Force      Max Disp      RMS Disp
	----------------------------------------------------------------------------------------------
	  Convergence Criteria     1.00e-06 *    3.00e-04 *             o    1.20e-03 *             o
	----------------------------------------------------------------------------------------------
	    16    -527.03551735   -4.44e-07 *    1.75e-05 *    1.75e-05 o    4.69e-03      4.69e-03 o  ~
	----------------------------------------------------------------------------------------------

Next Geometry in Ang
	Fragment 1 (Ang)

	   Ne   0.0000000000   0.0000000000   1.8869000605
	    S   0.0000000000   0.0000000000  -1.1803619071

    Final optimized geometry and variables:
    Molecular point group: c2v
    Full point group: C_inf_v

    Geometry (in Angstrom), charge = 0, multiplicity = 3:

    NE           0.000000000000     0.000000000000     1.885658091687
    S            0.000000000000     0.000000000000    -1.179119938311

    Psi4 stopped on: Wednesday, 16 July 2025 07:37PM
    Psi4 wall time for execution: 0:00:15.67

*** Psi4 exiting successfully. Buy a developer a beer!
