                               Psi4 1.9.1 release

  ==> Input File <==

--------------------------------------------------------------------------
molecule {
0 3
Li   0.00000        0.60000        0.00000
Li   0.00000       -0.60000        0.00000
}

set {
basis              cc-pvdz
reference          uks
maxiter            500
geom_maxiter       500
DAMPING_PERCENTAGE 1
guess              SAP
}

optimize('b3lyp')
--------------------------------------------------------------------------

    Molecular point group: d2h
  Charge       = 0
  Multiplicity = 3
  Basis Set: CC-PVDZ
    Blend: CC-PVDZ
  Basis Set: (CC-PVDZ AUX)
    Blend: DEF2-UNIVERSAL-JKFIT
  @DF-UKS Final Energy:   -14.82484165312800
    Total Energy =                        -14.8248416531279972
 Dipole X            :          0.0000000            0.0000000            0.0000000
 Dipole Y            :          0.0000000            0.0000000            0.0000000
 Dipole Z            :          0.0000000            0.0000000            0.0000000
 Magnitude           :                                                    0.0000000
    Molecular point group: d2h
  Basis Set: CC-PVDZ
    Blend: CC-PVDZ
  Basis Set: (CC-PVDZ AUX)
    Blend: DEF2-UNIVERSAL-JKFIT
  Basis Set: CC-PVDZ
    Blend: CC-PVDZ
  Basis Set: (CC-PVDZ AUX)
    Blend: DEF2-UNIVERSAL-JKFIT
  @DF-UKS Final Energy:   -14.85224421703694
    Total Energy =                        -14.8522442170369366
  Basis Set: CC-PVDZ
    Blend: CC-PVDZ
  Basis Set: (CC-PVDZ AUX)
    Blend: DEF2-UNIVERSAL-JKFIT
  Basis Set: CC-PVDZ
    Blend: CC-PVDZ
  @DF-UKS Final Energy:   -14.90317010947889
    Total Energy =                        -14.9031701094788911
  @DF-UKS Final Energy:   -14.93613459796614
    Total Energy =                        -14.9361345979661362
  @DF-UKS Final Energy:   -14.95094325957774
    Total Energy =                        -14.9509432595777376
  @DF-UKS Final Energy:   -14.96171274075284
    Total Energy =                        -14.9617127407528443
  @DF-UKS Final Energy:   -14.96497264438929
    Total Energy =                        -14.9649726443892899
  @DF-UKS Final Energy:   -14.96570230603118
    Total Energy =                        -14.9657023060311847
  @DF-UKS Final Energy:   -14.96577279318714
    Total Energy =                        -14.9657727931871420
  Basis Set: (CC-PVDZ AUX)
    Blend: DEF2-UNIVERSAL-JKFIT
  Basis Set: CC-PVDZ
    Blend: CC-PVDZ
  Basis Set: (CC-PVDZ AUX)
    Blend: DEF2-UNIVERSAL-JKFIT
  @DF-UKS Final Energy:   -14.96577446399436
    Total Energy =                        -14.9657744639943608
  Basis Set: CC-PVDZ
    Blend: CC-PVDZ
  Basis Set: (CC-PVDZ AUX)
    Blend: DEF2-UNIVERSAL-JKFIT
  Charge       = 0
  Multiplicity = 3
  Basis Set: CC-PVDZ
    Blend: CC-PVDZ
  Basis Set: (CC-PVDZ AUX)
    Blend: DEF2-UNIVERSAL-JKFIT

    Orbital Energies [Eh]
    ---------------------

    Alpha Occupied:

       1Ag    -2.030605     1B2u   -2.030041     2Ag    -0.169516
       1B1u   -0.089369

    Alpha Virtual:

       2B2u   -0.057105     1B3u   -0.042075     3Ag    -0.024373
       1B3g   -0.000228     1B1g    0.015916     3B2u    0.033884
       2B1u    0.052631     4Ag     0.055863     2B3u    0.063908
       2B3g    0.092894     5Ag     0.093093     2B1g    0.107542
       4B2u    0.161639     1B2g    0.185857     6Ag     0.192218
       5B2u    0.219400     3B1u    0.223418     3B3u    0.240517
       1Au     0.274209     6B2u    0.281698     7Ag     0.337202
       3B3g    0.388766     3B1g    0.405212     7B2u    0.796625

    Beta Occupied:

       1Ag    -2.024820     1B2u   -2.024312

    Beta Virtual:

       2Ag    -0.071348     2B2u   -0.038206     1B3u   -0.011033
       1B1u   -0.000734     3Ag     0.004391     1B1g    0.027222
       1B3g    0.030788     3B2u    0.042104     4Ag     0.074379
       2B3u    0.075981     2B1u    0.083255     5Ag     0.107963
       2B1g    0.110783     2B3g    0.119443     4B2u    0.169775
       5B2u    0.240495     1B2g    0.241642     6Ag     0.241676
       3B3u    0.269500     3B1u    0.281981     1Au     0.316534
       6B2u    0.317330     7Ag     0.366821     3B1g    0.418082
       3B3g    0.428211     7B2u    0.804644

    Final Occupation by Irrep:
             Ag   B1g   B2g   B3g    Au   B1u   B2u   B3u
    DOCC [     1,    0,    0,    0,    0,    0,    1,    0 ]
    SOCC [     1,    0,    0,    0,    0,    1,    0,    0 ]
    NA   [     2,    0,    0,    0,    0,    1,    1,    0 ]
    NB   [     1,    0,    0,    0,    0,    0,    1,    0 ]

  @DF-UKS Final Energy:   -14.96577450124421

   => Energetics <=

    Nuclear Repulsion Energy =              1.8341939062704562
    One-Electron Energy =                 -23.0651501283655094
    Two-Electron Energy =                   9.2613748611307471
    DFT Exchange-Correlation Energy =      -2.9961931402799067
    Empirical Dispersion Energy =           0.0000000000000000
    VV10 Nonlocal Energy =                  0.0000000000000000
    Total Energy =                        -14.9657745012442120

  UHF NO Occupations:
  HONO-2 :    1B2u 1.9999994
  HONO-1 :    1B1u 1.0000000
  HONO-0 :    2 Ag 1.0000000
  LUNO+0 :    2B2u 0.0000006
  LUNO+1 :    3 Ag 0.0000006
  LUNO+2 :    3B2u 0.0000000
  LUNO+3 :    4B2u 0.0000000

Computation Completed

Properties will be evaluated at   0.000000,   0.000000,   0.000000 [a0]

Properties computed using the SCF density matrix

 Multipole Moments:

 ------------------------------------------------------------------------------------
     Multipole            Electronic (a.u.)      Nuclear  (a.u.)        Total (a.u.)
 ------------------------------------------------------------------------------------

 L = 1.  Multiply by 2.5417464519 to convert [e a0] to [Debye]
 Dipole X            :          0.0000000            0.0000000            0.0000000
 Dipole Y            :          0.0000000            0.0000000            0.0000000
 Dipole Z            :          0.0000000            0.0000000            0.0000000
 Magnitude           :                                                    0.0000000

 ------------------------------------------------------------------------------------

*** tstop() called on Joses-MacBook-Pro-2.local at Wed Jul 16 18:28:04 2025
Module time:
	user time   =       1.82 seconds =       0.03 minutes
	system time =       2.87 seconds =       0.05 minutes
	total time  =          1 seconds =       0.02 minutes
Total time:
	user time   =      45.15 seconds =       0.75 minutes
	system time =      42.32 seconds =       0.71 minutes
	total time  =          9 seconds =       0.15 minutes

*** tstart() called on Joses-MacBook-Pro-2.local
*** at Wed Jul 16 18:28:04 2025

         ------------------------------------------------------------
                                   SCF GRAD
                          Rob Parrish, Justin Turney,
                       Andy Simmonett, and Alex Sokolov
         ------------------------------------------------------------

  ==> Geometry <==

    Molecular point group: d2h
    Full point group: D_inf_h

    Geometry (in Angstrom), charge = 0, multiplicity = 3:

       Center              X                  Y                   Z               Mass
    ------------   -----------------  -----------------  -----------------  -----------------
         LI          -0.000000000000     1.298280099980     0.000000000000     7.016003436600
         LI           0.000000000000    -1.298280099980     0.000000000000     7.016003436600

  Nuclear repulsion =    1.834193906270456

  ==> Basis Set <==

  Basis Set: CC-PVDZ
    Blend: CC-PVDZ
    Number of shells: 12
    Number of basis functions: 28
    Number of Cartesian functions: 30
    Spherical Harmonics?: true
    Max angular momentum: 2

  ==> DFJKGrad: Density-Fitted SCF Gradients <==

    Gradient:                    1
    J tasked:                  Yes
    K tasked:                  Yes
    wK tasked:                  No
    OpenMP threads:              1
    Integrals threads:           1
    Memory [MiB]:              375
    Schwarz Cutoff:          1E-12
    Fitting Condition:       1E-10

   => Auxiliary Basis Set <=

  Basis Set: (CC-PVDZ AUX)
    Blend: DEF2-UNIVERSAL-JKFIT
    Number of shells: 34
    Number of basis functions: 102
    Number of Cartesian functions: 120
    Spherical Harmonics?: true
    Max angular momentum: 3

  ==> DFT Potential <==

   => LibXC <=

    Version 6.2.2
    S. Lehtola, C. Steigemann, M. J.T. Oliveira, and M. A.L. Marques.,  SoftwareX 7, 1â€“5 (2018) (10.1016/j.softx.2017.11.002)

   => Composite Functional: B3LYP <=

    B3LYP Hyb-GGA Exchange-Correlation Functional

    P. J. Stephens, F. J. Devlin, C. F. Chabalowski, and M. J. Frisch.,  J. Phys. Chem. 98, 11623 (1994) (10.1021/j100096a001)

    Deriv               =              1
    GGA                 =           TRUE
    Meta                =          FALSE

    Exchange Hybrid     =           TRUE
    MP2 Hybrid          =          FALSE

   => Exchange Functionals <=

    0.0800   Slater exchange
    0.7200         Becke 88

   => Exact (HF) Exchange <=

    0.2000               HF

   => Correlation Functionals <=

    0.1900   Vosko, Wilk & Nusair (VWN5_RPA)
    0.8100   Lee, Yang & Parr

   => LibXC Density Thresholds  <==

    XC_HYB_GGA_XC_B3LYP:  1.00E-15

   => Molecular Quadrature <=

    Radial Scheme          =       TREUTLER
    Pruning Scheme         =           NONE
    Nuclear Scheme         =       TREUTLER

    Blocking Scheme        =         OCTREE
    BS radius alpha        =              1
    Pruning alpha          =              1
    Radial Points          =             75
    Spherical Points       =            302
    Total Points           =          44032
    Total Blocks           =            446
    Max Points             =            254
    Max Functions          =             28
    Weights Tolerance      =       1.00E-15

  -Total Gradient:
     Atom            X                  Y                   Z
    ------   -----------------  -----------------  -----------------
       1        0.000000000000    -0.000005460078     0.000000000000
       2       -0.000000000000     0.000005460078     0.000000000000

*** tstop() called on Joses-MacBook-Pro-2.local at Wed Jul 16 18:28:04 2025
Module time:
	user time   =       0.56 seconds =       0.01 minutes
	system time =       1.36 seconds =       0.02 minutes
	total time  =          0 seconds =       0.00 minutes
Total time:
	user time   =      45.72 seconds =       0.76 minutes
	system time =      43.68 seconds =       0.73 minutes
	total time  =          9 seconds =       0.15 minutes

    			-----------------------------------------

    			 OPTKING 3.0: for geometry optimizations

    			     By R.A. King, Bethel University

    			        with contributions from

    			    A.V. Copan, J. Cayton, A. Heide

    			-----------------------------------------

	                            ===> Fragment 1 <==

	 Z (Atomic Numbers)          Masses                          Geom
	       3.000000             7.016003         -0.00000000  2.45339382  0.00000000
	       3.000000             7.016003          0.00000000 -2.45339382  0.00000000

	 - Coordinate -           - BOHR/RAD -       - ANG/DEG -
	 R(1,2)           =         4.906788           2.596560

	        --- Internal Coordinate Step in ANG or DEG, aJ/ANG or AJ/DEG ---
	-------------------------------------------------------------------------------
	           Coordinate      Previous         Force          Change          New
	           ----------      --------        ------          ------        ------
	               R(1,2)       2.59656        0.00004        0.00016       2.59672
	-------------------------------------------------------------------------------

	                                 ==> Convergence Check <==

	Measures of convergence in internal coordinates in au.

	Criteria marked as inactive (o), active & met (*), and active & unmet ( ).

	----------------------------------------------------------------------------------------------
	   Step    Total Energy     Delta E     Max Force     RMS Force      Max Disp      RMS Disp
	----------------------------------------------------------------------------------------------
	  Convergence Criteria     1.00e-06 *    3.00e-04 *             o    1.20e-03 *             o
	----------------------------------------------------------------------------------------------
	    11     -14.96577450   -3.72e-08 *    5.46e-06 *    5.46e-06 o    3.05e-04 *    3.05e-04 o  ~
	----------------------------------------------------------------------------------------------

Next Geometry in Ang
	Fragment 1 (Ang)

	   Li  -0.0000000000   1.2983608108   0.0000000000
	   Li   0.0000000000  -1.2983608108   0.0000000000

    Final optimized geometry and variables:
    Molecular point group: d2h
    Full point group: D_inf_h

    Geometry (in Angstrom), charge = 0, multiplicity = 3:

    LI          -0.000000000000     1.298280099980     0.000000000000
    LI           0.000000000000    -1.298280099980     0.000000000000

    Psi4 stopped on: Wednesday, 16 July 2025 06:28PM
    Psi4 wall time for execution: 0:00:09.72

*** Psi4 exiting successfully. Buy a developer a beer!
