                               Psi4 1.9.1 release

  ==> Input File <==

--------------------------------------------------------------------------
molecule {
0 3
He   0.00000        0.60000        0.00000
Mg   0.00000       -0.60000        0.00000
}

set {
basis              cc-pvdz
reference          uks
maxiter            500
geom_maxiter       500
DAMPING_PERCENTAGE 1
guess              SAP
}

optimize('b3lyp')
--------------------------------------------------------------------------

    Molecular point group: c2v
  Charge       = 0
  Multiplicity = 3
  Basis Set: CC-PVDZ
    Blend: CC-PVDZ
  Basis Set: (CC-PVDZ AUX)
    Blend: DEF2-UNIVERSAL-JKFIT
  @DF-UKS Final Energy:  -202.75016559761221
    Total Energy =                       -202.7501655976122095
 Dipole X            :          0.0000000            0.0000000            0.0000000
 Dipole Y            :          0.0000000            0.0000000            0.0000000
 Dipole Z            :          0.7685550           -0.0049551            0.7635999
 Magnitude           :                                                    0.7635999
    Molecular point group: c2v
  Basis Set: CC-PVDZ
    Blend: CC-PVDZ
  Basis Set: (CC-PVDZ AUX)
    Blend: DEF2-UNIVERSAL-JKFIT
  Basis Set: CC-PVDZ
    Blend: CC-PVDZ
  Basis Set: (CC-PVDZ AUX)
    Blend: DEF2-UNIVERSAL-JKFIT
  @DF-UKS Final Energy:  -202.84828501998243
    Total Energy =                       -202.8482850199824270
  Basis Set: CC-PVDZ
    Blend: CC-PVDZ
  Basis Set: (CC-PVDZ AUX)
    Blend: DEF2-UNIVERSAL-JKFIT
  Basis Set: CC-PVDZ
    Blend: CC-PVDZ
  @DF-UKS Final Energy:  -202.86521950472161
    Total Energy =                       -202.8652195047216082
  @DF-UKS Final Energy:  -202.87930458268636
    Total Energy =                       -202.8793045826863590
  @DF-UKS Final Energy:  -202.88614473391462
    Total Energy =                       -202.8861447339146196
  @DF-UKS Final Energy:  -202.89028374091939
    Total Energy =                       -202.8902837409193864
  @DF-UKS Final Energy:  -202.89281023643983
    Total Energy =                       -202.8928102364398285
  @DF-UKS Final Energy:  -202.89441458913726
    Total Energy =                       -202.8944145891372557
  @DF-UKS Final Energy:  -202.89537262431500
    Total Energy =                       -202.8953726243150300
  @DF-UKS Final Energy:  -202.89586295471258
    Total Energy =                       -202.8958629547125838
  @DF-UKS Final Energy:  -202.89606849263191
    Total Energy =                       -202.8960684926319118
  @DF-UKS Final Energy:  -202.89613690316477
    Total Energy =                       -202.8961369031647735
  @DF-UKS Final Energy:  -202.89615405058728
    Total Energy =                       -202.8961540505872563
  Basis Set: (CC-PVDZ AUX)
    Blend: DEF2-UNIVERSAL-JKFIT
  Basis Set: CC-PVDZ
    Blend: CC-PVDZ
  Basis Set: (CC-PVDZ AUX)
    Blend: DEF2-UNIVERSAL-JKFIT
  @DF-UKS Final Energy:  -202.89615598455640
    Total Energy =                       -202.8961559845564011
  Basis Set: CC-PVDZ
    Blend: CC-PVDZ
  Basis Set: (CC-PVDZ AUX)
    Blend: DEF2-UNIVERSAL-JKFIT
  Charge       = 0
  Multiplicity = 3
  Basis Set: CC-PVDZ
    Blend: CC-PVDZ
  Basis Set: (CC-PVDZ AUX)
    Blend: DEF2-UNIVERSAL-JKFIT

    Orbital Energies [Eh]
    ---------------------

    Alpha Occupied:

       1A1   -46.882719     2A1    -3.161661     3A1    -1.905932
       1B1    -1.905908     1B2    -1.902896     4A1    -0.671849
       5A1    -0.243732     2B2    -0.106586

    Alpha Virtual:

       2B1    -0.057331     6A1    -0.051467     7A1     0.084254
       3B2     0.130335     3B1     0.139947     8A1     0.146297
       1A2     0.270974     4B2     0.271015     9A1     0.274563
      10A1     0.282353     4B1     0.282452    11A1     1.177924
       5B1     2.169471     5B2     2.169822    12A1     2.174507

    Beta Occupied:

       1A1   -46.878478     2A1    -3.154535     3A1    -1.901666
       1B1    -1.901638     1B2    -1.894102     4A1    -0.671390

    Beta Virtual:

       5A1    -0.136929     2B1    -0.015907     6A1    -0.013873
       2B2     0.003314     7A1     0.110428     3B1     0.162651
       8A1     0.165081     3B2     0.179169     9A1     0.317956
       4B1     0.319649     1A2     0.339761     4B2     0.340475
      10A1     0.346232    11A1     1.179249     5B1     2.169784
       5B2     2.170191    12A1     2.174955

    Final Occupation by Irrep:
             A1    A2    B1    B2
    DOCC [     4,    0,    1,    1 ]
    SOCC [     1,    0,    0,    1 ]
    NA   [     5,    0,    1,    2 ]
    NB   [     4,    0,    1,    1 ]

  @DF-UKS Final Energy:  -202.89615625262260

   => Energetics <=

    Nuclear Repulsion Energy =              3.8187378942163339
    One-Electron Energy =                -290.1510891228399487
    Two-Electron Energy =                  97.5633961294085736
    DFT Exchange-Correlation Energy =     -14.1272011534075475
    Empirical Dispersion Energy =           0.0000000000000000
    VV10 Nonlocal Energy =                  0.0000000000000000
    Total Energy =                       -202.8961562526226032

  UHF NO Occupations:
  HONO-2 :    4 A1 1.9999987
  HONO-1 :    2 B2 1.0000000
  HONO-0 :    5 A1 1.0000000
  LUNO+0 :    6 A1 0.0000013
  LUNO+1 :    2 B1 0.0000009
  LUNO+2 :    7 A1 0.0000007
  LUNO+3 :    3 B2 0.0000004

Computation Completed

Properties will be evaluated at   0.000000,   0.000000,   0.000000 [a0]

Properties computed using the SCF density matrix

 Multipole Moments:

 ------------------------------------------------------------------------------------
     Multipole            Electronic (a.u.)      Nuclear  (a.u.)        Total (a.u.)
 ------------------------------------------------------------------------------------

 L = 1.  Multiply by 2.5417464519 to convert [e a0] to [Debye]
 Dipole X            :          0.0000000            0.0000000            0.0000000
 Dipole Y            :          0.0000000            0.0000000            0.0000000
 Dipole Z            :          0.0730498           -0.0137329            0.0593169
 Magnitude           :                                                    0.0593169

 ------------------------------------------------------------------------------------

*** tstop() called on Joses-MacBook-Pro-2.local at Wed Jul 16 18:23:05 2025
Module time:
	user time   =       2.05 seconds =       0.03 minutes
	system time =       2.26 seconds =       0.04 minutes
	total time  =          1 seconds =       0.02 minutes
Total time:
	user time   =      53.38 seconds =       0.89 minutes
	system time =      61.34 seconds =       1.02 minutes
	total time  =         11 seconds =       0.18 minutes

*** tstart() called on Joses-MacBook-Pro-2.local
*** at Wed Jul 16 18:23:05 2025

         ------------------------------------------------------------
                                   SCF GRAD
                          Rob Parrish, Justin Turney,
                       Andy Simmonett, and Alex Sokolov
         ------------------------------------------------------------

  ==> Geometry <==

    Molecular point group: c2v
    Full point group: C_inf_v

    Geometry (in Angstrom), charge = 0, multiplicity = 3:

       Center              X                  Y                   Z               Mass
    ------------   -----------------  -----------------  -----------------  -----------------
         HE           0.000000000000     0.000000000000     2.850142968658     4.002603254130
         MG           0.000000000000     0.000000000000    -0.475629422087    23.985041697000

  Nuclear repulsion =    3.818737894216334

  ==> Basis Set <==

  Basis Set: CC-PVDZ
    Blend: CC-PVDZ
    Number of shells: 11
    Number of basis functions: 23
    Number of Cartesian functions: 24
    Spherical Harmonics?: true
    Max angular momentum: 2

  ==> DFJKGrad: Density-Fitted SCF Gradients <==

    Gradient:                    1
    J tasked:                  Yes
    K tasked:                  Yes
    wK tasked:                  No
    OpenMP threads:              1
    Integrals threads:           1
    Memory [MiB]:              375
    Schwarz Cutoff:          1E-12
    Fitting Condition:       1E-10

   => Auxiliary Basis Set <=

  Basis Set: (CC-PVDZ AUX)
    Blend: DEF2-UNIVERSAL-JKFIT
    Number of shells: 43
    Number of basis functions: 135
    Number of Cartesian functions: 162
    Spherical Harmonics?: true
    Max angular momentum: 4

  ==> DFT Potential <==

   => LibXC <=

    Version 6.2.2
    S. Lehtola, C. Steigemann, M. J.T. Oliveira, and M. A.L. Marques.,  SoftwareX 7, 1â€“5 (2018) (10.1016/j.softx.2017.11.002)

   => Composite Functional: B3LYP <=

    B3LYP Hyb-GGA Exchange-Correlation Functional

    P. J. Stephens, F. J. Devlin, C. F. Chabalowski, and M. J. Frisch.,  J. Phys. Chem. 98, 11623 (1994) (10.1021/j100096a001)

    Deriv               =              1
    GGA                 =           TRUE
    Meta                =          FALSE

    Exchange Hybrid     =           TRUE
    MP2 Hybrid          =          FALSE

   => Exchange Functionals <=

    0.0800   Slater exchange
    0.7200         Becke 88

   => Exact (HF) Exchange <=

    0.2000               HF

   => Correlation Functionals <=

    0.1900   Vosko, Wilk & Nusair (VWN5_RPA)
    0.8100   Lee, Yang & Parr

   => LibXC Density Thresholds  <==

    XC_HYB_GGA_XC_B3LYP:  1.00E-15

   => Molecular Quadrature <=

    Radial Scheme          =       TREUTLER
    Pruning Scheme         =           NONE
    Nuclear Scheme         =       TREUTLER

    Blocking Scheme        =         OCTREE
    BS radius alpha        =              1
    Pruning alpha          =              1
    Radial Points          =             75
    Spherical Points       =            302
    Total Points           =          43547
    Total Blocks           =            405
    Max Points             =            255
    Max Functions          =             23
    Weights Tolerance      =       1.00E-15

  -Total Gradient:
     Atom            X                  Y                   Z
    ------   -----------------  -----------------  -----------------
       1        0.000000000000     0.000000000000    -0.000004689609
       2        0.000000000000    -0.000000000000     0.000003274394

*** tstop() called on Joses-MacBook-Pro-2.local at Wed Jul 16 18:23:05 2025
Module time:
	user time   =       0.73 seconds =       0.01 minutes
	system time =       1.12 seconds =       0.02 minutes
	total time  =          0 seconds =       0.00 minutes
Total time:
	user time   =      54.11 seconds =       0.90 minutes
	system time =      62.46 seconds =       1.04 minutes
	total time  =         11 seconds =       0.18 minutes

    			-----------------------------------------

    			 OPTKING 3.0: for geometry optimizations

    			     By R.A. King, Bethel University

    			        with contributions from

    			    A.V. Copan, J. Cayton, A. Heide

    			-----------------------------------------

	                            ===> Fragment 1 <==

	 Z (Atomic Numbers)          Masses                          Geom
	       2.000000             4.002603          0.00000000  0.00000000  5.38598963
	      12.000000            23.985042          0.00000000  0.00000000 -0.89880934

	 - Coordinate -           - BOHR/RAD -       - ANG/DEG -
	 R(1,2)           =         6.284799           3.325772

	        --- Internal Coordinate Step in ANG or DEG, aJ/ANG or AJ/DEG ---
	-------------------------------------------------------------------------------
	           Coordinate      Previous         Force          Change          New
	           ----------      --------        ------          ------        ------
	               R(1,2)       3.32577        0.00003        0.00347       3.32924
	-------------------------------------------------------------------------------

	                                 ==> Convergence Check <==

	Measures of convergence in internal coordinates in au.

	Criteria marked as inactive (o), active & met (*), and active & unmet ( ).

	----------------------------------------------------------------------------------------------
	   Step    Total Energy     Delta E     Max Force     RMS Force      Max Disp      RMS Disp
	----------------------------------------------------------------------------------------------
	  Convergence Criteria     1.00e-06 *    3.00e-04 *             o    1.20e-03 *             o
	----------------------------------------------------------------------------------------------
	    15    -202.89615625   -2.68e-07 *    3.98e-06 *    3.98e-06 o    6.56e-03      6.56e-03 o  ~
	----------------------------------------------------------------------------------------------

Next Geometry in Ang
	Fragment 1 (Ang)

	   He   0.0000000000   0.0000000000   2.8518784121
	   Mg   0.0000000000   0.0000000000  -0.4773648655

    Final optimized geometry and variables:
    Molecular point group: c2v
    Full point group: C_inf_v

    Geometry (in Angstrom), charge = 0, multiplicity = 3:

    HE           0.000000000000     0.000000000000     2.850142968658
    MG           0.000000000000     0.000000000000    -0.475629422087

    Psi4 stopped on: Wednesday, 16 July 2025 06:23PM
    Psi4 wall time for execution: 0:00:11.94

*** Psi4 exiting successfully. Buy a developer a beer!
