                               Psi4 1.9.1 release

  ==> Input File <==

--------------------------------------------------------------------------
molecule {
0 3
Li   0.00000        0.60000        0.00000
Na   0.00000       -0.60000        0.00000
}

set {
basis              cc-pvdz
reference          uks
maxiter            500
geom_maxiter       500
DAMPING_PERCENTAGE 1
guess              SAP
}

optimize('b3lyp')
--------------------------------------------------------------------------

    Molecular point group: c2v
  Charge       = 0
  Multiplicity = 3
  Basis Set: CC-PVDZ
    Blend: CC-PVDZ
  Basis Set: (CC-PVDZ AUX)
    Blend: DEF2-UNIVERSAL-JKFIT
  @DF-UKS Final Energy:  -169.52293528044905
    Total Energy =                       -169.5229352804490475
 Dipole X            :          0.0000000            0.0000000            0.0000000
 Dipole Y            :          0.0000000            0.0000000            0.0000000
 Dipole Z            :          0.1014364           -0.6202195           -0.5187831
 Magnitude           :                                                    0.5187831
    Molecular point group: c2v
  Basis Set: CC-PVDZ
    Blend: CC-PVDZ
  Basis Set: (CC-PVDZ AUX)
    Blend: DEF2-UNIVERSAL-JKFIT
  Basis Set: CC-PVDZ
    Blend: CC-PVDZ
  Basis Set: (CC-PVDZ AUX)
    Blend: DEF2-UNIVERSAL-JKFIT
  @DF-UKS Final Energy:  -169.55805895238606
    Total Energy =                       -169.5580589523860624
  Basis Set: CC-PVDZ
    Blend: CC-PVDZ
  Basis Set: (CC-PVDZ AUX)
    Blend: DEF2-UNIVERSAL-JKFIT
  Basis Set: CC-PVDZ
    Blend: CC-PVDZ
  @DF-UKS Final Energy:  -169.60040308593531
    Total Energy =                       -169.6004030859353406
  @DF-UKS Final Energy:  -169.65571227483153
    Total Energy =                       -169.6557122748315010
  @DF-UKS Final Energy:  -169.68776753236347
    Total Energy =                       -169.6877675323634662
  @DF-UKS Final Energy:  -169.71818661496155
    Total Energy =                       -169.7181866149615246
  @DF-UKS Final Energy:  -169.73797528986685
    Total Energy =                       -169.7379752898668244
  @DF-UKS Final Energy:  -169.74859045252558
    Total Energy =                       -169.7485904525255762
  @DF-UKS Final Energy:  -169.75259109820487
    Total Energy =                       -169.7525910982048742
  @DF-UKS Final Energy:  -169.75362608247960
    Total Energy =                       -169.7536260824795704
  @DF-UKS Final Energy:  -169.75376386873597
    Total Energy =                       -169.7537638687359731
  Basis Set: (CC-PVDZ AUX)
    Blend: DEF2-UNIVERSAL-JKFIT
  Basis Set: CC-PVDZ
    Blend: CC-PVDZ
  Basis Set: (CC-PVDZ AUX)
    Blend: DEF2-UNIVERSAL-JKFIT
  @DF-UKS Final Energy:  -169.75376924503360
    Total Energy =                       -169.7537692450335953
  Basis Set: CC-PVDZ
    Blend: CC-PVDZ
  Basis Set: (CC-PVDZ AUX)
    Blend: DEF2-UNIVERSAL-JKFIT
  Charge       = 0
  Multiplicity = 3
  Basis Set: CC-PVDZ
    Blend: CC-PVDZ
  Basis Set: (CC-PVDZ AUX)
    Blend: DEF2-UNIVERSAL-JKFIT

    Orbital Energies [Eh]
    ---------------------

    Alpha Occupied:

       1A1   -38.501280     2A1    -2.246088     3A1    -2.031374
       4A1    -1.177784     1B2    -1.177315     1B1    -1.176158
       5A1    -0.166666     2B1    -0.082312

    Alpha Virtual:

       6A1    -0.063861     2B2    -0.037999     7A1    -0.021166
       3B1    -0.003591     3B2     0.010104     8A1     0.023695
       9A1     0.052183     4B1     0.052888     4B2     0.063461
      10A1     0.065177     5B1     0.089412     5B2     0.101246
      11A1     0.139369     1A2     0.143586    12A1     0.147695
       6B1     0.173414    13A1     0.179774     6B2     0.185464
       2A2     0.243776    14A1     0.251619    15A1     0.308503
       7B1     0.338625     7B2     0.354386    16A1     0.609349

    Beta Occupied:

       1A1   -38.499884     2A1    -2.243488     3A1    -2.026206
       4A1    -1.175910     1B2    -1.175839     1B1    -1.173658

    Beta Virtual:

       5A1    -0.086251     6A1    -0.042354     2B2    -0.012128
       2B1    -0.003785     7A1     0.001473     3B2     0.022218
       3B1     0.026610     8A1     0.035275     9A1     0.068557
       4B2     0.076198    10A1     0.076862     4B1     0.082163
       5B2     0.105823     5B1     0.113289    11A1     0.152395
       1A2     0.177168    12A1     0.177581    13A1     0.197751
       6B2     0.203340     6B1     0.213830    14A1     0.289366
       2A2     0.289790    15A1     0.332587     7B2     0.370012
       7B1     0.380687    16A1     0.622140

    Final Occupation by Irrep:
             A1    A2    B1    B2
    DOCC [     4,    0,    1,    1 ]
    SOCC [     1,    0,    1,    0 ]
    NA   [     5,    0,    2,    1 ]
    NB   [     4,    0,    1,    1 ]

  @DF-UKS Final Energy:  -169.75376944985709

   => Energetics <=

    Nuclear Repulsion Energy =              6.1455321025904794
    One-Electron Energy =                -249.5416485622620542
    Two-Electron Energy =                  86.7800736519751013
    DFT Exchange-Correlation Energy =     -13.1377266421605938
    Empirical Dispersion Energy =           0.0000000000000000
    VV10 Nonlocal Energy =                  0.0000000000000000
    Total Energy =                       -169.7537694498570886

  UHF NO Occupations:
  HONO-2 :    4 A1 1.9999992
  HONO-1 :    5 A1 1.0000000
  HONO-0 :    2 B1 1.0000000
  LUNO+0 :    6 A1 0.0000008
  LUNO+1 :    7 A1 0.0000006
  LUNO+2 :    2 B2 0.0000002
  LUNO+3 :    3 B1 0.0000002

Computation Completed

Properties will be evaluated at   0.000000,   0.000000,   0.000000 [a0]

Properties computed using the SCF density matrix

 Multipole Moments:

 ------------------------------------------------------------------------------------
     Multipole            Electronic (a.u.)      Nuclear  (a.u.)        Total (a.u.)
 ------------------------------------------------------------------------------------

 L = 1.  Multiply by 2.5417464519 to convert [e a0] to [Debye]
 Dipole X            :          0.0000000            0.0000000            0.0000000
 Dipole Y            :          0.0000000            0.0000000            0.0000000
 Dipole Z            :          0.9006024           -1.4686550           -0.5680526
 Magnitude           :                                                    0.5680526

 ------------------------------------------------------------------------------------

*** tstop() called on Joses-MacBook-Pro-2.local at Wed Jul 16 18:32:42 2025
Module time:
	user time   =       2.93 seconds =       0.05 minutes
	system time =       2.26 seconds =       0.04 minutes
	total time  =          0 seconds =       0.00 minutes
Total time:
	user time   =      55.12 seconds =       0.92 minutes
	system time =      65.96 seconds =       1.10 minutes
	total time  =         12 seconds =       0.20 minutes

*** tstart() called on Joses-MacBook-Pro-2.local
*** at Wed Jul 16 18:32:42 2025

         ------------------------------------------------------------
                                   SCF GRAD
                          Rob Parrish, Justin Turney,
                       Andy Simmonett, and Alex Sokolov
         ------------------------------------------------------------

  ==> Geometry <==

    Molecular point group: c2v
    Full point group: C_inf_v

    Geometry (in Angstrom), charge = 0, multiplicity = 3:

       Center              X                  Y                   Z               Mass
    ------------   -----------------  -----------------  -----------------  -----------------
         LI           0.000000000000     0.000000000000     2.177135094514     7.016003436600
         NA           0.000000000000     0.000000000000    -0.664416728924    22.989769282000

  Nuclear repulsion =    6.145532102590479

  ==> Basis Set <==

  Basis Set: CC-PVDZ
    Blend: CC-PVDZ
    Number of shells: 14
    Number of basis functions: 32
    Number of Cartesian functions: 34
    Spherical Harmonics?: true
    Max angular momentum: 2

  ==> DFJKGrad: Density-Fitted SCF Gradients <==

    Gradient:                    1
    J tasked:                  Yes
    K tasked:                  Yes
    wK tasked:                  No
    OpenMP threads:              1
    Integrals threads:           1
    Memory [MiB]:              375
    Schwarz Cutoff:          1E-12
    Fitting Condition:       1E-10

   => Auxiliary Basis Set <=

  Basis Set: (CC-PVDZ AUX)
    Blend: DEF2-UNIVERSAL-JKFIT
    Number of shells: 51
    Number of basis functions: 163
    Number of Cartesian functions: 197
    Spherical Harmonics?: true
    Max angular momentum: 4

  ==> DFT Potential <==

   => LibXC <=

    Version 6.2.2
    S. Lehtola, C. Steigemann, M. J.T. Oliveira, and M. A.L. Marques.,  SoftwareX 7, 1â€“5 (2018) (10.1016/j.softx.2017.11.002)

   => Composite Functional: B3LYP <=

    B3LYP Hyb-GGA Exchange-Correlation Functional

    P. J. Stephens, F. J. Devlin, C. F. Chabalowski, and M. J. Frisch.,  J. Phys. Chem. 98, 11623 (1994) (10.1021/j100096a001)

    Deriv               =              1
    GGA                 =           TRUE
    Meta                =          FALSE

    Exchange Hybrid     =           TRUE
    MP2 Hybrid          =          FALSE

   => Exchange Functionals <=

    0.0800   Slater exchange
    0.7200         Becke 88

   => Exact (HF) Exchange <=

    0.2000               HF

   => Correlation Functionals <=

    0.1900   Vosko, Wilk & Nusair (VWN5_RPA)
    0.8100   Lee, Yang & Parr

   => LibXC Density Thresholds  <==

    XC_HYB_GGA_XC_B3LYP:  1.00E-15

   => Molecular Quadrature <=

    Radial Scheme          =       TREUTLER
    Pruning Scheme         =           NONE
    Nuclear Scheme         =       TREUTLER

    Blocking Scheme        =         OCTREE
    BS radius alpha        =              1
    Pruning alpha          =              1
    Radial Points          =             75
    Spherical Points       =            302
    Total Points           =          43617
    Total Blocks           =            456
    Max Points             =            256
    Max Functions          =             32
    Weights Tolerance      =       1.00E-15

  -Total Gradient:
     Atom            X                  Y                   Z
    ------   -----------------  -----------------  -----------------
       1       -0.000000000000     0.000000000000    -0.000013842173
       2        0.000000000000     0.000000000000     0.000013515603

*** tstop() called on Joses-MacBook-Pro-2.local at Wed Jul 16 18:32:42 2025
Module time:
	user time   =       0.95 seconds =       0.02 minutes
	system time =       1.59 seconds =       0.03 minutes
	total time  =          0 seconds =       0.00 minutes
Total time:
	user time   =      56.07 seconds =       0.93 minutes
	system time =      67.55 seconds =       1.13 minutes
	total time  =         12 seconds =       0.20 minutes

    			-----------------------------------------

    			 OPTKING 3.0: for geometry optimizations

    			     By R.A. King, Bethel University

    			        with contributions from

    			    A.V. Copan, J. Cayton, A. Heide

    			-----------------------------------------

	                            ===> Fragment 1 <==

	 Z (Atomic Numbers)          Masses                          Geom
	       3.000000             7.016003          0.00000000  0.00000000  4.11418907
	      11.000000            22.989769          0.00000000  0.00000000 -1.25556565

	 - Coordinate -           - BOHR/RAD -       - ANG/DEG -
	 R(1,2)           =         5.369755           2.841552

	        --- Internal Coordinate Step in ANG or DEG, aJ/ANG or AJ/DEG ---
	-------------------------------------------------------------------------------
	           Coordinate      Previous         Force          Change          New
	           ----------      --------        ------          ------        ------
	               R(1,2)       2.84155        0.00011        0.00050       2.84205
	-------------------------------------------------------------------------------

	                                 ==> Convergence Check <==

	Measures of convergence in internal coordinates in au.

	Criteria marked as inactive (o), active & met (*), and active & unmet ( ).

	----------------------------------------------------------------------------------------------
	   Step    Total Energy     Delta E     Max Force     RMS Force      Max Disp      RMS Disp
	----------------------------------------------------------------------------------------------
	  Convergence Criteria     1.00e-06 *    3.00e-04 *             o    1.20e-03 *             o
	----------------------------------------------------------------------------------------------
	    13    -169.75376945   -2.05e-07 *    1.37e-05 *    1.37e-05 o    9.43e-04 *    9.43e-04 o  ~
	----------------------------------------------------------------------------------------------

Next Geometry in Ang
	Fragment 1 (Ang)

	   Li   0.0000000000   0.0000000000   2.1773844981
	   Na   0.0000000000   0.0000000000  -0.6646661325

    Final optimized geometry and variables:
    Molecular point group: c2v
    Full point group: C_inf_v

    Geometry (in Angstrom), charge = 0, multiplicity = 3:

    LI           0.000000000000     0.000000000000     2.177135094514
    NA           0.000000000000     0.000000000000    -0.664416728924

    Psi4 stopped on: Wednesday, 16 July 2025 06:32PM
    Psi4 wall time for execution: 0:00:12.86

*** Psi4 exiting successfully. Buy a developer a beer!
