                               Psi4 1.9.1 release

  ==> Input File <==

--------------------------------------------------------------------------
molecule {
0 3
N   0.00000        0.60000        0.00000
Na   0.00000       -0.60000        0.00000
}

set {
basis              cc-pvdz
reference          uks
maxiter            500
geom_maxiter       500
DAMPING_PERCENTAGE 1
guess              SAP
}

optimize('b3lyp')
--------------------------------------------------------------------------

    Molecular point group: c2v
  Charge       = 0
  Multiplicity = 3
  Basis Set: CC-PVDZ
    Blend: CC-PVDZ
  Basis Set: (CC-PVDZ AUX)
    Blend: CC-PVDZ-JKFIT + DEF2-UNIVERSAL-JKFIT
  @DF-UKS Final Energy:  -216.43978383333069
    Total Energy =                       -216.4397838333306936
 Dipole X            :          0.0000000            0.0000000            0.0000000
 Dipole Y            :          0.0000000            0.0000000            0.0000000
 Dipole Z            :         -1.3237587            0.4226391           -0.9011196
 Magnitude           :                                                    0.9011196
    Molecular point group: c2v
  Basis Set: CC-PVDZ
    Blend: CC-PVDZ
  Basis Set: (CC-PVDZ AUX)
    Blend: CC-PVDZ-JKFIT + DEF2-UNIVERSAL-JKFIT
  Basis Set: CC-PVDZ
    Blend: CC-PVDZ
  Basis Set: (CC-PVDZ AUX)
    Blend: CC-PVDZ-JKFIT + DEF2-UNIVERSAL-JKFIT
  @DF-UKS Final Energy:  -216.60513939993760
    Total Energy =                       -216.6051393999375989
  Basis Set: CC-PVDZ
    Blend: CC-PVDZ
  Basis Set: (CC-PVDZ AUX)
    Blend: CC-PVDZ-JKFIT + DEF2-UNIVERSAL-JKFIT
  Basis Set: CC-PVDZ
    Blend: CC-PVDZ
  @DF-UKS Final Energy:  -216.75949865941706
    Total Energy =                       -216.7594986594170621
  @DF-UKS Final Energy:  -216.84828998303044
    Total Energy =                       -216.8482899830304405
  @DF-UKS Final Energy:  -216.88256503965462
    Total Energy =                       -216.8825650396546223
  @DF-UKS Final Energy:  -216.89602023546470
    Total Energy =                       -216.8960202354647038
  @DF-UKS Final Energy:  -216.89941750291550
    Total Energy =                       -216.8994175029154974
  @DF-UKS Final Energy:  -216.90066477850212
    Total Energy =                       -216.9006647785021187
  @DF-UKS Final Energy:  -216.90089854672448
    Total Energy =                       -216.9008985467244770
  @DF-UKS Final Energy:  -216.90094632694777
    Total Energy =                       -216.9009463269477749
  Basis Set: (CC-PVDZ AUX)
    Blend: CC-PVDZ-JKFIT + DEF2-UNIVERSAL-JKFIT
  Basis Set: CC-PVDZ
    Blend: CC-PVDZ
  Basis Set: (CC-PVDZ AUX)
    Blend: CC-PVDZ-JKFIT + DEF2-UNIVERSAL-JKFIT
  @DF-UKS Final Energy:  -216.90095794913637
    Total Energy =                       -216.9009579491363695
  Basis Set: CC-PVDZ
    Blend: CC-PVDZ
  Basis Set: (CC-PVDZ AUX)
    Blend: CC-PVDZ-JKFIT + DEF2-UNIVERSAL-JKFIT
  Charge       = 0
  Multiplicity = 3
  Basis Set: CC-PVDZ
    Blend: CC-PVDZ
  Basis Set: (CC-PVDZ AUX)
    Blend: CC-PVDZ-JKFIT + DEF2-UNIVERSAL-JKFIT

    Orbital Energies [Eh]
    ---------------------

    Alpha Occupied:

       1A1   -38.495923     2A1   -14.271203     3A1    -2.244475
       1B1    -1.176362     4A1    -1.175941     1B2    -1.174839
       5A1    -0.647650     6A1    -0.224395     2B1    -0.213958
       2B2    -0.163451

    Alpha Virtual:

       7A1    -0.068454     3B2    -0.001698     3B1    -0.000351
       8A1     0.022790     9A1     0.056023     4B2     0.087087
       4B1     0.087678    10A1     0.132573     1A2     0.173738
      11A1     0.174773     5B1     0.213088     5B2     0.220705
      12A1     0.280041    13A1     0.838782     6B1     0.879200
       6B2     0.914340    14A1     1.346328    15A1     1.795330
       7B1     1.820478     2A2     1.851374     7B2     1.859984
      16A1     1.861521

    Beta Occupied:

       1A1   -38.495235     2A1   -14.235613     3A1    -2.243313
       1B1    -1.175440     1B2    -1.174518     4A1    -1.173716
       5A1    -0.520175     2B2    -0.117729

    Beta Virtual:

       6A1    -0.076641     2B1    -0.028237     7A1    -0.008056
       3B2     0.001022     3B1     0.024332     8A1     0.026369
       9A1     0.060284     4B2     0.088056     4B1     0.093069
      10A1     0.150263     1A2     0.172997    11A1     0.178282
       5B2     0.228491     5B1     0.242349    12A1     0.294187
      13A1     0.932784     6B2     0.944498     6B1     0.970156
      14A1     1.407052    15A1     1.919473     2A2     1.928725
       7B2     1.936135    16A1     1.938606     7B1     1.954806

    Final Occupation by Irrep:
             A1    A2    B1    B2
    DOCC [     5,    0,    1,    2 ]
    SOCC [     1,    0,    1,    0 ]
    NA   [     6,    0,    2,    2 ]
    NB   [     5,    0,    1,    2 ]

  @DF-UKS Final Energy:  -216.90095882761827

   => Energetics <=

    Nuclear Repulsion Energy =             19.7485652810812056
    One-Electron Energy =                -342.0437763705007796
    Two-Electron Energy =                 122.6055651326239939
    DFT Exchange-Correlation Energy =     -17.2113128708226597
    Empirical Dispersion Energy =           0.0000000000000000
    VV10 Nonlocal Energy =                  0.0000000000000000
    Total Energy =                       -216.9009588276182399

  UHF NO Occupations:
  HONO-2 :    2 B2 1.9893617
  HONO-1 :    6 A1 1.0000000
  HONO-0 :    2 B1 1.0000000
  LUNO+0 :    3 B2 0.0106383
  LUNO+1 :    7 A1 0.0012496
  LUNO+2 :    8 A1 0.0000018
  LUNO+3 :    9 A1 0.0000002

Computation Completed

Properties will be evaluated at   0.000000,   0.000000,   0.000000 [a0]

Properties computed using the SCF density matrix

 Multipole Moments:

 ------------------------------------------------------------------------------------
     Multipole            Electronic (a.u.)      Nuclear  (a.u.)        Total (a.u.)
 ------------------------------------------------------------------------------------

 L = 1.  Multiply by 2.5417464519 to convert [e a0] to [Debye]
 Dipole X            :          0.0000000            0.0000000            0.0000000
 Dipole Y            :          0.0000000            0.0000000            0.0000000
 Dipole Z            :         -3.4914526            0.7266825           -2.7647701
 Magnitude           :                                                    2.7647701

 ------------------------------------------------------------------------------------

*** tstop() called on Joses-MacBook-Pro-2.local at Wed Jul 16 19:09:44 2025
Module time:
	user time   =       3.27 seconds =       0.05 minutes
	system time =       3.89 seconds =       0.06 minutes
	total time  =          0 seconds =       0.00 minutes
Total time:
	user time   =      78.26 seconds =       1.30 minutes
	system time =      70.73 seconds =       1.18 minutes
	total time  =         15 seconds =       0.25 minutes

*** tstart() called on Joses-MacBook-Pro-2.local
*** at Wed Jul 16 19:09:44 2025

         ------------------------------------------------------------
                                   SCF GRAD
                          Rob Parrish, Justin Turney,
                       Andy Simmonett, and Alex Sokolov
         ------------------------------------------------------------

  ==> Geometry <==

    Molecular point group: c2v
    Full point group: C_inf_v

    Geometry (in Angstrom), charge = 0, multiplicity = 3:

       Center              X                  Y                   Z               Mass
    ------------   -----------------  -----------------  -----------------  -----------------
         N            0.000000000000     0.000000000000     1.282251477598    14.003074004430
         NA           0.000000000000     0.000000000000    -0.781019683706    22.989769282000

  Nuclear repulsion =   19.748565281081206

  ==> Basis Set <==

  Basis Set: CC-PVDZ
    Blend: CC-PVDZ
    Number of shells: 14
    Number of basis functions: 32
    Number of Cartesian functions: 34
    Spherical Harmonics?: true
    Max angular momentum: 2

  ==> DFJKGrad: Density-Fitted SCF Gradients <==

    Gradient:                    1
    J tasked:                  Yes
    K tasked:                  Yes
    wK tasked:                  No
    OpenMP threads:              1
    Integrals threads:           1
    Memory [MiB]:              375
    Schwarz Cutoff:          1E-12
    Fitting Condition:       1E-10

   => Auxiliary Basis Set <=

  Basis Set: (CC-PVDZ AUX)
    Blend: CC-PVDZ-JKFIT + DEF2-UNIVERSAL-JKFIT
    Number of shells: 58
    Number of basis functions: 182
    Number of Cartesian functions: 218
    Spherical Harmonics?: true
    Max angular momentum: 4

  ==> DFT Potential <==

   => LibXC <=

    Version 6.2.2
    S. Lehtola, C. Steigemann, M. J.T. Oliveira, and M. A.L. Marques.,  SoftwareX 7, 1â€“5 (2018) (10.1016/j.softx.2017.11.002)

   => Composite Functional: B3LYP <=

    B3LYP Hyb-GGA Exchange-Correlation Functional

    P. J. Stephens, F. J. Devlin, C. F. Chabalowski, and M. J. Frisch.,  J. Phys. Chem. 98, 11623 (1994) (10.1021/j100096a001)

    Deriv               =              1
    GGA                 =           TRUE
    Meta                =          FALSE

    Exchange Hybrid     =           TRUE
    MP2 Hybrid          =          FALSE

   => Exchange Functionals <=

    0.0800   Slater exchange
    0.7200         Becke 88

   => Exact (HF) Exchange <=

    0.2000               HF

   => Correlation Functionals <=

    0.1900   Vosko, Wilk & Nusair (VWN5_RPA)
    0.8100   Lee, Yang & Parr

   => LibXC Density Thresholds  <==

    XC_HYB_GGA_XC_B3LYP:  1.00E-15

   => Molecular Quadrature <=

    Radial Scheme          =       TREUTLER
    Pruning Scheme         =           NONE
    Nuclear Scheme         =       TREUTLER

    Blocking Scheme        =         OCTREE
    BS radius alpha        =              1
    Pruning alpha          =              1
    Radial Points          =             75
    Spherical Points       =            302
    Total Points           =          43778
    Total Blocks           =            425
    Max Points             =            256
    Max Functions          =             32
    Weights Tolerance      =       1.00E-15

  -Total Gradient:
     Atom            X                  Y                   Z
    ------   -----------------  -----------------  -----------------
       1        0.000000000000    -0.000000000000    -0.000107087193
       2        0.000000000000    -0.000000000000     0.000065939139

*** tstop() called on Joses-MacBook-Pro-2.local at Wed Jul 16 19:09:45 2025
Module time:
	user time   =       1.65 seconds =       0.03 minutes
	system time =       1.66 seconds =       0.03 minutes
	total time  =          1 seconds =       0.02 minutes
Total time:
	user time   =      79.91 seconds =       1.33 minutes
	system time =      72.40 seconds =       1.21 minutes
	total time  =         16 seconds =       0.27 minutes

    			-----------------------------------------

    			 OPTKING 3.0: for geometry optimizations

    			     By R.A. King, Bethel University

    			        with contributions from

    			    A.V. Copan, J. Cayton, A. Heide

    			-----------------------------------------

	                            ===> Fragment 1 <==

	 Z (Atomic Numbers)          Masses                          Geom
	       7.000000            14.003074          0.00000000  0.00000000  2.42310412
	      11.000000            22.989769          0.00000000  0.00000000 -1.47591330

	 - Coordinate -           - BOHR/RAD -       - ANG/DEG -
	 R(1,2)           =         3.899017           2.063271

	        --- Internal Coordinate Step in ANG or DEG, aJ/ANG or AJ/DEG ---
	-------------------------------------------------------------------------------
	           Coordinate      Previous         Force          Change          New
	           ----------      --------        ------          ------        ------
	               R(1,2)       2.06327        0.00071        0.00050       2.06377
	-------------------------------------------------------------------------------

	                                 ==> Convergence Check <==

	Measures of convergence in internal coordinates in au.

	Criteria marked as inactive (o), active & met (*), and active & unmet ( ).

	----------------------------------------------------------------------------------------------
	   Step    Total Energy     Delta E     Max Force     RMS Force      Max Disp      RMS Disp
	----------------------------------------------------------------------------------------------
	  Convergence Criteria     1.00e-06 *    3.00e-04 *             o    1.20e-03 *             o
	----------------------------------------------------------------------------------------------
	    12    -216.90095883   -8.78e-07 *    8.65e-05 *    8.65e-05 o    9.42e-04 *    9.42e-04 o  ~
	----------------------------------------------------------------------------------------------

Next Geometry in Ang
	Fragment 1 (Ang)

	    N   0.0000000000   0.0000000000   1.2825006307
	   Na   0.0000000000   0.0000000000  -0.7812688368

    Final optimized geometry and variables:
    Molecular point group: c2v
    Full point group: C_inf_v

    Geometry (in Angstrom), charge = 0, multiplicity = 3:

    N            0.000000000000     0.000000000000     1.282251477598
    NA           0.000000000000     0.000000000000    -0.781019683706

    Psi4 stopped on: Wednesday, 16 July 2025 07:09PM
    Psi4 wall time for execution: 0:00:16.48

*** Psi4 exiting successfully. Buy a developer a beer!
