                               Psi4 1.9.1 release

  ==> Input File <==

--------------------------------------------------------------------------
molecule {
0 3
O   0.00000        0.60000        0.00000
Ar   0.00000       -0.60000        0.00000
}

set {
basis              cc-pvdz
reference          uks
maxiter            500
geom_maxiter       500
DAMPING_PERCENTAGE 1
guess              SAP
}

optimize('b3lyp')
--------------------------------------------------------------------------

    Molecular point group: c2v
  Charge       = 0
  Multiplicity = 3
  Basis Set: CC-PVDZ
    Blend: CC-PVDZ
  Basis Set: (CC-PVDZ AUX)
    Blend: CC-PVDZ-JKFIT
  @DF-UKS Final Energy:  -601.99568611565167
    Total Energy =                       -601.9956861156516652
 Dipole X            :          0.0000000            0.0000000            0.0000000
 Dipole Y            :          0.0000000            0.0000000            0.0000000
 Dipole Z            :         -1.4498796            1.2883152           -0.1615645
 Magnitude           :                                                    0.1615645
    Molecular point group: c2v
  Basis Set: CC-PVDZ
    Blend: CC-PVDZ
  Basis Set: (CC-PVDZ AUX)
    Blend: CC-PVDZ-JKFIT
  Basis Set: CC-PVDZ
    Blend: CC-PVDZ
  Basis Set: (CC-PVDZ AUX)
    Blend: CC-PVDZ-JKFIT
  @DF-UKS Final Energy:  -602.20258928377041
    Total Energy =                       -602.2025892837704077
  Basis Set: CC-PVDZ
    Blend: CC-PVDZ
  Basis Set: (CC-PVDZ AUX)
    Blend: CC-PVDZ-JKFIT
  Basis Set: CC-PVDZ
    Blend: CC-PVDZ
  @DF-UKS Final Energy:  -602.36143695796954
    Total Energy =                       -602.3614369579695449
  @DF-UKS Final Energy:  -602.48057461371184
    Total Energy =                       -602.4805746137117239
  @DF-UKS Final Energy:  -602.55142447187654
    Total Energy =                       -602.5514244718765440
  @DF-UKS Final Energy:  -602.58218172136992
    Total Energy =                       -602.5821817213699205
  @DF-UKS Final Energy:  -602.59731047150547
    Total Energy =                       -602.5973104715054660
  @DF-UKS Final Energy:  -602.60458527657761
    Total Energy =                       -602.6045852765776090
  @DF-UKS Final Energy:  -602.60807643386647
    Total Energy =                       -602.6080764338664721
  @DF-UKS Final Energy:  -602.60972616240463
    Total Energy =                       -602.6097261624046268
  @DF-UKS Final Energy:  -602.61048748890232
    Total Energy =                       -602.6104874889024359
  @DF-UKS Final Energy:  -602.61082216436193
    Total Energy =                       -602.6108221643619345
  @DF-UKS Final Energy:  -602.61092909232627
    Total Energy =                       -602.6109290923261597
  @DF-UKS Final Energy:  -602.61098430269419
    Total Energy =                       -602.6109843026941917
  @DF-UKS Final Energy:  -602.61100562455317
    Total Energy =                       -602.6110056245531723
  @DF-UKS Final Energy:  -602.61101012747747
    Total Energy =                       -602.6110101274775843
  Basis Set: (CC-PVDZ AUX)
    Blend: CC-PVDZ-JKFIT
  Basis Set: CC-PVDZ
    Blend: CC-PVDZ
  Basis Set: (CC-PVDZ AUX)
    Blend: CC-PVDZ-JKFIT
  @DF-UKS Final Energy:  -602.61101120082606
    Total Energy =                       -602.6110112008261694
  Basis Set: CC-PVDZ
    Blend: CC-PVDZ
  Basis Set: (CC-PVDZ AUX)
    Blend: CC-PVDZ-JKFIT
  Charge       = 0
  Multiplicity = 3
  Basis Set: CC-PVDZ
    Blend: CC-PVDZ
  Basis Set: (CC-PVDZ AUX)
    Blend: CC-PVDZ-JKFIT

    Orbital Energies [Eh]
    ---------------------

    Alpha Occupied:

       1A1  -115.100546     2A1   -19.271687     3A1   -11.136631
       4A1    -8.686633     1B1    -8.686466     1B2    -8.686445
       5A1    -1.002549     6A1    -0.964873     7A1    -0.445381
       2B1    -0.440720     2B2    -0.422258     3B1    -0.422246
       8A1    -0.417880     3B2    -0.363816

    Alpha Virtual:

       9A1     0.554261     4B1     0.580493     4B2     0.581137
      10A1     0.710037     5B1     0.820035    11A1     0.827511
       5B2     0.834797    12A1     0.835587     1A2     0.835588
       6B1     0.836070     6B2     0.868906    13A1     0.894848
      14A1     1.099261     7B1     2.442937    15A1     2.443844
       2A2     2.501202     7B2     2.501370    16A1     2.522170

    Beta Occupied:

       1A1  -115.100465     2A1   -19.221891     3A1   -11.136553
       1B1    -8.686408     4A1    -8.686408     1B2    -8.686392
       5A1    -0.964610     6A1    -0.844519     7A1    -0.422865
       2B1    -0.422290     2B2    -0.422132     3B2    -0.312429

    Beta Virtual:

       8A1    -0.159508     3B1    -0.159188     9A1     0.567305
       4B1     0.580976     4B2     0.581194    10A1     0.716534
      11A1     0.832351     5B1     0.835348     5B2     0.835378
      12A1     0.835681     1A2     0.835682     6B2     0.898393
       6B1     0.934847    13A1     0.987875    14A1     1.178099
       7B2     2.592012     2A2     2.592051    15A1     2.599502
       7B1     2.616362    16A1     2.617175

    Final Occupation by Irrep:
             A1    A2    B1    B2
    DOCC [     7,    0,    2,    3 ]
    SOCC [     1,    0,    1,    0 ]
    NA   [     8,    0,    3,    3 ]
    NB   [     7,    0,    2,    3 ]

  @DF-UKS Final Energy:  -602.61101147482543

   => Energetics <=

    Nuclear Repulsion Energy =             23.5584618977353628
    One-Electron Energy =                -878.7856861688171648
    Two-Electron Energy =                 284.3593372701809585
    DFT Exchange-Correlation Energy =     -31.7431244739245386
    Empirical Dispersion Energy =           0.0000000000000000
    VV10 Nonlocal Energy =                  0.0000000000000000
    Total Energy =                       -602.6110114748254318

  UHF NO Occupations:
  HONO-2 :    7 A1 1.9992912
  HONO-1 :    3 B1 1.0000000
  HONO-0 :    8 A1 1.0000000
  LUNO+0 :    9 A1 0.0007088
  LUNO+1 :    4 B2 0.0002407
  LUNO+2 :   10 A1 0.0000056
  LUNO+3 :    4 B1 0.0000001

Computation Completed

Properties will be evaluated at   0.000000,   0.000000,   0.000000 [a0]

Properties computed using the SCF density matrix

 Multipole Moments:

 ------------------------------------------------------------------------------------
     Multipole            Electronic (a.u.)      Nuclear  (a.u.)        Total (a.u.)
 ------------------------------------------------------------------------------------

 L = 1.  Multiply by 2.5417464519 to convert [e a0] to [Debye]
 Dipole X            :          0.0000000            0.0000000            0.0000000
 Dipole Y            :          0.0000000            0.0000000            0.0000000
 Dipole Z            :         -3.4924139            3.4726225           -0.0197913
 Magnitude           :                                                    0.0197913

 ------------------------------------------------------------------------------------

*** tstop() called on Joses-MacBook-Pro-2.local at Wed Jul 16 19:24:36 2025
Module time:
	user time   =       2.56 seconds =       0.04 minutes
	system time =       2.25 seconds =       0.04 minutes
	total time  =          1 seconds =       0.02 minutes
Total time:
	user time   =      85.77 seconds =       1.43 minutes
	system time =      88.49 seconds =       1.47 minutes
	total time  =         17 seconds =       0.28 minutes

*** tstart() called on Joses-MacBook-Pro-2.local
*** at Wed Jul 16 19:24:36 2025

         ------------------------------------------------------------
                                   SCF GRAD
                          Rob Parrish, Justin Turney,
                       Andy Simmonett, and Alex Sokolov
         ------------------------------------------------------------

  ==> Geometry <==

    Molecular point group: c2v
    Full point group: C_inf_v

    Geometry (in Angstrom), charge = 0, multiplicity = 3:

       Center              X                  Y                   Z               Mass
    ------------   -----------------  -----------------  -----------------  -----------------
         O            0.000000000000     0.000000000000     2.309996584986    15.994914619570
         AR           0.000000000000     0.000000000000    -0.924574443771    39.962383123700

  Nuclear repulsion =   23.558461897735363

  ==> Basis Set <==

  Basis Set: CC-PVDZ
    Blend: CC-PVDZ
    Number of shells: 14
    Number of basis functions: 32
    Number of Cartesian functions: 34
    Spherical Harmonics?: true
    Max angular momentum: 2

  ==> DFJKGrad: Density-Fitted SCF Gradients <==

    Gradient:                    1
    J tasked:                  Yes
    K tasked:                  Yes
    wK tasked:                  No
    OpenMP threads:              1
    Integrals threads:           1
    Memory [MiB]:              375
    Schwarz Cutoff:          1E-12
    Fitting Condition:       1E-10

   => Auxiliary Basis Set <=

  Basis Set: (CC-PVDZ AUX)
    Blend: CC-PVDZ-JKFIT
    Number of shells: 60
    Number of basis functions: 182
    Number of Cartesian functions: 211
    Spherical Harmonics?: true
    Max angular momentum: 3

  ==> DFT Potential <==

   => LibXC <=

    Version 6.2.2
    S. Lehtola, C. Steigemann, M. J.T. Oliveira, and M. A.L. Marques.,  SoftwareX 7, 1â€“5 (2018) (10.1016/j.softx.2017.11.002)

   => Composite Functional: B3LYP <=

    B3LYP Hyb-GGA Exchange-Correlation Functional

    P. J. Stephens, F. J. Devlin, C. F. Chabalowski, and M. J. Frisch.,  J. Phys. Chem. 98, 11623 (1994) (10.1021/j100096a001)

    Deriv               =              1
    GGA                 =           TRUE
    Meta                =          FALSE

    Exchange Hybrid     =           TRUE
    MP2 Hybrid          =          FALSE

   => Exchange Functionals <=

    0.0800   Slater exchange
    0.7200         Becke 88

   => Exact (HF) Exchange <=

    0.2000               HF

   => Correlation Functionals <=

    0.1900   Vosko, Wilk & Nusair (VWN5_RPA)
    0.8100   Lee, Yang & Parr

   => LibXC Density Thresholds  <==

    XC_HYB_GGA_XC_B3LYP:  1.00E-15

   => Molecular Quadrature <=

    Radial Scheme          =       TREUTLER
    Pruning Scheme         =           NONE
    Nuclear Scheme         =       TREUTLER

    Blocking Scheme        =         OCTREE
    BS radius alpha        =              1
    Pruning alpha          =              1
    Radial Points          =             75
    Spherical Points       =            302
    Total Points           =          41193
    Total Blocks           =            373
    Max Points             =            254
    Max Functions          =             32
    Weights Tolerance      =       1.00E-15

  -Total Gradient:
     Atom            X                  Y                   Z
    ------   -----------------  -----------------  -----------------
       1        0.000000000000     0.000000000000    -0.000014435973
       2        0.000000000000    -0.000000000000     0.000011244419

*** tstop() called on Joses-MacBook-Pro-2.local at Wed Jul 16 19:24:36 2025
Module time:
	user time   =       0.79 seconds =       0.01 minutes
	system time =       1.36 seconds =       0.02 minutes
	total time  =          0 seconds =       0.00 minutes
Total time:
	user time   =      86.58 seconds =       1.44 minutes
	system time =      89.85 seconds =       1.50 minutes
	total time  =         17 seconds =       0.28 minutes

    			-----------------------------------------

    			 OPTKING 3.0: for geometry optimizations

    			     By R.A. King, Bethel University

    			        with contributions from

    			    A.V. Copan, J. Cayton, A. Heide

    			-----------------------------------------

	                            ===> Fragment 1 <==

	 Z (Atomic Numbers)          Masses                          Geom
	       8.000000            15.994915          0.00000000  0.00000000  4.36526090
	      18.000000            39.962383          0.00000000  0.00000000 -1.74719248

	 - Coordinate -           - BOHR/RAD -       - ANG/DEG -
	 R(1,2)           =         6.112453           3.234571

	        --- Internal Coordinate Step in ANG or DEG, aJ/ANG or AJ/DEG ---
	-------------------------------------------------------------------------------
	           Coordinate      Previous         Force          Change          New
	           ----------      --------        ------          ------        ------
	               R(1,2)       3.23457        0.00011        0.00566       3.24023
	-------------------------------------------------------------------------------

	                                 ==> Convergence Check <==

	Measures of convergence in internal coordinates in au.

	Criteria marked as inactive (o), active & met (*), and active & unmet ( ).

	----------------------------------------------------------------------------------------------
	   Step    Total Energy     Delta E     Max Force     RMS Force      Max Disp      RMS Disp
	----------------------------------------------------------------------------------------------
	  Convergence Criteria     1.00e-06 *    3.00e-04 *             o    1.20e-03 *             o
	----------------------------------------------------------------------------------------------
	    18    -602.61101147   -2.74e-07 *    1.28e-05 *    1.28e-05 o    1.07e-02      1.07e-02 o  ~
	----------------------------------------------------------------------------------------------

Next Geometry in Ang
	Fragment 1 (Ang)

	    O   0.0000000000   0.0000000000   2.3128254355
	   Ar   0.0000000000   0.0000000000  -0.9274032943

    Final optimized geometry and variables:
    Molecular point group: c2v
    Full point group: C_inf_v

    Geometry (in Angstrom), charge = 0, multiplicity = 3:

    O            0.000000000000     0.000000000000     2.309996584986
    AR           0.000000000000     0.000000000000    -0.924574443771

    Psi4 stopped on: Wednesday, 16 July 2025 07:24PM
    Psi4 wall time for execution: 0:00:17.52

*** Psi4 exiting successfully. Buy a developer a beer!
