                               Psi4 1.9.1 release

  ==> Input File <==

--------------------------------------------------------------------------
molecule {
0 3
Ar   0.00000        0.60000        0.00000
Ar   0.00000       -0.60000        0.00000
}

set {
basis              cc-pvdz
reference          uks
maxiter            500
geom_maxiter       500
DAMPING_PERCENTAGE 1
guess              SAP
}

optimize('b3lyp')
--------------------------------------------------------------------------

    Molecular point group: d2h
  Charge       = 0
  Multiplicity = 3
  Basis Set: CC-PVDZ
    Blend: CC-PVDZ
  Basis Set: (CC-PVDZ AUX)
    Blend: CC-PVDZ-JKFIT
  @DF-UKS Final Energy: -1052.87794025307653
    Total Energy =                      -1052.8779402530765310
 Dipole X            :          0.0000000            0.0000000            0.0000000
 Dipole Y            :          0.0000000            0.0000000            0.0000000
 Dipole Z            :          0.0000000            0.0000000            0.0000000
 Magnitude           :                                                    0.0000000
    Molecular point group: d2h
  Basis Set: CC-PVDZ
    Blend: CC-PVDZ
  Basis Set: (CC-PVDZ AUX)
    Blend: CC-PVDZ-JKFIT
  Basis Set: CC-PVDZ
    Blend: CC-PVDZ
  Basis Set: (CC-PVDZ AUX)
    Blend: CC-PVDZ-JKFIT
  @DF-UKS Final Energy: -1052.93020666434586
    Total Energy =                      -1052.9302066643458602
  Basis Set: CC-PVDZ
    Blend: CC-PVDZ
  Basis Set: (CC-PVDZ AUX)
    Blend: CC-PVDZ-JKFIT
  Basis Set: CC-PVDZ
    Blend: CC-PVDZ
  @DF-UKS Final Energy: -1053.02535065673646
    Total Energy =                      -1053.0253506567364639
  @DF-UKS Final Energy: -1053.32121246410816
    Total Energy =                      -1053.3212124641081573
  @DF-UKS Final Energy: -1053.82991752674047
    Total Energy =                      -1053.8299175267404735
  @DF-UKS Final Energy: -1054.01510988934683
    Total Energy =                      -1054.0151098893468316
  @DF-UKS Final Energy: -1054.12790421651835
    Total Energy =                      -1054.1279042165183455
  @DF-UKS Final Energy: -1054.16439610950624
    Total Energy =                      -1054.1643961095062423
  @DF-UKS Final Energy: -1054.17579654372844
    Total Energy =                      -1054.1757965437284383
  @DF-UKS Final Energy: -1054.17819507338868
    Total Energy =                      -1054.1781950733886788
  @DF-UKS Final Energy: -1054.17842124845060
    Total Energy =                      -1054.1784212484506043
  @DF-UKS Final Energy: -1054.17844474384219
    Total Energy =                      -1054.1784447438421921
  Basis Set: (CC-PVDZ AUX)
    Blend: CC-PVDZ-JKFIT
  Basis Set: CC-PVDZ
    Blend: CC-PVDZ
  Basis Set: (CC-PVDZ AUX)
    Blend: CC-PVDZ-JKFIT
  @DF-UKS Final Energy: -1054.17844745002299
    Total Energy =                      -1054.1784474500229862
  Basis Set: CC-PVDZ
    Blend: CC-PVDZ
  Basis Set: (CC-PVDZ AUX)
    Blend: CC-PVDZ-JKFIT
  Charge       = 0
  Multiplicity = 3
  Basis Set: CC-PVDZ
    Blend: CC-PVDZ
  Basis Set: (CC-PVDZ AUX)
    Blend: CC-PVDZ-JKFIT

    Orbital Energies [Eh]
    ---------------------

    Alpha Occupied:

       1B2u -115.145142     1Ag  -115.145142     2B2u  -11.170961
       2Ag   -11.170895     3Ag    -8.730971     3B2u   -8.730806
       1B3u   -8.718898     1B1u   -8.718898     1B1g   -8.718897
       1B3g   -8.718897     4Ag    -1.113487     4B2u   -0.946015
       5Ag    -0.601831     2B1u   -0.506879     2B3u   -0.506879
       2B3g   -0.405064     2B1g   -0.405064     5B2u   -0.285399
       6Ag     0.403336

    Alpha Virtual:

       6B2u    0.492562     3B1u    0.529010     3B3u    0.529010
       3B3g    0.599654     3B1g    0.599654     7Ag     0.664725
       4B3u    0.672912     4B1u    0.672912     8Ag     0.781692
       1B2g    0.781692     7B2u    0.828750     1Au     0.828751
       8B2u    0.830843     9Ag     0.858831     4B1g    1.010603
       4B3g    1.010603     9B2u    1.527040

    Beta Occupied:

       1Ag  -115.139145     1B2u -115.139145     2B2u  -11.164653
       2Ag   -11.164599     1B3u   -8.714933     1B1u   -8.714933
       1B1g   -8.714927     1B3g   -8.714927     3Ag    -8.712774
       3B2u   -8.712656     4Ag    -1.062145     4B2u   -0.905215
       5Ag    -0.524409     2B1u   -0.484640     2B3u   -0.484640
       2B3g   -0.384584     2B1g   -0.384584

    Beta Virtual:

       5B2u   -0.141086     6Ag     0.534485     6B2u    0.540073
       3B1u    0.540124     3B3u    0.540124     3B3g    0.614945
       3B1g    0.614945     7Ag     0.693211     4B3u    0.706912
       4B1u    0.706912     8Ag     0.799558     1B2g    0.799558
       7B2u    0.846786     1Au     0.846787     8B2u    0.887786
       9Ag     0.902883     4B1g    1.043183     4B3g    1.043183
       9B2u    1.575034

    Final Occupation by Irrep:
             Ag   B1g   B2g   B3g    Au   B1u   B2u   B3u
    DOCC [     5,    2,    0,    2,    0,    2,    4,    2 ]
    SOCC [     1,    0,    0,    0,    0,    0,    1,    0 ]
    NA   [     6,    2,    0,    2,    0,    2,    5,    2 ]
    NB   [     5,    2,    0,    2,    0,    2,    4,    2 ]

  @DF-UKS Final Energy: -1054.17844756350860

   => Energetics <=

    Nuclear Repulsion Energy =             90.7313797148981678
    One-Electron Energy =               -1635.9606087974941602
    Two-Electron Energy =                 540.9205263471093303
    DFT Exchange-Correlation Energy =     -49.8697448280219149
    Empirical Dispersion Energy =           0.0000000000000000
    VV10 Nonlocal Energy =                  0.0000000000000000
    Total Energy =                      -1054.1784475635085983

  UHF NO Occupations:
  HONO-2 :    5 Ag 1.9997337
  HONO-1 :    6 Ag 1.0000000
  HONO-0 :    5B2u 1.0000000
  LUNO+0 :    7 Ag 0.0002663
  LUNO+1 :    6B2u 0.0002073
  LUNO+2 :    3B1g 0.0000589
  LUNO+3 :    3B3g 0.0000589

Computation Completed

Properties will be evaluated at   0.000000,   0.000000,   0.000000 [a0]

Properties computed using the SCF density matrix

 Multipole Moments:

 ------------------------------------------------------------------------------------
     Multipole            Electronic (a.u.)      Nuclear  (a.u.)        Total (a.u.)
 ------------------------------------------------------------------------------------

 L = 1.  Multiply by 2.5417464519 to convert [e a0] to [Debye]
 Dipole X            :          0.0000000            0.0000000            0.0000000
 Dipole Y            :          0.0000000            0.0000000            0.0000000
 Dipole Z            :          0.0000000            0.0000000            0.0000000
 Magnitude           :                                                    0.0000000

 ------------------------------------------------------------------------------------

*** tstop() called on Joses-MacBook-Pro-2.local at Wed Jul 16 20:35:02 2025
Module time:
	user time   =       6.98 seconds =       0.12 minutes
	system time =       2.30 seconds =       0.04 minutes
	total time  =          1 seconds =       0.02 minutes
Total time:
	user time   =     136.39 seconds =       2.27 minutes
	system time =      45.40 seconds =       0.76 minutes
	total time  =         17 seconds =       0.28 minutes

*** tstart() called on Joses-MacBook-Pro-2.local
*** at Wed Jul 16 20:35:02 2025

         ------------------------------------------------------------
                                   SCF GRAD
                          Rob Parrish, Justin Turney,
                       Andy Simmonett, and Alex Sokolov
         ------------------------------------------------------------

  ==> Geometry <==

    Molecular point group: d2h
    Full point group: D_inf_h

    Geometry (in Angstrom), charge = 0, multiplicity = 3:

       Center              X                  Y                   Z               Mass
    ------------   -----------------  -----------------  -----------------  -----------------
         AR          -0.000000000000     0.944840786042     0.000000000000    39.962383123700
         AR           0.000000000000    -0.944840786042     0.000000000000    39.962383123700

  Nuclear repulsion =   90.731379714898168

  ==> Basis Set <==

  Basis Set: CC-PVDZ
    Blend: CC-PVDZ
    Number of shells: 16
    Number of basis functions: 36
    Number of Cartesian functions: 38
    Spherical Harmonics?: true
    Max angular momentum: 2

  ==> DFJKGrad: Density-Fitted SCF Gradients <==

    Gradient:                    1
    J tasked:                  Yes
    K tasked:                  Yes
    wK tasked:                  No
    OpenMP threads:              1
    Integrals threads:           1
    Memory [MiB]:              375
    Schwarz Cutoff:          1E-12
    Fitting Condition:       1E-10

   => Auxiliary Basis Set <=

  Basis Set: (CC-PVDZ AUX)
    Blend: CC-PVDZ-JKFIT
    Number of shells: 72
    Number of basis functions: 224
    Number of Cartesian functions: 260
    Spherical Harmonics?: true
    Max angular momentum: 3

  ==> DFT Potential <==

   => LibXC <=

    Version 6.2.2
    S. Lehtola, C. Steigemann, M. J.T. Oliveira, and M. A.L. Marques.,  SoftwareX 7, 1â€“5 (2018) (10.1016/j.softx.2017.11.002)

   => Composite Functional: B3LYP <=

    B3LYP Hyb-GGA Exchange-Correlation Functional

    P. J. Stephens, F. J. Devlin, C. F. Chabalowski, and M. J. Frisch.,  J. Phys. Chem. 98, 11623 (1994) (10.1021/j100096a001)

    Deriv               =              1
    GGA                 =           TRUE
    Meta                =          FALSE

    Exchange Hybrid     =           TRUE
    MP2 Hybrid          =          FALSE

   => Exchange Functionals <=

    0.0800   Slater exchange
    0.7200         Becke 88

   => Exact (HF) Exchange <=

    0.2000               HF

   => Correlation Functionals <=

    0.1900   Vosko, Wilk & Nusair (VWN5_RPA)
    0.8100   Lee, Yang & Parr

   => LibXC Density Thresholds  <==

    XC_HYB_GGA_XC_B3LYP:  1.00E-15

   => Molecular Quadrature <=

    Radial Scheme          =       TREUTLER
    Pruning Scheme         =           NONE
    Nuclear Scheme         =       TREUTLER

    Blocking Scheme        =         OCTREE
    BS radius alpha        =              1
    Pruning alpha          =              1
    Radial Points          =             75
    Spherical Points       =            302
    Total Points           =          39090
    Total Blocks           =            364
    Max Points             =            256
    Max Functions          =             36
    Weights Tolerance      =       1.00E-15

  -Total Gradient:
     Atom            X                  Y                   Z
    ------   -----------------  -----------------  -----------------
       1        0.000000000000    -0.000037601694     0.000000000000
       2       -0.000000000000     0.000037601694     0.000000000000

*** tstop() called on Joses-MacBook-Pro-2.local at Wed Jul 16 20:35:03 2025
Module time:
	user time   =       2.31 seconds =       0.04 minutes
	system time =       1.22 seconds =       0.02 minutes
	total time  =          1 seconds =       0.02 minutes
Total time:
	user time   =     138.71 seconds =       2.31 minutes
	system time =      46.62 seconds =       0.78 minutes
	total time  =         18 seconds =       0.30 minutes

    			-----------------------------------------

    			 OPTKING 3.0: for geometry optimizations

    			     By R.A. King, Bethel University

    			        with contributions from

    			    A.V. Copan, J. Cayton, A. Heide

    			-----------------------------------------

	                            ===> Fragment 1 <==

	 Z (Atomic Numbers)          Masses                          Geom
	      18.000000            39.962383         -0.00000000  1.78549032  0.00000000
	      18.000000            39.962383          0.00000000 -1.78549032  0.00000000

	 - Coordinate -           - BOHR/RAD -       - ANG/DEG -
	 R(1,2)           =         3.570981           1.889682

	        --- Internal Coordinate Step in ANG or DEG, aJ/ANG or AJ/DEG ---
	-------------------------------------------------------------------------------
	           Coordinate      Previous         Force          Change          New
	           ----------      --------        ------          ------        ------
	               R(1,2)       1.88968        0.00031        0.00004       1.88972
	-------------------------------------------------------------------------------

	                                 ==> Convergence Check <==

	Measures of convergence in internal coordinates in au.

	Criteria marked as inactive (o), active & met (*), and active & unmet ( ).

	----------------------------------------------------------------------------------------------
	   Step    Total Energy     Delta E     Max Force     RMS Force      Max Disp      RMS Disp
	----------------------------------------------------------------------------------------------
	  Convergence Criteria     1.00e-06 *    3.00e-04 *             o    1.20e-03 *             o
	----------------------------------------------------------------------------------------------
	    14   -1054.17844756   -1.13e-07 *    3.76e-05 *    3.76e-05 o    6.80e-05 *    6.80e-05 o  ~
	----------------------------------------------------------------------------------------------

Next Geometry in Ang
	Fragment 1 (Ang)

	   Ar  -0.0000000000   0.9448587766   0.0000000000
	   Ar   0.0000000000  -0.9448587766   0.0000000000

    Final optimized geometry and variables:
    Molecular point group: d2h
    Full point group: D_inf_h

    Geometry (in Angstrom), charge = 0, multiplicity = 3:

    AR          -0.000000000000     0.944840786042     0.000000000000
    AR           0.000000000000    -0.944840786042     0.000000000000

    Psi4 stopped on: Wednesday, 16 July 2025 08:35PM
    Psi4 wall time for execution: 0:00:18.07

*** Psi4 exiting successfully. Buy a developer a beer!
