                               Psi4 1.9.1 release

  ==> Input File <==

--------------------------------------------------------------------------
molecule {
0 3
B   0.00000        0.60000        0.00000
Al   0.00000       -0.60000        0.00000
}

set {
basis              cc-pvdz
reference          uks
maxiter            500
geom_maxiter       500
DAMPING_PERCENTAGE 1
guess              SAP
}

optimize('b3lyp')
--------------------------------------------------------------------------

    Molecular point group: c2v
  Charge       = 0
  Multiplicity = 3
  Basis Set: CC-PVDZ
    Blend: CC-PVDZ
  Basis Set: (CC-PVDZ AUX)
    Blend: CC-PVDZ-JKFIT
  @DF-UKS Final Energy:  -266.60110330400363
    Total Energy =                       -266.6011033040036295
 Dipole X            :          0.0000000            0.0000000            0.0000000
 Dipole Y            :          0.0000000            0.0000000            0.0000000
 Dipole Z            :         -0.1744671           -0.4902500           -0.6647172
 Magnitude           :                                                    0.6647172
    Molecular point group: c2v
  Basis Set: CC-PVDZ
    Blend: CC-PVDZ
  Basis Set: (CC-PVDZ AUX)
    Blend: CC-PVDZ-JKFIT
  Basis Set: CC-PVDZ
    Blend: CC-PVDZ
  Basis Set: (CC-PVDZ AUX)
    Blend: CC-PVDZ-JKFIT
  @DF-UKS Final Energy:  -266.77400585834778
    Total Energy =                       -266.7740058583477776
  Basis Set: CC-PVDZ
    Blend: CC-PVDZ
  Basis Set: (CC-PVDZ AUX)
    Blend: CC-PVDZ-JKFIT
  Basis Set: CC-PVDZ
    Blend: CC-PVDZ
  @DF-UKS Final Energy:  -266.91141273230903
    Total Energy =                       -266.9114127323090315
  @DF-UKS Final Energy:  -267.04422233611655
    Total Energy =                       -267.0442223361165475
  @DF-UKS Final Energy:  -267.09893506891854
    Total Energy =                       -267.0989350689185358
  @DF-UKS Final Energy:  -267.10691074846784
    Total Energy =                       -267.1069107484678398
  @DF-UKS Final Energy:  -267.10982929193796
    Total Energy =                       -267.1098292919379560
  @DF-UKS Final Energy:  -267.11017264850705
    Total Energy =                       -267.1101726485070458
  @DF-UKS Final Energy:  -267.11021831949796
    Total Energy =                       -267.1102183194979602
  Basis Set: (CC-PVDZ AUX)
    Blend: CC-PVDZ-JKFIT
  Basis Set: CC-PVDZ
    Blend: CC-PVDZ
  Basis Set: (CC-PVDZ AUX)
    Blend: CC-PVDZ-JKFIT
  @DF-UKS Final Energy:  -267.11022477489280
    Total Energy =                       -267.1102247748927994
  Basis Set: CC-PVDZ
    Blend: CC-PVDZ
  Basis Set: (CC-PVDZ AUX)
    Blend: CC-PVDZ-JKFIT
  Charge       = 0
  Multiplicity = 3
  Basis Set: CC-PVDZ
    Blend: CC-PVDZ
  Basis Set: (CC-PVDZ AUX)
    Blend: CC-PVDZ-JKFIT

    Orbital Energies [Eh]
    ---------------------

    Alpha Occupied:

       1A1   -56.085485     2A1    -6.818598     3A1    -4.165451
       1B1    -2.718482     1B2    -2.718482     4A1    -2.716693
       5A1    -0.460014     6A1    -0.281636     2B2    -0.196408
       2B1    -0.196408

    Alpha Virtual:

       7A1    -0.130277     3B2    -0.042852     3B1    -0.042852
       8A1     0.048903     9A1     0.164166     4B2     0.204344
       4B1     0.204344    10A1     0.247739     1A2     0.248304
      11A1     0.248304    12A1     0.262425     5B1     0.308640
       5B2     0.308640     6B2     0.319464     6B1     0.319464
      13A1     0.551015    14A1     0.602662     2A2     0.708639
      15A1     0.708639     7B2     0.862555     7B1     0.862555
      16A1     1.076552

    Beta Occupied:

       1A1   -56.084475     2A1    -6.805845     3A1    -4.164224
       4A1    -2.717282     1B1    -2.715480     1B2    -2.715480
       5A1    -0.407367     6A1    -0.256889

    Beta Virtual:

       7A1    -0.110777     2B1    -0.098670     2B2    -0.098670
       3B2    -0.003615     3B1    -0.003615     8A1     0.058856
       9A1     0.167861     4B2     0.218781     4B1     0.218781
      10A1     0.257058     1A2     0.274782    11A1     0.274783
      12A1     0.276291     5B2     0.324190     5B1     0.324190
       6B2     0.360194     6B1     0.360194    13A1     0.574937
      14A1     0.624886    15A1     0.774900     2A2     0.774900
       7B1     0.903264     7B2     0.903264    16A1     1.104331

    Final Occupation by Irrep:
             A1    A2    B1    B2
    DOCC [     6,    0,    1,    1 ]
    SOCC [     0,    0,    1,    1 ]
    NA   [     6,    0,    2,    2 ]
    NB   [     6,    0,    1,    1 ]

  @DF-UKS Final Energy:  -267.11022581126036

   => Energetics <=

    Nuclear Repulsion Energy =             16.6855278077507307
    One-Electron Energy =                -402.3719114415071090
    Two-Electron Energy =                 136.7515682635248879
    DFT Exchange-Correlation Energy =     -18.1754104410289123
    Empirical Dispersion Energy =           0.0000000000000000
    VV10 Nonlocal Energy =                  0.0000000000000000
    Total Energy =                       -267.1102258112603636

  UHF NO Occupations:
  HONO-2 :    6 A1 1.9705259
  HONO-1 :    2 B2 1.0000000
  HONO-0 :    2 B1 1.0000000
  LUNO+0 :    7 A1 0.0294741
  LUNO+1 :    8 A1 0.0006454
  LUNO+2 :    9 A1 0.0000003
  LUNO+3 :    3 B1 0.0000001

Computation Completed

Properties will be evaluated at   0.000000,   0.000000,   0.000000 [a0]

Properties computed using the SCF density matrix

 Multipole Moments:

 ------------------------------------------------------------------------------------
     Multipole            Electronic (a.u.)      Nuclear  (a.u.)        Total (a.u.)
 ------------------------------------------------------------------------------------

 L = 1.  Multiply by 2.5417464519 to convert [e a0] to [Debye]
 Dipole X            :          0.0000000            0.0000000            0.0000000
 Dipole Y            :          0.0000000            0.0000000            0.0000000
 Dipole Z            :          0.1733869           -0.8421917           -0.6688048
 Magnitude           :                                                    0.6688048

 ------------------------------------------------------------------------------------

*** tstop() called on Joses-MacBook-Pro-2.local at Wed Jul 16 18:54:22 2025
Module time:
	user time   =       2.86 seconds =       0.05 minutes
	system time =       4.07 seconds =       0.07 minutes
	total time  =          1 seconds =       0.02 minutes
Total time:
	user time   =      56.90 seconds =       0.95 minutes
	system time =      75.91 seconds =       1.27 minutes
	total time  =         15 seconds =       0.25 minutes

*** tstart() called on Joses-MacBook-Pro-2.local
*** at Wed Jul 16 18:54:22 2025

         ------------------------------------------------------------
                                   SCF GRAD
                          Rob Parrish, Justin Turney,
                       Andy Simmonett, and Alex Sokolov
         ------------------------------------------------------------

  ==> Geometry <==

    Molecular point group: c2v
    Full point group: C_inf_v

    Geometry (in Angstrom), charge = 0, multiplicity = 3:

       Center              X                  Y                   Z               Mass
    ------------   -----------------  -----------------  -----------------  -----------------
         B            0.000000000000     0.000000000000     1.464071578373    11.009305360000
         AL           0.000000000000     0.000000000000    -0.597386655964    26.981538530000

  Nuclear repulsion =   16.685527807750731

  ==> Basis Set <==

  Basis Set: CC-PVDZ
    Blend: CC-PVDZ
    Number of shells: 14
    Number of basis functions: 32
    Number of Cartesian functions: 34
    Spherical Harmonics?: true
    Max angular momentum: 2

  ==> DFJKGrad: Density-Fitted SCF Gradients <==

    Gradient:                    1
    J tasked:                  Yes
    K tasked:                  Yes
    wK tasked:                  No
    OpenMP threads:              1
    Integrals threads:           1
    Memory [MiB]:              375
    Schwarz Cutoff:          1E-12
    Fitting Condition:       1E-10

   => Auxiliary Basis Set <=

  Basis Set: (CC-PVDZ AUX)
    Blend: CC-PVDZ-JKFIT
    Number of shells: 60
    Number of basis functions: 182
    Number of Cartesian functions: 211
    Spherical Harmonics?: true
    Max angular momentum: 3

  ==> DFT Potential <==

   => LibXC <=

    Version 6.2.2
    S. Lehtola, C. Steigemann, M. J.T. Oliveira, and M. A.L. Marques.,  SoftwareX 7, 1â€“5 (2018) (10.1016/j.softx.2017.11.002)

   => Composite Functional: B3LYP <=

    B3LYP Hyb-GGA Exchange-Correlation Functional

    P. J. Stephens, F. J. Devlin, C. F. Chabalowski, and M. J. Frisch.,  J. Phys. Chem. 98, 11623 (1994) (10.1021/j100096a001)

    Deriv               =              1
    GGA                 =           TRUE
    Meta                =          FALSE

    Exchange Hybrid     =           TRUE
    MP2 Hybrid          =          FALSE

   => Exchange Functionals <=

    0.0800   Slater exchange
    0.7200         Becke 88

   => Exact (HF) Exchange <=

    0.2000               HF

   => Correlation Functionals <=

    0.1900   Vosko, Wilk & Nusair (VWN5_RPA)
    0.8100   Lee, Yang & Parr

   => LibXC Density Thresholds  <==

    XC_HYB_GGA_XC_B3LYP:  1.00E-15

   => Molecular Quadrature <=

    Radial Scheme          =       TREUTLER
    Pruning Scheme         =           NONE
    Nuclear Scheme         =       TREUTLER

    Blocking Scheme        =         OCTREE
    BS radius alpha        =              1
    Pruning alpha          =              1
    Radial Points          =             75
    Spherical Points       =            302
    Total Points           =          42976
    Total Blocks           =            400
    Max Points             =            256
    Max Functions          =             32
    Weights Tolerance      =       1.00E-15

  -Total Gradient:
     Atom            X                  Y                   Z
    ------   -----------------  -----------------  -----------------
       1        0.000000000000     0.000000000000    -0.000117384259
       2       -0.000000000000     0.000000000000     0.000109347087

*** tstop() called on Joses-MacBook-Pro-2.local at Wed Jul 16 18:54:22 2025
Module time:
	user time   =       1.08 seconds =       0.02 minutes
	system time =       2.00 seconds =       0.03 minutes
	total time  =          0 seconds =       0.00 minutes
Total time:
	user time   =      57.98 seconds =       0.97 minutes
	system time =      77.93 seconds =       1.30 minutes
	total time  =         15 seconds =       0.25 minutes

    			-----------------------------------------

    			 OPTKING 3.0: for geometry optimizations

    			     By R.A. King, Bethel University

    			        with contributions from

    			    A.V. Copan, J. Cayton, A. Heide

    			-----------------------------------------

	                            ===> Fragment 1 <==

	 Z (Atomic Numbers)          Masses                          Geom
	       5.000000            11.009305          0.00000000  0.00000000  2.76669431
	      13.000000            26.981539          0.00000000  0.00000000 -1.12889717

	 - Coordinate -           - BOHR/RAD -       - ANG/DEG -
	 R(1,2)           =         3.895591           2.061458

	        --- Internal Coordinate Step in ANG or DEG, aJ/ANG or AJ/DEG ---
	-------------------------------------------------------------------------------
	           Coordinate      Previous         Force          Change          New
	           ----------      --------        ------          ------        ------
	               R(1,2)       2.06146        0.00093        0.00055       2.06201
	-------------------------------------------------------------------------------

	                                 ==> Convergence Check <==

	Measures of convergence in internal coordinates in au.

	Criteria marked as inactive (o), active & met (*), and active & unmet ( ).

	----------------------------------------------------------------------------------------------
	   Step    Total Energy     Delta E     Max Force     RMS Force      Max Disp      RMS Disp
	----------------------------------------------------------------------------------------------
	  Convergence Criteria     1.00e-06 *    3.00e-04 *             o    1.20e-03 *             o
	----------------------------------------------------------------------------------------------
	    11    -267.11022581   -1.04e-06      1.13e-04 *    1.13e-04 o    1.05e-03 *    1.05e-03 o  ~
	----------------------------------------------------------------------------------------------

Next Geometry in Ang
	Fragment 1 (Ang)

	    B   0.0000000000   0.0000000000   1.4643486512
	   Al   0.0000000000   0.0000000000  -0.5976637288

    Final optimized geometry and variables:
    Molecular point group: c2v
    Full point group: C_inf_v

    Geometry (in Angstrom), charge = 0, multiplicity = 3:

    B            0.000000000000     0.000000000000     1.464071578373
    AL           0.000000000000     0.000000000000    -0.597386655964

    Psi4 stopped on: Wednesday, 16 July 2025 06:54PM
    Psi4 wall time for execution: 0:00:15.67

*** Psi4 exiting successfully. Buy a developer a beer!
