                               Psi4 1.9.1 release

  ==> Input File <==

--------------------------------------------------------------------------
molecule {
0 3
Be   0.00000        0.60000        0.00000
S   0.00000       -0.60000        0.00000
}

set {
basis              cc-pvdz
reference          uks
maxiter            500
geom_maxiter       500
DAMPING_PERCENTAGE 1
guess              SAP
}

optimize('b3lyp')
--------------------------------------------------------------------------

    Molecular point group: c2v
  Charge       = 0
  Multiplicity = 3
  Basis Set: CC-PVDZ
    Blend: CC-PVDZ
  Basis Set: (CC-PVDZ AUX)
    Blend: CC-PVDZ-JKFIT + DEF2-UNIVERSAL-JKFIT
  @DF-UKS Final Energy:  -412.43095581465428
    Total Energy =                       -412.4309558146542827
 Dipole X            :          0.0000000            0.0000000            0.0000000
 Dipole Y            :          0.0000000            0.0000000            0.0000000
 Dipole Z            :         -0.2535956           -0.9022516           -1.1558473
 Magnitude           :                                                    1.1558473
    Molecular point group: c2v
  Basis Set: CC-PVDZ
    Blend: CC-PVDZ
  Basis Set: (CC-PVDZ AUX)
    Blend: CC-PVDZ-JKFIT + DEF2-UNIVERSAL-JKFIT
  Basis Set: CC-PVDZ
    Blend: CC-PVDZ
  Basis Set: (CC-PVDZ AUX)
    Blend: CC-PVDZ-JKFIT + DEF2-UNIVERSAL-JKFIT
  @DF-UKS Final Energy:  -412.61493941586264
    Total Energy =                       -412.6149394158626365
  Basis Set: CC-PVDZ
    Blend: CC-PVDZ
  Basis Set: (CC-PVDZ AUX)
    Blend: CC-PVDZ-JKFIT + DEF2-UNIVERSAL-JKFIT
  Basis Set: CC-PVDZ
    Blend: CC-PVDZ
  @DF-UKS Final Energy:  -412.73675027259003
    Total Energy =                       -412.7367502725900295
  @DF-UKS Final Energy:  -412.79698987762140
    Total Energy =                       -412.7969898776213995
  @DF-UKS Final Energy:  -412.82018100162065
    Total Energy =                       -412.8201810016206537
  @DF-UKS Final Energy:  -412.82634838100807
    Total Energy =                       -412.8263483810080743
  @DF-UKS Final Energy:  -412.82876683669707
    Total Energy =                       -412.8287668366970138
  @DF-UKS Final Energy:  -412.82924568084610
    Total Energy =                       -412.8292456808460997
  @DF-UKS Final Energy:  -412.82936829435960
    Total Energy =                       -412.8293682943595968
  Basis Set: (CC-PVDZ AUX)
    Blend: CC-PVDZ-JKFIT + DEF2-UNIVERSAL-JKFIT
  Basis Set: CC-PVDZ
    Blend: CC-PVDZ
  Basis Set: (CC-PVDZ AUX)
    Blend: CC-PVDZ-JKFIT + DEF2-UNIVERSAL-JKFIT
  @DF-UKS Final Energy:  -412.82938030490766
    Total Energy =                       -412.8293803049077155
  Basis Set: CC-PVDZ
    Blend: CC-PVDZ
  Basis Set: (CC-PVDZ AUX)
    Blend: CC-PVDZ-JKFIT + DEF2-UNIVERSAL-JKFIT
  Charge       = 0
  Multiplicity = 3
  Basis Set: CC-PVDZ
    Blend: CC-PVDZ
  Basis Set: (CC-PVDZ AUX)
    Blend: CC-PVDZ-JKFIT + DEF2-UNIVERSAL-JKFIT

    Orbital Energies [Eh]
    ---------------------

    Alpha Occupied:

       1A1   -88.902463     2A1    -7.965427     3A1    -5.938441
       1B1    -5.920036     1B2    -5.920036     4A1    -4.140771
       5A1    -0.721043     6A1    -0.404341     2B2    -0.291016
       2B1    -0.291016     7A1    -0.223041

    Alpha Virtual:

       3B1    -0.048151     3B2    -0.048151     8A1     0.061722
       4B1     0.164597     4B2     0.164597     9A1     0.168837
      10A1     0.185045    11A1     0.373657     5B1     0.389928
       5B2     0.389928     1A2     0.421185    12A1     0.421185
       6B2     0.529677     6B1     0.529677    13A1     0.629825
       2A2     0.637262    14A1     0.637263    15A1     0.798328
       7B1     0.832383     7B2     0.832383    16A1     1.103318

    Beta Occupied:

       1A1   -88.897601     2A1    -7.960230     3A1    -5.922537
       1B1    -5.917185     1B2    -5.917185     4A1    -4.125722
       5A1    -0.674470     2B2    -0.277626     2B1    -0.277626

    Beta Virtual:

       6A1    -0.265309     7A1    -0.084319     3B1    -0.010512
       3B2    -0.010512     8A1     0.079385     4B1     0.180467
       4B2     0.180467     9A1     0.211915    10A1     0.238824
      11A1     0.428215     5B1     0.449393     5B2     0.449393
       1A2     0.452147    12A1     0.452147     6B2     0.538184
       6B1     0.538184     2A2     0.649268    13A1     0.649269
      14A1     0.668695    15A1     0.844969     7B1     0.880424
       7B2     0.880424    16A1     1.143167

    Final Occupation by Irrep:
             A1    A2    B1    B2
    DOCC [     5,    0,    2,    2 ]
    SOCC [     2,    0,    0,    0 ]
    NA   [     7,    0,    2,    2 ]
    NB   [     5,    0,    2,    2 ]

  @DF-UKS Final Energy:  -412.82938160712990

   => Energetics <=

    Nuclear Repulsion Energy =             17.8690533545981829
    One-Electron Energy =                -604.3490633746125695
    Two-Electron Energy =                 196.6152869621210471
    DFT Exchange-Correlation Energy =     -22.9646585492365887
    Empirical Dispersion Energy =           0.0000000000000000
    VV10 Nonlocal Energy =                  0.0000000000000000
    Total Energy =                       -412.8293816071299034

  UHF NO Occupations:
  HONO-2 :    5 A1 1.9987148
  HONO-1 :    6 A1 1.0000000
  HONO-0 :    7 A1 1.0000000
  LUNO+0 :    8 A1 0.0012852
  LUNO+1 :    3 B1 0.0005706
  LUNO+2 :    3 B2 0.0005706
  LUNO+3 :    9 A1 0.0000004

Computation Completed

Properties will be evaluated at   0.000000,   0.000000,   0.000000 [a0]

Properties computed using the SCF density matrix

 Multipole Moments:

 ------------------------------------------------------------------------------------
     Multipole            Electronic (a.u.)      Nuclear  (a.u.)        Total (a.u.)
 ------------------------------------------------------------------------------------

 L = 1.  Multiply by 2.5417464519 to convert [e a0] to [Debye]
 Dipole X            :          0.0000000            0.0000000            0.0000000
 Dipole Y            :          0.0000000            0.0000000            0.0000000
 Dipole Z            :          1.4605871           -1.4250365            0.0355506
 Magnitude           :                                                    0.0355506

 ------------------------------------------------------------------------------------

*** tstop() called on Joses-MacBook-Pro-2.local at Wed Jul 16 18:46:16 2025
Module time:
	user time   =       3.38 seconds =       0.06 minutes
	system time =       3.07 seconds =       0.05 minutes
	total time  =          1 seconds =       0.02 minutes
Total time:
	user time   =      57.41 seconds =       0.96 minutes
	system time =      56.91 seconds =       0.95 minutes
	total time  =         11 seconds =       0.18 minutes

*** tstart() called on Joses-MacBook-Pro-2.local
*** at Wed Jul 16 18:46:16 2025

         ------------------------------------------------------------
                                   SCF GRAD
                          Rob Parrish, Justin Turney,
                       Andy Simmonett, and Alex Sokolov
         ------------------------------------------------------------

  ==> Geometry <==

    Molecular point group: c2v
    Full point group: C_inf_v

    Geometry (in Angstrom), charge = 0, multiplicity = 3:

       Center              X                  Y                   Z               Mass
    ------------   -----------------  -----------------  -----------------  -----------------
         BE           0.000000000000     0.000000000000     1.478540738833     9.012183065000
         S            0.000000000000     0.000000000000    -0.416766237468    31.972071174400

  Nuclear repulsion =   17.869053354598183

  ==> Basis Set <==

  Basis Set: CC-PVDZ
    Blend: CC-PVDZ
    Number of shells: 14
    Number of basis functions: 32
    Number of Cartesian functions: 34
    Spherical Harmonics?: true
    Max angular momentum: 2

  ==> DFJKGrad: Density-Fitted SCF Gradients <==

    Gradient:                    1
    J tasked:                  Yes
    K tasked:                  Yes
    wK tasked:                  No
    OpenMP threads:              1
    Integrals threads:           1
    Memory [MiB]:              375
    Schwarz Cutoff:          1E-12
    Fitting Condition:       1E-10

   => Auxiliary Basis Set <=

  Basis Set: (CC-PVDZ AUX)
    Blend: CC-PVDZ-JKFIT + DEF2-UNIVERSAL-JKFIT
    Number of shells: 53
    Number of basis functions: 163
    Number of Cartesian functions: 190
    Spherical Harmonics?: true
    Max angular momentum: 3

  ==> DFT Potential <==

   => LibXC <=

    Version 6.2.2
    S. Lehtola, C. Steigemann, M. J.T. Oliveira, and M. A.L. Marques.,  SoftwareX 7, 1â€“5 (2018) (10.1016/j.softx.2017.11.002)

   => Composite Functional: B3LYP <=

    B3LYP Hyb-GGA Exchange-Correlation Functional

    P. J. Stephens, F. J. Devlin, C. F. Chabalowski, and M. J. Frisch.,  J. Phys. Chem. 98, 11623 (1994) (10.1021/j100096a001)

    Deriv               =              1
    GGA                 =           TRUE
    Meta                =          FALSE

    Exchange Hybrid     =           TRUE
    MP2 Hybrid          =          FALSE

   => Exchange Functionals <=

    0.0800   Slater exchange
    0.7200         Becke 88

   => Exact (HF) Exchange <=

    0.2000               HF

   => Correlation Functionals <=

    0.1900   Vosko, Wilk & Nusair (VWN5_RPA)
    0.8100   Lee, Yang & Parr

   => LibXC Density Thresholds  <==

    XC_HYB_GGA_XC_B3LYP:  1.00E-15

   => Molecular Quadrature <=

    Radial Scheme          =       TREUTLER
    Pruning Scheme         =           NONE
    Nuclear Scheme         =       TREUTLER

    Blocking Scheme        =         OCTREE
    BS radius alpha        =              1
    Pruning alpha          =              1
    Radial Points          =             75
    Spherical Points       =            302
    Total Points           =          42762
    Total Blocks           =            401
    Max Points             =            255
    Max Functions          =             32
    Weights Tolerance      =       1.00E-15

  -Total Gradient:
     Atom            X                  Y                   Z
    ------   -----------------  -----------------  -----------------
       1        0.000000000000     0.000000000000    -0.000128452326
       2        0.000000000000    -0.000000000000     0.000125154218

*** tstop() called on Joses-MacBook-Pro-2.local at Wed Jul 16 18:46:16 2025
Module time:
	user time   =       1.05 seconds =       0.02 minutes
	system time =       1.26 seconds =       0.02 minutes
	total time  =          0 seconds =       0.00 minutes
Total time:
	user time   =      58.46 seconds =       0.97 minutes
	system time =      58.18 seconds =       0.97 minutes
	total time  =         11 seconds =       0.18 minutes

    			-----------------------------------------

    			 OPTKING 3.0: for geometry optimizations

    			     By R.A. King, Bethel University

    			        with contributions from

    			    A.V. Copan, J. Cayton, A. Heide

    			-----------------------------------------

	                            ===> Fragment 1 <==

	 Z (Atomic Numbers)          Masses                          Geom
	       4.000000             9.012183          0.00000000  0.00000000  2.79403706
	      16.000000            31.972071          0.00000000  0.00000000 -0.78757405

	 - Coordinate -           - BOHR/RAD -       - ANG/DEG -
	 R(1,2)           =         3.581611           1.895307

	        --- Internal Coordinate Step in ANG or DEG, aJ/ANG or AJ/DEG ---
	-------------------------------------------------------------------------------
	           Coordinate      Previous         Force          Change          New
	           ----------      --------        ------          ------        ------
	               R(1,2)       1.89531        0.00104        0.00044       1.89574
	-------------------------------------------------------------------------------

	                                 ==> Convergence Check <==

	Measures of convergence in internal coordinates in au.

	Criteria marked as inactive (o), active & met (*), and active & unmet ( ).

	----------------------------------------------------------------------------------------------
	   Step    Total Energy     Delta E     Max Force     RMS Force      Max Disp      RMS Disp
	----------------------------------------------------------------------------------------------
	  Convergence Criteria     1.00e-06 *    3.00e-04 *             o    1.20e-03 *             o
	----------------------------------------------------------------------------------------------
	    11    -412.82938161   -1.30e-06      1.27e-04 *    1.27e-04 o    8.23e-04 *    8.23e-04 o  ~
	----------------------------------------------------------------------------------------------

Next Geometry in Ang
	Fragment 1 (Ang)

	   Be   0.0000000000   0.0000000000   1.4787585959
	    S   0.0000000000   0.0000000000  -0.4169840945

    Final optimized geometry and variables:
    Molecular point group: c2v
    Full point group: C_inf_v

    Geometry (in Angstrom), charge = 0, multiplicity = 3:

    BE           0.000000000000     0.000000000000     1.478540738833
    S            0.000000000000     0.000000000000    -0.416766237468

    Psi4 stopped on: Wednesday, 16 July 2025 06:46PM
    Psi4 wall time for execution: 0:00:11.90

*** Psi4 exiting successfully. Buy a developer a beer!
