                               Psi4 1.9.1 release

  ==> Input File <==

--------------------------------------------------------------------------
molecule {
0 3
C   0.00000        0.60000        0.00000
Si   0.00000       -0.60000        0.00000
}

set {
basis              cc-pvdz
reference          uks
maxiter            500
geom_maxiter       500
DAMPING_PERCENTAGE 1
guess              SAP
}

optimize('b3lyp')
--------------------------------------------------------------------------

    Molecular point group: c2v
  Charge       = 0
  Multiplicity = 3
  Basis Set: CC-PVDZ
    Blend: CC-PVDZ
  Basis Set: (CC-PVDZ AUX)
    Blend: CC-PVDZ-JKFIT
  @DF-UKS Final Energy:  -326.98012467261589
    Total Energy =                       -326.9801246726158865
 Dipole X            :          0.0000000            0.0000000            0.0000000
 Dipole Y            :          0.0000000            0.0000000            0.0000000
 Dipole Z            :         -1.0449691           -0.0078530           -1.0528220
 Magnitude           :                                                    1.0528220
    Molecular point group: c2v
  Basis Set: CC-PVDZ
    Blend: CC-PVDZ
  Basis Set: (CC-PVDZ AUX)
    Blend: CC-PVDZ-JKFIT
  Basis Set: CC-PVDZ
    Blend: CC-PVDZ
  Basis Set: (CC-PVDZ AUX)
    Blend: CC-PVDZ-JKFIT
  @DF-UKS Final Energy:  -327.16844004182650
    Total Energy =                       -327.1684400418265000
  Basis Set: CC-PVDZ
    Blend: CC-PVDZ
  Basis Set: (CC-PVDZ AUX)
    Blend: CC-PVDZ-JKFIT
  Basis Set: CC-PVDZ
    Blend: CC-PVDZ
  @DF-UKS Final Energy:  -327.31959681349787
    Total Energy =                       -327.3195968134978102
  @DF-UKS Final Energy:  -327.36895999397785
    Total Energy =                       -327.3689599939778532
  @DF-UKS Final Energy:  -327.38807365469381
    Total Energy =                       -327.3880736546938124
  @DF-UKS Final Energy:  -327.39154821654017
    Total Energy =                       -327.3915482165401727
  @DF-UKS Final Energy:  -327.39234000596298
    Total Energy =                       -327.3923400059630353
  @DF-UKS Final Energy:  -327.39257544196568
    Total Energy =                       -327.3925754419656187
  @DF-UKS Final Energy:  -327.39260623280683
    Total Energy =                       -327.3926062328068269
  Basis Set: (CC-PVDZ AUX)
    Blend: CC-PVDZ-JKFIT
  Basis Set: CC-PVDZ
    Blend: CC-PVDZ
  Basis Set: (CC-PVDZ AUX)
    Blend: CC-PVDZ-JKFIT
  @DF-UKS Final Energy:  -327.39261089709720
    Total Energy =                       -327.3926108970971995
  Basis Set: CC-PVDZ
    Blend: CC-PVDZ
  Basis Set: (CC-PVDZ AUX)
    Blend: CC-PVDZ-JKFIT
  Charge       = 0
  Multiplicity = 3
  Basis Set: CC-PVDZ
    Blend: CC-PVDZ
  Basis Set: (CC-PVDZ AUX)
    Blend: CC-PVDZ-JKFIT

    Orbital Energies [Eh]
    ---------------------

    Alpha Occupied:

       1A1   -66.175106     2A1   -10.255115     3A1    -5.319415
       1B2    -3.681404     4A1    -3.677403     1B1    -3.673871
       5A1    -0.661793     6A1    -0.405847     2B2    -0.283485
       7A1    -0.281584     2B1    -0.254628

    Alpha Virtual:

       3B2    -0.076156     3B1    -0.054914     8A1     0.060996
       9A1     0.246316     4B2     0.290992     4B1     0.306337
      10A1     0.338416     1A2     0.350578    11A1     0.353220
       5B2     0.409308    12A1     0.415685     5B1     0.429895
       6B2     0.512313     6B1     0.530175    13A1     0.791630
      14A1     0.861141     2A2     1.161516    15A1     1.161757
       7B2     1.330200     7B1     1.353536    16A1     1.682016

    Beta Occupied:

       1A1   -66.173372     2A1   -10.232067     3A1    -5.317522
       1B2    -3.677152     1B1    -3.674623     4A1    -3.672114
       5A1    -0.590609     6A1    -0.347032     2B1    -0.229652

    Beta Virtual:

       2B2    -0.159621     7A1    -0.139670     3B1    -0.036686
       3B2    -0.017062     8A1     0.080928     9A1     0.256762
       4B1     0.304067     4B2     0.307710     1A2     0.359618
      10A1     0.361539    11A1     0.376016     5B1     0.447174
       5B2     0.453324    12A1     0.456025     6B1     0.554906
       6B2     0.566276    13A1     0.844866    14A1     0.902326
       2A2     1.220032    15A1     1.223254     7B1     1.408209
       7B2     1.416746    16A1     1.748244

    Final Occupation by Irrep:
             A1    A2    B1    B2
    DOCC [     6,    0,    2,    1 ]
    SOCC [     1,    0,    0,    1 ]
    NA   [     7,    0,    2,    2 ]
    NB   [     6,    0,    2,    1 ]

  @DF-UKS Final Energy:  -327.39261108225321

   => Energetics <=

    Nuclear Repulsion Energy =             25.6391743413394551
    One-Electron Energy =                -502.4146483680333972
    Two-Electron Energy =                 170.4733795949525188
    DFT Exchange-Correlation Energy =     -21.0905166505118089
    Empirical Dispersion Energy =           0.0000000000000000
    VV10 Nonlocal Energy =                  0.0000000000000000
    Total Energy =                       -327.3926110822532110

  UHF NO Occupations:
  HONO-2 :    2 B1 1.9841258
  HONO-1 :    2 B2 1.0000000
  HONO-0 :    7 A1 1.0000000
  LUNO+0 :    3 B1 0.0158742
  LUNO+1 :    8 A1 0.0010659
  LUNO+2 :    9 A1 0.0005503
  LUNO+3 :   10 A1 0.0000001

Computation Completed

Properties will be evaluated at   0.000000,   0.000000,   0.000000 [a0]

Properties computed using the SCF density matrix

 Multipole Moments:

 ------------------------------------------------------------------------------------
     Multipole            Electronic (a.u.)      Nuclear  (a.u.)        Total (a.u.)
 ------------------------------------------------------------------------------------

 L = 1.  Multiply by 2.5417464519 to convert [e a0] to [Debye]
 Dipole X            :          0.0000000            0.0000000            0.0000000
 Dipole Y            :          0.0000000            0.0000000            0.0000000
 Dipole Z            :         -0.5874844           -0.0113457           -0.5988300
 Magnitude           :                                                    0.5988300

 ------------------------------------------------------------------------------------

*** tstop() called on Joses-MacBook-Pro-2.local at Wed Jul 16 19:03:54 2025
Module time:
	user time   =       3.16 seconds =       0.05 minutes
	system time =       3.78 seconds =       0.06 minutes
	total time  =          0 seconds =       0.00 minutes
Total time:
	user time   =      62.52 seconds =       1.04 minutes
	system time =      60.49 seconds =       1.01 minutes
	total time  =         11 seconds =       0.18 minutes

*** tstart() called on Joses-MacBook-Pro-2.local
*** at Wed Jul 16 19:03:54 2025

         ------------------------------------------------------------
                                   SCF GRAD
                          Rob Parrish, Justin Turney,
                       Andy Simmonett, and Alex Sokolov
         ------------------------------------------------------------

  ==> Geometry <==

    Molecular point group: c2v
    Full point group: C_inf_v

    Geometry (in Angstrom), charge = 0, multiplicity = 3:

       Center              X                  Y                   Z               Mass
    ------------   -----------------  -----------------  -----------------  -----------------
         C            0.000000000000     0.000000000000     1.213296608687    12.000000000000
         SI           0.000000000000     0.000000000000    -0.520413108502    27.976926534650

  Nuclear repulsion =   25.639174341339455

  ==> Basis Set <==

  Basis Set: CC-PVDZ
    Blend: CC-PVDZ
    Number of shells: 14
    Number of basis functions: 32
    Number of Cartesian functions: 34
    Spherical Harmonics?: true
    Max angular momentum: 2

  ==> DFJKGrad: Density-Fitted SCF Gradients <==

    Gradient:                    1
    J tasked:                  Yes
    K tasked:                  Yes
    wK tasked:                  No
    OpenMP threads:              1
    Integrals threads:           1
    Memory [MiB]:              375
    Schwarz Cutoff:          1E-12
    Fitting Condition:       1E-10

   => Auxiliary Basis Set <=

  Basis Set: (CC-PVDZ AUX)
    Blend: CC-PVDZ-JKFIT
    Number of shells: 60
    Number of basis functions: 182
    Number of Cartesian functions: 211
    Spherical Harmonics?: true
    Max angular momentum: 3

  ==> DFT Potential <==

   => LibXC <=

    Version 6.2.2
    S. Lehtola, C. Steigemann, M. J.T. Oliveira, and M. A.L. Marques.,  SoftwareX 7, 1â€“5 (2018) (10.1016/j.softx.2017.11.002)

   => Composite Functional: B3LYP <=

    B3LYP Hyb-GGA Exchange-Correlation Functional

    P. J. Stephens, F. J. Devlin, C. F. Chabalowski, and M. J. Frisch.,  J. Phys. Chem. 98, 11623 (1994) (10.1021/j100096a001)

    Deriv               =              1
    GGA                 =           TRUE
    Meta                =          FALSE

    Exchange Hybrid     =           TRUE
    MP2 Hybrid          =          FALSE

   => Exchange Functionals <=

    0.0800   Slater exchange
    0.7200         Becke 88

   => Exact (HF) Exchange <=

    0.2000               HF

   => Correlation Functionals <=

    0.1900   Vosko, Wilk & Nusair (VWN5_RPA)
    0.8100   Lee, Yang & Parr

   => LibXC Density Thresholds  <==

    XC_HYB_GGA_XC_B3LYP:  1.00E-15

   => Molecular Quadrature <=

    Radial Scheme          =       TREUTLER
    Pruning Scheme         =           NONE
    Nuclear Scheme         =       TREUTLER

    Blocking Scheme        =         OCTREE
    BS radius alpha        =              1
    Pruning alpha          =              1
    Radial Points          =             75
    Spherical Points       =            302
    Total Points           =          42443
    Total Blocks           =            389
    Max Points             =            255
    Max Functions          =             32
    Weights Tolerance      =       1.00E-15

  -Total Gradient:
     Atom            X                  Y                   Z
    ------   -----------------  -----------------  -----------------
       1        0.000000000000     0.000000000000    -0.000043346660
       2        0.000000000000     0.000000000000     0.000027750884

*** tstop() called on Joses-MacBook-Pro-2.local at Wed Jul 16 19:03:55 2025
Module time:
	user time   =       0.94 seconds =       0.02 minutes
	system time =       1.54 seconds =       0.03 minutes
	total time  =          1 seconds =       0.02 minutes
Total time:
	user time   =      63.46 seconds =       1.06 minutes
	system time =      62.03 seconds =       1.03 minutes
	total time  =         12 seconds =       0.20 minutes

    			-----------------------------------------

    			 OPTKING 3.0: for geometry optimizations

    			     By R.A. King, Bethel University

    			        with contributions from

    			    A.V. Copan, J. Cayton, A. Heide

    			-----------------------------------------

	                            ===> Fragment 1 <==

	 Z (Atomic Numbers)          Masses                          Geom
	       6.000000            12.000000          0.00000000  0.00000000  2.29279830
	      14.000000            27.976927          0.00000000  0.00000000 -0.98343825

	 - Coordinate -           - BOHR/RAD -       - ANG/DEG -
	 R(1,2)           =         3.276237           1.733710

	        --- Internal Coordinate Step in ANG or DEG, aJ/ANG or AJ/DEG ---
	-------------------------------------------------------------------------------
	           Coordinate      Previous         Force          Change          New
	           ----------      --------        ------          ------        ------
	               R(1,2)       1.73371        0.00029        0.00006       1.73377
	-------------------------------------------------------------------------------

	                                 ==> Convergence Check <==

	Measures of convergence in internal coordinates in au.

	Criteria marked as inactive (o), active & met (*), and active & unmet ( ).

	----------------------------------------------------------------------------------------------
	   Step    Total Energy     Delta E     Max Force     RMS Force      Max Disp      RMS Disp
	----------------------------------------------------------------------------------------------
	  Convergence Criteria     1.00e-06 *    3.00e-04 *             o    1.20e-03 *             o
	----------------------------------------------------------------------------------------------
	    11    -327.39261108   -1.85e-07 *    3.55e-05 *    3.55e-05 o    1.15e-04 *    1.15e-04 o  ~
	----------------------------------------------------------------------------------------------

Next Geometry in Ang
	Fragment 1 (Ang)

	    C   0.0000000000   0.0000000000   1.2133270077
	   Si   0.0000000000   0.0000000000  -0.5204435075

    Final optimized geometry and variables:
    Molecular point group: c2v
    Full point group: C_inf_v

    Geometry (in Angstrom), charge = 0, multiplicity = 3:

    C            0.000000000000     0.000000000000     1.213296608687
    SI           0.000000000000     0.000000000000    -0.520413108502

    Psi4 stopped on: Wednesday, 16 July 2025 07:03PM
    Psi4 wall time for execution: 0:00:12.58

*** Psi4 exiting successfully. Buy a developer a beer!
