                               Psi4 1.9.1 release

  ==> Input File <==

--------------------------------------------------------------------------
molecule {
0 3
Si   0.00000        0.60000        0.00000
Si   0.00000       -0.60000        0.00000
}

set {
basis              cc-pvdz
reference          uks
maxiter            500
geom_maxiter       500
DAMPING_PERCENTAGE 1
guess              SAP
}

optimize('b3lyp')
--------------------------------------------------------------------------

    Molecular point group: d2h
  Charge       = 0
  Multiplicity = 3
  Basis Set: CC-PVDZ
    Blend: CC-PVDZ
  Basis Set: (CC-PVDZ AUX)
    Blend: CC-PVDZ-JKFIT
  @DF-UKS Final Energy:  -577.71416826846450
    Total Energy =                       -577.7141682684645048
 Dipole X            :          0.0000000            0.0000000            0.0000000
 Dipole Y            :          0.0000000            0.0000000            0.0000000
 Dipole Z            :          0.0000000            0.0000000            0.0000000
 Magnitude           :                                                    0.0000000
    Molecular point group: d2h
  Basis Set: CC-PVDZ
    Blend: CC-PVDZ
  Basis Set: (CC-PVDZ AUX)
    Blend: CC-PVDZ-JKFIT
  Basis Set: CC-PVDZ
    Blend: CC-PVDZ
  Basis Set: (CC-PVDZ AUX)
    Blend: CC-PVDZ-JKFIT
  @DF-UKS Final Energy:  -577.73520544390590
    Total Energy =                       -577.7352054439057838
  Basis Set: CC-PVDZ
    Blend: CC-PVDZ
  Basis Set: (CC-PVDZ AUX)
    Blend: CC-PVDZ-JKFIT
  Basis Set: CC-PVDZ
    Blend: CC-PVDZ
  @DF-UKS Final Energy:  -577.77558439988866
    Total Energy =                       -577.7755843998886576
  @DF-UKS Final Energy:  -577.91945575833779
    Total Energy =                       -577.9194557583377900
  @DF-UKS Final Energy:  -578.46486578810163
    Total Energy =                       -578.4648657881015197
  @DF-UKS Final Energy:  -578.71588533494798
    Total Energy =                       -578.7158853349480978
  @DF-UKS Final Energy:  -578.83628689436512
    Total Energy =                       -578.8362868943652302
  @DF-UKS Final Energy:  -578.87074808036198
    Total Energy =                       -578.8707480803619774
  @DF-UKS Final Energy:  -578.88320529181692
    Total Energy =                       -578.8832052918169211
  @DF-UKS Final Energy:  -578.88554153192092
    Total Energy =                       -578.8855415319208078
  @DF-UKS Final Energy:  -578.88613146563307
    Total Energy =                       -578.8861314656330705
  @DF-UKS Final Energy:  -578.88619724803584
    Total Energy =                       -578.8861972480358418
  Basis Set: (CC-PVDZ AUX)
    Blend: CC-PVDZ-JKFIT
  Basis Set: CC-PVDZ
    Blend: CC-PVDZ
  Basis Set: (CC-PVDZ AUX)
    Blend: CC-PVDZ-JKFIT
  @DF-UKS Final Energy:  -578.88620507372207
    Total Energy =                       -578.8862050737220670
  Basis Set: CC-PVDZ
    Blend: CC-PVDZ
  Basis Set: (CC-PVDZ AUX)
    Blend: CC-PVDZ-JKFIT
  Charge       = 0
  Multiplicity = 3
  Basis Set: CC-PVDZ
    Blend: CC-PVDZ
  Basis Set: (CC-PVDZ AUX)
    Blend: CC-PVDZ-JKFIT

    Orbital Energies [Eh]
    ---------------------

    Alpha Occupied:

       1Ag   -66.163335     1B2u  -66.163335     2Ag    -5.307674
       2B2u   -5.307565     1B3u   -3.668826     1B1g   -3.668707
       3Ag    -3.667996     3B2u   -3.666649     1B1u   -3.662303
       1B3g   -3.662184     4Ag    -0.545976     4B2u   -0.383569
       5Ag    -0.244512     2B3u   -0.234810     2B1u   -0.211847

    Alpha Virtual:

       2B1g   -0.085158     2B3g   -0.066985     5B2u    0.045956
       6Ag     0.168670     3B3u    0.229761     3B1u    0.246736
       7Ag     0.251961     6B2u    0.282361     1B2g    0.305855
       8Ag     0.306474     4B3u    0.314970     4B1u    0.330794
       3B1g    0.334606     3B3g    0.348064     1Au     0.413835
       7B2u    0.414379     8B2u    0.446766     9Ag     0.561454
       4B1g    0.584628     4B3g    0.602648     9B2u    0.870504

    Beta Occupied:

       1B2u  -66.159920     1Ag   -66.159919     2Ag    -5.303774
       2B2u   -5.303713     1B3u   -3.662263     1B1g   -3.662157
       1B1u   -3.660230     1B3g   -3.660121     3Ag    -3.659875
       3B2u   -3.658592     4Ag    -0.499133     4B2u   -0.338566
       2B1u   -0.201034

    Beta Virtual:

       5Ag    -0.149571     2B3u   -0.145234     2B3g   -0.054863
       2B1g   -0.043701     5B2u    0.072278     6Ag     0.197294
       3B1u    0.264965     3B3u    0.272152     7Ag     0.272678
       6B2u    0.313635     1B2g    0.331601     8Ag     0.333495
       4B1u    0.346797     4B3u    0.349414     3B3g    0.352337
       3B1g    0.354350     1Au     0.435965     7B2u    0.437546
       8B2u    0.458548     9Ag     0.592477     4B3g    0.624394
       4B1g    0.627240     9B2u    0.898629

    Final Occupation by Irrep:
             Ag   B1g   B2g   B3g    Au   B1u   B2u   B3u
    DOCC [     4,    1,    0,    1,    0,    2,    4,    1 ]
    SOCC [     1,    0,    0,    0,    0,    0,    0,    1 ]
    NA   [     5,    1,    0,    1,    0,    2,    4,    2 ]
    NB   [     4,    1,    0,    1,    0,    2,    4,    1 ]

  @DF-UKS Final Energy:  -578.88620612732836

   => Energetics <=

    Nuclear Repulsion Energy =             47.6321898720486629
    One-Electron Energy =                -896.6069283102222016
    Two-Electron Energy =                 303.6864877703446837
    DFT Exchange-Correlation Energy =     -33.5979554594994951
    Empirical Dispersion Energy =           0.0000000000000000
    VV10 Nonlocal Energy =                  0.0000000000000000
    Total Energy =                       -578.8862061273283643

  UHF NO Occupations:
  HONO-2 :    4B2u 1.9987098
  HONO-1 :    2B3u 1.0000000
  HONO-0 :    5 Ag 1.0000000
  LUNO+0 :    5B2u 0.0012902
  LUNO+1 :    6 Ag 0.0006067
  LUNO+2 :    3B1u 0.0000389
  LUNO+3 :    2B1g 0.0000001

Computation Completed

Properties will be evaluated at   0.000000,   0.000000,   0.000000 [a0]

Properties computed using the SCF density matrix

 Multipole Moments:

 ------------------------------------------------------------------------------------
     Multipole            Electronic (a.u.)      Nuclear  (a.u.)        Total (a.u.)
 ------------------------------------------------------------------------------------

 L = 1.  Multiply by 2.5417464519 to convert [e a0] to [Debye]
 Dipole X            :          0.0000000            0.0000000            0.0000000
 Dipole Y            :          0.0000000            0.0000000            0.0000000
 Dipole Z            :          0.0000000            0.0000000            0.0000000
 Magnitude           :                                                    0.0000000

 ------------------------------------------------------------------------------------

*** tstop() called on Joses-MacBook-Pro-2.local at Wed Jul 16 20:13:31 2025
Module time:
	user time   =       8.35 seconds =       0.14 minutes
	system time =       1.85 seconds =       0.03 minutes
	total time  =          1 seconds =       0.02 minutes
Total time:
	user time   =     206.21 seconds =       3.44 minutes
	system time =      45.15 seconds =       0.75 minutes
	total time  =         25 seconds =       0.42 minutes

*** tstart() called on Joses-MacBook-Pro-2.local
*** at Wed Jul 16 20:13:31 2025

         ------------------------------------------------------------
                                   SCF GRAD
                          Rob Parrish, Justin Turney,
                       Andy Simmonett, and Alex Sokolov
         ------------------------------------------------------------

  ==> Geometry <==

    Molecular point group: d2h
    Full point group: D_inf_h

    Geometry (in Angstrom), charge = 0, multiplicity = 3:

       Center              X                  Y                   Z               Mass
    ------------   -----------------  -----------------  -----------------  -----------------
         SI          -0.000000000000     1.088746219415     0.000000000000    27.976926534650
         SI           0.000000000000    -1.088746219415     0.000000000000    27.976926534650

  Nuclear repulsion =   47.632189872048663

  ==> Basis Set <==

  Basis Set: CC-PVDZ
    Blend: CC-PVDZ
    Number of shells: 16
    Number of basis functions: 36
    Number of Cartesian functions: 38
    Spherical Harmonics?: true
    Max angular momentum: 2

  ==> DFJKGrad: Density-Fitted SCF Gradients <==

    Gradient:                    1
    J tasked:                  Yes
    K tasked:                  Yes
    wK tasked:                  No
    OpenMP threads:              1
    Integrals threads:           1
    Memory [MiB]:              375
    Schwarz Cutoff:          1E-12
    Fitting Condition:       1E-10

   => Auxiliary Basis Set <=

  Basis Set: (CC-PVDZ AUX)
    Blend: CC-PVDZ-JKFIT
    Number of shells: 72
    Number of basis functions: 224
    Number of Cartesian functions: 260
    Spherical Harmonics?: true
    Max angular momentum: 3

  ==> DFT Potential <==

   => LibXC <=

    Version 6.2.2
    S. Lehtola, C. Steigemann, M. J.T. Oliveira, and M. A.L. Marques.,  SoftwareX 7, 1â€“5 (2018) (10.1016/j.softx.2017.11.002)

   => Composite Functional: B3LYP <=

    B3LYP Hyb-GGA Exchange-Correlation Functional

    P. J. Stephens, F. J. Devlin, C. F. Chabalowski, and M. J. Frisch.,  J. Phys. Chem. 98, 11623 (1994) (10.1021/j100096a001)

    Deriv               =              1
    GGA                 =           TRUE
    Meta                =          FALSE

    Exchange Hybrid     =           TRUE
    MP2 Hybrid          =          FALSE

   => Exchange Functionals <=

    0.0800   Slater exchange
    0.7200         Becke 88

   => Exact (HF) Exchange <=

    0.2000               HF

   => Correlation Functionals <=

    0.1900   Vosko, Wilk & Nusair (VWN5_RPA)
    0.8100   Lee, Yang & Parr

   => LibXC Density Thresholds  <==

    XC_HYB_GGA_XC_B3LYP:  1.00E-15

   => Molecular Quadrature <=

    Radial Scheme          =       TREUTLER
    Pruning Scheme         =           NONE
    Nuclear Scheme         =       TREUTLER

    Blocking Scheme        =         OCTREE
    BS radius alpha        =              1
    Pruning alpha          =              1
    Radial Points          =             75
    Spherical Points       =            302
    Total Points           =          41306
    Total Blocks           =            384
    Max Points             =            251
    Max Functions          =             36
    Weights Tolerance      =       1.00E-15

  -Total Gradient:
     Atom            X                  Y                   Z
    ------   -----------------  -----------------  -----------------
       1        0.000000000000    -0.000107637319     0.000000000000
       2       -0.000000000000     0.000107637319     0.000000000000

*** tstop() called on Joses-MacBook-Pro-2.local at Wed Jul 16 20:13:32 2025
Module time:
	user time   =       5.77 seconds =       0.10 minutes
	system time =       1.47 seconds =       0.02 minutes
	total time  =          1 seconds =       0.02 minutes
Total time:
	user time   =     211.98 seconds =       3.53 minutes
	system time =      46.62 seconds =       0.78 minutes
	total time  =         26 seconds =       0.43 minutes

    			-----------------------------------------

    			 OPTKING 3.0: for geometry optimizations

    			     By R.A. King, Bethel University

    			        with contributions from

    			    A.V. Copan, J. Cayton, A. Heide

    			-----------------------------------------

	                            ===> Fragment 1 <==

	 Z (Atomic Numbers)          Masses                          Geom
	      14.000000            27.976927         -0.00000000  2.05743217  0.00000000
	      14.000000            27.976927          0.00000000 -2.05743217  0.00000000

	 - Coordinate -           - BOHR/RAD -       - ANG/DEG -
	 R(1,2)           =         4.114864           2.177492

	        --- Internal Coordinate Step in ANG or DEG, aJ/ANG or AJ/DEG ---
	-------------------------------------------------------------------------------
	           Coordinate      Previous         Force          Change          New
	           ----------      --------        ------          ------        ------
	               R(1,2)       2.17749        0.00089        0.00033       2.17782
	-------------------------------------------------------------------------------

	                                 ==> Convergence Check <==

	Measures of convergence in internal coordinates in au.

	Criteria marked as inactive (o), active & met (*), and active & unmet ( ).

	----------------------------------------------------------------------------------------------
	   Step    Total Energy     Delta E     Max Force     RMS Force      Max Disp      RMS Disp
	----------------------------------------------------------------------------------------------
	  Convergence Criteria     1.00e-06 *    3.00e-04 *             o    1.20e-03 *             o
	----------------------------------------------------------------------------------------------
	    14    -578.88620613   -1.05e-06      1.08e-04 *    1.08e-04 o    6.20e-04 *    6.20e-04 o  ~
	----------------------------------------------------------------------------------------------

Next Geometry in Ang
	Fragment 1 (Ang)

	   Si  -0.0000000000   1.0889102434   0.0000000000
	   Si   0.0000000000  -1.0889102434   0.0000000000

    Final optimized geometry and variables:
    Molecular point group: d2h
    Full point group: D_inf_h

    Geometry (in Angstrom), charge = 0, multiplicity = 3:

    SI          -0.000000000000     1.088746219415     0.000000000000
    SI           0.000000000000    -1.088746219415     0.000000000000

    Psi4 stopped on: Wednesday, 16 July 2025 08:13PM
    Psi4 wall time for execution: 0:00:25.99

*** Psi4 exiting successfully. Buy a developer a beer!
