                               Psi4 1.9.1 release

  ==> Input File <==

--------------------------------------------------------------------------
molecule {
0 3
B   0.00000        0.60000        0.00000
Cl   0.00000       -0.60000        0.00000
}

set {
basis              cc-pvdz
reference          uks
maxiter            500
geom_maxiter       500
DAMPING_PERCENTAGE 1
guess              SAP
}

optimize('b3lyp')
--------------------------------------------------------------------------

    Molecular point group: c2v
  Charge       = 0
  Multiplicity = 3
  Basis Set: CC-PVDZ
    Blend: CC-PVDZ
  Basis Set: (CC-PVDZ AUX)
    Blend: CC-PVDZ-JKFIT
  @DF-UKS Final Energy:  -484.56363248108073
    Total Energy =                       -484.5636324810807309
 Dipole X            :          0.0000000            0.0000000            0.0000000
 Dipole Y            :          0.0000000            0.0000000            0.0000000
 Dipole Z            :         -0.0691022           -0.6073306           -0.6764327
 Magnitude           :                                                    0.6764327
    Molecular point group: c2v
  Basis Set: CC-PVDZ
    Blend: CC-PVDZ
  Basis Set: (CC-PVDZ AUX)
    Blend: CC-PVDZ-JKFIT
  Basis Set: CC-PVDZ
    Blend: CC-PVDZ
  Basis Set: (CC-PVDZ AUX)
    Blend: CC-PVDZ-JKFIT
  @DF-UKS Final Energy:  -484.77066231962817
    Total Energy =                       -484.7706623196282294
  Basis Set: CC-PVDZ
    Blend: CC-PVDZ
  Basis Set: (CC-PVDZ AUX)
    Blend: CC-PVDZ-JKFIT
  Basis Set: CC-PVDZ
    Blend: CC-PVDZ
  @DF-UKS Final Energy:  -484.86462590369581
    Total Energy =                       -484.8646259036958099
  @DF-UKS Final Energy:  -484.89507521645169
    Total Energy =                       -484.8950752164516871
  @DF-UKS Final Energy:  -484.91084118804577
    Total Energy =                       -484.9108411880457652
  @DF-UKS Final Energy:  -484.91693482532736
    Total Energy =                       -484.9169348253274165
  @DF-UKS Final Energy:  -484.91821283330677
    Total Energy =                       -484.9182128333067681
  @DF-UKS Final Energy:  -484.91851870360870
    Total Energy =                       -484.9185187036086404
  @DF-UKS Final Energy:  -484.91860853585786
    Total Energy =                       -484.9186085358578566
  Basis Set: (CC-PVDZ AUX)
    Blend: CC-PVDZ-JKFIT
  Basis Set: CC-PVDZ
    Blend: CC-PVDZ
  Basis Set: (CC-PVDZ AUX)
    Blend: CC-PVDZ-JKFIT
  @DF-UKS Final Energy:  -484.91862437957792
    Total Energy =                       -484.9186243795779205
  Basis Set: CC-PVDZ
    Blend: CC-PVDZ
  Basis Set: (CC-PVDZ AUX)
    Blend: CC-PVDZ-JKFIT
  Charge       = 0
  Multiplicity = 3
  Basis Set: CC-PVDZ
    Blend: CC-PVDZ
  Basis Set: (CC-PVDZ AUX)
    Blend: CC-PVDZ-JKFIT

    Orbital Energies [Eh]
    ---------------------

    Alpha Occupied:

       1A1  -101.576665     2A1    -9.494562     3A1    -7.255572
       1B1    -7.249391     1B2    -7.247813     4A1    -6.863691
       5A1    -0.869357     6A1    -0.502732     2B2    -0.377316
       2B1    -0.372966     7A1    -0.330333     3B2    -0.171835

    Alpha Virtual:

       3B1    -0.089175     8A1     0.089479     9A1     0.229290
       4B2     0.263770     4B1     0.281297    10A1     0.315367
      11A1     0.470247     5B2     0.516422     5B1     0.516836
       6B1     0.584049     6B2     0.584591     1A2     0.599131
      12A1     0.602941     2A2     0.773360    13A1     0.775906
      14A1     0.820050    15A1     1.025269     7B2     1.059170
       7B1     1.061465    16A1     1.307026

    Beta Occupied:

       1A1  -101.575250     2A1    -9.493149     3A1    -7.252695
       1B1    -7.249017     1B2    -7.244963     4A1    -6.839213
       5A1    -0.858732     6A1    -0.471822     2B1    -0.369871
       2B2    -0.356550

    Beta Virtual:

       7A1    -0.147363     3B1    -0.045091     3B2    -0.013454
       8A1     0.119898     9A1     0.246843     4B1     0.299978
       4B2     0.324130    10A1     0.388345    11A1     0.495828
       5B1     0.538305     5B2     0.550809     6B1     0.599386
       6B2     0.617300     1A2     0.638424    12A1     0.638704
       2A2     0.814923    13A1     0.815026    14A1     0.835912
      15A1     1.073568     7B1     1.093652     7B2     1.115825
      16A1     1.331627

    Final Occupation by Irrep:
             A1    A2    B1    B2
    DOCC [     6,    0,    2,    2 ]
    SOCC [     1,    0,    0,    1 ]
    NA   [     7,    0,    2,    3 ]
    NB   [     6,    0,    2,    2 ]

  @DF-UKS Final Energy:  -484.91862560277985

   => Energetics <=

    Nuclear Repulsion Energy =             26.0053190228611157
    One-Electron Energy =                -719.3285368224353533
    Two-Electron Energy =                 234.3857489440223105
    DFT Exchange-Correlation Energy =     -25.9811567472279314
    Empirical Dispersion Energy =           0.0000000000000000
    VV10 Nonlocal Energy =                  0.0000000000000000
    Total Energy =                       -484.9186256027797981

  UHF NO Occupations:
  HONO-2 :    2 B1 1.9990149
  HONO-1 :    7 A1 1.0000000
  HONO-0 :    3 B2 1.0000000
  LUNO+0 :    3 B1 0.0009851
  LUNO+1 :    4 B2 0.0003719
  LUNO+2 :    8 A1 0.0002857
  LUNO+3 :    9 A1 0.0000207

Computation Completed

Properties will be evaluated at   0.000000,   0.000000,   0.000000 [a0]

Properties computed using the SCF density matrix

 Multipole Moments:

 ------------------------------------------------------------------------------------
     Multipole            Electronic (a.u.)      Nuclear  (a.u.)        Total (a.u.)
 ------------------------------------------------------------------------------------

 L = 1.  Multiply by 2.5417464519 to convert [e a0] to [Debye]
 Dipole X            :          0.0000000            0.0000000            0.0000000
 Dipole Y            :          0.0000000            0.0000000            0.0000000
 Dipole Z            :          0.9074342           -0.8753904            0.0320439
 Magnitude           :                                                    0.0320439

 ------------------------------------------------------------------------------------

*** tstop() called on Joses-MacBook-Pro-2.local at Wed Jul 16 18:57:48 2025
Module time:
	user time   =       3.43 seconds =       0.06 minutes
	system time =       3.96 seconds =       0.07 minutes
	total time  =          1 seconds =       0.02 minutes
Total time:
	user time   =      62.29 seconds =       1.04 minutes
	system time =      59.00 seconds =       0.98 minutes
	total time  =         14 seconds =       0.23 minutes

*** tstart() called on Joses-MacBook-Pro-2.local
*** at Wed Jul 16 18:57:48 2025

         ------------------------------------------------------------
                                   SCF GRAD
                          Rob Parrish, Justin Turney,
                       Andy Simmonett, and Alex Sokolov
         ------------------------------------------------------------

  ==> Geometry <==

    Molecular point group: c2v
    Full point group: C_inf_v

    Geometry (in Angstrom), charge = 0, multiplicity = 3:

       Center              X                  Y                   Z               Mass
    ------------   -----------------  -----------------  -----------------  -----------------
         B            0.000000000000     0.000000000000     1.315490412719    11.009305360000
         CL           0.000000000000     0.000000000000    -0.414158159076    34.968852682000

  Nuclear repulsion =   26.005319022861116

  ==> Basis Set <==

  Basis Set: CC-PVDZ
    Blend: CC-PVDZ
    Number of shells: 14
    Number of basis functions: 32
    Number of Cartesian functions: 34
    Spherical Harmonics?: true
    Max angular momentum: 2

  ==> DFJKGrad: Density-Fitted SCF Gradients <==

    Gradient:                    1
    J tasked:                  Yes
    K tasked:                  Yes
    wK tasked:                  No
    OpenMP threads:              1
    Integrals threads:           1
    Memory [MiB]:              375
    Schwarz Cutoff:          1E-12
    Fitting Condition:       1E-10

   => Auxiliary Basis Set <=

  Basis Set: (CC-PVDZ AUX)
    Blend: CC-PVDZ-JKFIT
    Number of shells: 60
    Number of basis functions: 182
    Number of Cartesian functions: 211
    Spherical Harmonics?: true
    Max angular momentum: 3

  ==> DFT Potential <==

   => LibXC <=

    Version 6.2.2
    S. Lehtola, C. Steigemann, M. J.T. Oliveira, and M. A.L. Marques.,  SoftwareX 7, 1â€“5 (2018) (10.1016/j.softx.2017.11.002)

   => Composite Functional: B3LYP <=

    B3LYP Hyb-GGA Exchange-Correlation Functional

    P. J. Stephens, F. J. Devlin, C. F. Chabalowski, and M. J. Frisch.,  J. Phys. Chem. 98, 11623 (1994) (10.1021/j100096a001)

    Deriv               =              1
    GGA                 =           TRUE
    Meta                =          FALSE

    Exchange Hybrid     =           TRUE
    MP2 Hybrid          =          FALSE

   => Exchange Functionals <=

    0.0800   Slater exchange
    0.7200         Becke 88

   => Exact (HF) Exchange <=

    0.2000               HF

   => Correlation Functionals <=

    0.1900   Vosko, Wilk & Nusair (VWN5_RPA)
    0.8100   Lee, Yang & Parr

   => LibXC Density Thresholds  <==

    XC_HYB_GGA_XC_B3LYP:  1.00E-15

   => Molecular Quadrature <=

    Radial Scheme          =       TREUTLER
    Pruning Scheme         =           NONE
    Nuclear Scheme         =       TREUTLER

    Blocking Scheme        =         OCTREE
    BS radius alpha        =              1
    Pruning alpha          =              1
    Radial Points          =             75
    Spherical Points       =            302
    Total Points           =          41987
    Total Blocks           =            381
    Max Points             =            255
    Max Functions          =             32
    Weights Tolerance      =       1.00E-15

  -Total Gradient:
     Atom            X                  Y                   Z
    ------   -----------------  -----------------  -----------------
       1        0.000000000000     0.000000000000    -0.000115462501
       2       -0.000000000000     0.000000000000     0.000112116554

*** tstop() called on Joses-MacBook-Pro-2.local at Wed Jul 16 18:57:48 2025
Module time:
	user time   =       1.56 seconds =       0.03 minutes
	system time =       1.26 seconds =       0.02 minutes
	total time  =          0 seconds =       0.00 minutes
Total time:
	user time   =      63.85 seconds =       1.06 minutes
	system time =      60.26 seconds =       1.00 minutes
	total time  =         14 seconds =       0.23 minutes

    			-----------------------------------------

    			 OPTKING 3.0: for geometry optimizations

    			     By R.A. King, Bethel University

    			        with contributions from

    			    A.V. Copan, J. Cayton, A. Heide

    			-----------------------------------------

	                            ===> Fragment 1 <==

	 Z (Atomic Numbers)          Masses                          Geom
	       5.000000            11.009305          0.00000000  0.00000000  2.48591660
	      17.000000            34.968853          0.00000000  0.00000000 -0.78264549

	 - Coordinate -           - BOHR/RAD -       - ANG/DEG -
	 R(1,2)           =         3.268562           1.729649

	        --- Internal Coordinate Step in ANG or DEG, aJ/ANG or AJ/DEG ---
	-------------------------------------------------------------------------------
	           Coordinate      Previous         Force          Change          New
	           ----------      --------        ------          ------        ------
	               R(1,2)       1.72965        0.00094        0.00023       1.72987
	-------------------------------------------------------------------------------

	                                 ==> Convergence Check <==

	Measures of convergence in internal coordinates in au.

	Criteria marked as inactive (o), active & met (*), and active & unmet ( ).

	----------------------------------------------------------------------------------------------
	   Step    Total Energy     Delta E     Max Force     RMS Force      Max Disp      RMS Disp
	----------------------------------------------------------------------------------------------
	  Convergence Criteria     1.00e-06 *    3.00e-04 *             o    1.20e-03 *             o
	----------------------------------------------------------------------------------------------
	    11    -484.91862560   -1.22e-06      1.14e-04 *    1.14e-04 o    4.25e-04 *    4.25e-04 o  ~
	----------------------------------------------------------------------------------------------

Next Geometry in Ang
	Fragment 1 (Ang)

	    B   0.0000000000   0.0000000000   1.3156029420
	   Cl   0.0000000000   0.0000000000  -0.4142706884

    Final optimized geometry and variables:
    Molecular point group: c2v
    Full point group: C_inf_v

    Geometry (in Angstrom), charge = 0, multiplicity = 3:

    B            0.000000000000     0.000000000000     1.315490412719
    CL           0.000000000000     0.000000000000    -0.414158159076

    Psi4 stopped on: Wednesday, 16 July 2025 06:57PM
    Psi4 wall time for execution: 0:00:14.36

*** Psi4 exiting successfully. Buy a developer a beer!
