                               Psi4 1.9.1 release

  ==> Input File <==

--------------------------------------------------------------------------
molecule {
0 3
S   0.00000        0.60000        0.00000
Ar   0.00000       -0.60000        0.00000
}

set {
basis              cc-pvdz
reference          uks
maxiter            500
geom_maxiter       500
DAMPING_PERCENTAGE 1
guess              SAP
}

optimize('b3lyp')
--------------------------------------------------------------------------

    Molecular point group: c2v
  Charge       = 0
  Multiplicity = 3
  Basis Set: CC-PVDZ
    Blend: CC-PVDZ
  Basis Set: (CC-PVDZ AUX)
    Blend: CC-PVDZ-JKFIT
  @DF-UKS Final Energy:  -924.02440353033728
    Total Energy =                       -924.0244035303372812
 Dipole X            :          0.0000000            0.0000000            0.0000000
 Dipole Y            :          0.0000000            0.0000000            0.0000000
 Dipole Z            :         -3.8839364            2.0144189           -1.8695175
 Magnitude           :                                                    1.8695175
    Molecular point group: c2v
  Basis Set: CC-PVDZ
    Blend: CC-PVDZ
  Basis Set: (CC-PVDZ AUX)
    Blend: CC-PVDZ-JKFIT
  Basis Set: CC-PVDZ
    Blend: CC-PVDZ
  Basis Set: (CC-PVDZ AUX)
    Blend: CC-PVDZ-JKFIT
  @DF-UKS Final Energy:  -924.07038787473584
    Total Energy =                       -924.0703878747358431
  Basis Set: CC-PVDZ
    Blend: CC-PVDZ
  Basis Set: (CC-PVDZ AUX)
    Blend: CC-PVDZ-JKFIT
  Basis Set: CC-PVDZ
    Blend: CC-PVDZ
  @DF-UKS Final Energy:  -924.15478142808479
    Total Energy =                       -924.1547814280847888
  @DF-UKS Final Energy:  -924.42316255249318
    Total Energy =                       -924.4231625524931815
  @DF-UKS Final Energy:  -924.95977034134421
    Total Energy =                       -924.9597703413442105
  @DF-UKS Final Energy:  -925.21073035601296
    Total Energy =                       -925.2107303560129594
  @DF-UKS Final Energy:  -925.39757623430910
    Total Energy =                       -925.3975762343092129
  @DF-UKS Final Energy:  -925.52010665909506
    Total Energy =                       -925.5201066590950632
  @DF-UKS Final Energy:  -925.59158249911536
    Total Energy =                       -925.5915824991153613
  @DF-UKS Final Energy:  -925.62860840846702
    Total Energy =                       -925.6286084084670165
  @DF-UKS Final Energy:  -925.64792238216512
    Total Energy =                       -925.6479223821650066
  @DF-UKS Final Energy:  -925.65782621759513
    Total Energy =                       -925.6578262175951295
  @DF-UKS Final Energy:  -925.66279069812254
    Total Energy =                       -925.6627906981225351
  @DF-UKS Final Energy:  -925.66522450500793
    Total Energy =                       -925.6652245050078136
  @DF-UKS Final Energy:  -925.66639885477070
    Total Energy =                       -925.6663988547707049
  @DF-UKS Final Energy:  -925.66695473705465
    Total Energy =                       -925.6669547370546525
  @DF-UKS Final Energy:  -925.66721004065607
    Total Energy =                       -925.6672100406559593
  @DF-UKS Final Energy:  -925.66732226196029
    Total Energy =                       -925.6673222619602939
  @DF-UKS Final Energy:  -925.66736707050779
    Total Energy =                       -925.6673670705077939
  @DF-UKS Final Energy:  -925.66737990641650
    Total Energy =                       -925.6673799064164996
  @DF-UKS Final Energy:  -925.66738529756310
    Total Energy =                       -925.6673852975632144
  Basis Set: (CC-PVDZ AUX)
    Blend: CC-PVDZ-JKFIT
  Basis Set: CC-PVDZ
    Blend: CC-PVDZ
  Basis Set: (CC-PVDZ AUX)
    Blend: CC-PVDZ-JKFIT
  @DF-UKS Final Energy:  -925.66738668350501
    Total Energy =                       -925.6673866835050148
  Basis Set: CC-PVDZ
    Blend: CC-PVDZ
  Basis Set: (CC-PVDZ AUX)
    Blend: CC-PVDZ-JKFIT
  Charge       = 0
  Multiplicity = 3
  Basis Set: CC-PVDZ
    Blend: CC-PVDZ
  Basis Set: (CC-PVDZ AUX)
    Blend: CC-PVDZ-JKFIT

    Orbital Energies [Eh]
    ---------------------

    Alpha Occupied:

       1A1  -115.100881     2A1   -88.929914     3A1   -11.136950
       4A1    -8.686902     1B2    -8.686798     1B1    -8.686782
       5A1    -7.988225     2B2    -5.957460     6A1    -5.957451
       2B1    -5.937683     7A1    -0.965191     8A1    -0.719649
       9A1    -0.423645     3B2    -0.422742     3B1    -0.422586
       4B2    -0.328526    10A1    -0.327998     4B1    -0.279978

    Alpha Virtual:

      11A1     0.420471    12A1     0.448200     5B2     0.453870
       5B1     0.484489    13A1     0.521037     6B2     0.522475
       6B1     0.560909     1A2     0.561192    14A1     0.574199
       7B2     0.582678     7B1     0.583560    15A1     0.628642
      16A1     0.738134     8B2     0.834898     8B1     0.834999
      17A1     0.835229     2A2     0.835241    18A1     0.836026

    Beta Occupied:

       1A1  -115.100841     2A1   -88.919128     3A1   -11.136912
       4A1    -8.686797     1B2    -8.686768     1B1    -8.686755
       5A1    -7.977219     2B2    -5.936100     6A1    -5.936084
       2B1    -5.931179     7A1    -0.965026     8A1    -0.626812
       9A1    -0.423209     3B2    -0.422695     3B1    -0.422545
       4B1    -0.253174

    Beta Virtual:

       4B2    -0.171028    10A1    -0.170810    11A1     0.454609
      12A1     0.489239     5B1     0.497265     5B2     0.503402
       6B2     0.582921     6B1     0.583114    13A1     0.615131
       1A2     0.618395     7B1     0.618610    14A1     0.624470
       7B2     0.630692    15A1     0.646029    16A1     0.740494
       8B2     0.835077     8B1     0.835172    17A1     0.835277
       2A2     0.835288    18A1     0.836409

    Final Occupation by Irrep:
             A1    A2    B1    B2
    DOCC [     9,    0,    4,    3 ]
    SOCC [     1,    0,    0,    1 ]
    NA   [    10,    0,    4,    4 ]
    NB   [     9,    0,    4,    3 ]

  @DF-UKS Final Energy:  -925.66738723089463

   => Energetics <=

    Nuclear Repulsion Energy =             38.1136904428817758
    One-Electron Energy =               -1354.1320964480114526
    Two-Electron Energy =                 435.8897268723636103
    DFT Exchange-Correlation Energy =     -45.5387080981285450
    Empirical Dispersion Energy =           0.0000000000000000
    VV10 Nonlocal Energy =                  0.0000000000000000
    Total Energy =                       -925.6673872308946329

  UHF NO Occupations:
  HONO-2 :    9 A1 1.9989827
  HONO-1 :    4 B2 1.0000000
  HONO-0 :   10 A1 1.0000000
  LUNO+0 :   11 A1 0.0010173
  LUNO+1 :    5 B1 0.0000978
  LUNO+2 :   12 A1 0.0000010
  LUNO+3 :    5 B2 0.0000000

Computation Completed

Properties will be evaluated at   0.000000,   0.000000,   0.000000 [a0]

Properties computed using the SCF density matrix

 Multipole Moments:

 ------------------------------------------------------------------------------------
     Multipole            Electronic (a.u.)      Nuclear  (a.u.)        Total (a.u.)
 ------------------------------------------------------------------------------------

 L = 1.  Multiply by 2.5417464519 to convert [e a0] to [Debye]
 Dipole X            :          0.0000000            0.0000000            0.0000000
 Dipole Y            :          0.0000000            0.0000000            0.0000000
 Dipole Z            :         -6.7285898            6.7124515           -0.0161383
 Magnitude           :                                                    0.0161383

 ------------------------------------------------------------------------------------

*** tstop() called on Joses-MacBook-Pro-2.local at Wed Jul 16 20:31:22 2025
Module time:
	user time   =       4.27 seconds =       0.07 minutes
	system time =       2.31 seconds =       0.04 minutes
	total time  =          1 seconds =       0.02 minutes
Total time:
	user time   =     224.79 seconds =       3.75 minutes
	system time =      77.93 seconds =       1.30 minutes
	total time  =         28 seconds =       0.47 minutes

*** tstart() called on Joses-MacBook-Pro-2.local
*** at Wed Jul 16 20:31:22 2025

         ------------------------------------------------------------
                                   SCF GRAD
                          Rob Parrish, Justin Turney,
                       Andy Simmonett, and Alex Sokolov
         ------------------------------------------------------------

  ==> Geometry <==

    Molecular point group: c2v
    Full point group: C_inf_v

    Geometry (in Angstrom), charge = 0, multiplicity = 3:

       Center              X                  Y                   Z               Mass
    ------------   -----------------  -----------------  -----------------  -----------------
         S            0.000000000000     0.000000000000     2.221401413907    31.972071174400
         AR           0.000000000000     0.000000000000    -1.777241459612    39.962383123700

  Nuclear repulsion =   38.113690442881776

  ==> Basis Set <==

  Basis Set: CC-PVDZ
    Blend: CC-PVDZ
    Number of shells: 16
    Number of basis functions: 36
    Number of Cartesian functions: 38
    Spherical Harmonics?: true
    Max angular momentum: 2

  ==> DFJKGrad: Density-Fitted SCF Gradients <==

    Gradient:                    1
    J tasked:                  Yes
    K tasked:                  Yes
    wK tasked:                  No
    OpenMP threads:              1
    Integrals threads:           1
    Memory [MiB]:              375
    Schwarz Cutoff:          1E-12
    Fitting Condition:       1E-10

   => Auxiliary Basis Set <=

  Basis Set: (CC-PVDZ AUX)
    Blend: CC-PVDZ-JKFIT
    Number of shells: 72
    Number of basis functions: 224
    Number of Cartesian functions: 260
    Spherical Harmonics?: true
    Max angular momentum: 3

  ==> DFT Potential <==

   => LibXC <=

    Version 6.2.2
    S. Lehtola, C. Steigemann, M. J.T. Oliveira, and M. A.L. Marques.,  SoftwareX 7, 1â€“5 (2018) (10.1016/j.softx.2017.11.002)

   => Composite Functional: B3LYP <=

    B3LYP Hyb-GGA Exchange-Correlation Functional

    P. J. Stephens, F. J. Devlin, C. F. Chabalowski, and M. J. Frisch.,  J. Phys. Chem. 98, 11623 (1994) (10.1021/j100096a001)

    Deriv               =              1
    GGA                 =           TRUE
    Meta                =          FALSE

    Exchange Hybrid     =           TRUE
    MP2 Hybrid          =          FALSE

   => Exchange Functionals <=

    0.0800   Slater exchange
    0.7200         Becke 88

   => Exact (HF) Exchange <=

    0.2000               HF

   => Correlation Functionals <=

    0.1900   Vosko, Wilk & Nusair (VWN5_RPA)
    0.8100   Lee, Yang & Parr

   => LibXC Density Thresholds  <==

    XC_HYB_GGA_XC_B3LYP:  1.00E-15

   => Molecular Quadrature <=

    Radial Scheme          =       TREUTLER
    Pruning Scheme         =           NONE
    Nuclear Scheme         =       TREUTLER

    Blocking Scheme        =         OCTREE
    BS radius alpha        =              1
    Pruning alpha          =              1
    Radial Points          =             75
    Spherical Points       =            302
    Total Points           =          40436
    Total Blocks           =            404
    Max Points             =            253
    Max Functions          =             36
    Weights Tolerance      =       1.00E-15

  -Total Gradient:
     Atom            X                  Y                   Z
    ------   -----------------  -----------------  -----------------
       1       -0.000000000000     0.000000000000    -0.000013100168
       2        0.000000000000     0.000000000000     0.000004466596

*** tstop() called on Joses-MacBook-Pro-2.local at Wed Jul 16 20:31:22 2025
Module time:
	user time   =       1.51 seconds =       0.03 minutes
	system time =       1.69 seconds =       0.03 minutes
	total time  =          0 seconds =       0.00 minutes
Total time:
	user time   =     226.30 seconds =       3.77 minutes
	system time =      79.62 seconds =       1.33 minutes
	total time  =         28 seconds =       0.47 minutes

    			-----------------------------------------

    			 OPTKING 3.0: for geometry optimizations

    			     By R.A. King, Bethel University

    			        with contributions from

    			    A.V. Copan, J. Cayton, A. Heide

    			-----------------------------------------

	                            ===> Fragment 1 <==

	 Z (Atomic Numbers)          Masses                          Geom
	      16.000000            31.972071          0.00000000  0.00000000  4.19784029
	      18.000000            39.962383          0.00000000  0.00000000 -3.35849962

	 - Coordinate -           - BOHR/RAD -       - ANG/DEG -
	 R(1,2)           =         7.556340           3.998643

	        --- Internal Coordinate Step in ANG or DEG, aJ/ANG or AJ/DEG ---
	-------------------------------------------------------------------------------
	           Coordinate      Previous         Force          Change          New
	           ----------      --------        ------          ------        ------
	               R(1,2)       3.99864        0.00007        0.01237       4.01101
	-------------------------------------------------------------------------------

	                                 ==> Convergence Check <==

	Measures of convergence in internal coordinates in au.

	Criteria marked as inactive (o), active & met (*), and active & unmet ( ).

	----------------------------------------------------------------------------------------------
	   Step    Total Energy     Delta E     Max Force     RMS Force      Max Disp      RMS Disp
	----------------------------------------------------------------------------------------------
	  Convergence Criteria     1.00e-06 *    3.00e-04 *             o    1.20e-03 *             o
	----------------------------------------------------------------------------------------------
	    23    -925.66738723   -5.47e-07 *    8.78e-06 *    8.78e-06 o    2.34e-02      2.34e-02 o  ~
	----------------------------------------------------------------------------------------------

Next Geometry in Ang
	Fragment 1 (Ang)

	    S   0.0000000000   0.0000000000   2.2275842176
	   Ar   0.0000000000   0.0000000000  -1.7834242633

    Final optimized geometry and variables:
    Molecular point group: c2v
    Full point group: C_inf_v

    Geometry (in Angstrom), charge = 0, multiplicity = 3:

    S            0.000000000000     0.000000000000     2.221401413907
    AR           0.000000000000     0.000000000000    -1.777241459612

    Psi4 stopped on: Wednesday, 16 July 2025 08:31PM
    Psi4 wall time for execution: 0:00:29.50

*** Psi4 exiting successfully. Buy a developer a beer!
