                               Psi4 1.9.1 release

  ==> Input File <==

--------------------------------------------------------------------------
molecule {
0 3
O   0.00000        0.60000        0.00000
Ne   0.00000       -0.60000        0.00000
}

set {
basis              cc-pvdz
reference          uks
maxiter            500
geom_maxiter       500
DAMPING_PERCENTAGE 1
guess              SAP
}

optimize('b3lyp')
--------------------------------------------------------------------------

    Molecular point group: c2v
  Charge       = 0
  Multiplicity = 3
  Basis Set: CC-PVDZ
    Blend: CC-PVDZ
  Basis Set: (CC-PVDZ AUX)
    Blend: CC-PVDZ-JKFIT
  @DF-UKS Final Energy:  -203.56079914859171
    Total Energy =                       -203.5607991485917125
 Dipole X            :          0.0000000            0.0000000            0.0000000
 Dipole Y            :          0.0000000            0.0000000            0.0000000
 Dipole Z            :         -0.8682373           -0.0006065           -0.8688438
 Magnitude           :                                                    0.8688438
    Molecular point group: c2v
  Basis Set: CC-PVDZ
    Blend: CC-PVDZ
  Basis Set: (CC-PVDZ AUX)
    Blend: CC-PVDZ-JKFIT
  Basis Set: CC-PVDZ
    Blend: CC-PVDZ
  Basis Set: (CC-PVDZ AUX)
    Blend: CC-PVDZ-JKFIT
  @DF-UKS Final Energy:  -203.84738460870568
    Total Energy =                       -203.8473846087056813
  Basis Set: CC-PVDZ
    Blend: CC-PVDZ
  Basis Set: (CC-PVDZ AUX)
    Blend: CC-PVDZ-JKFIT
  Basis Set: CC-PVDZ
    Blend: CC-PVDZ
  @DF-UKS Final Energy:  -203.90348007098154
    Total Energy =                       -203.9034800709815443
  @DF-UKS Final Energy:  -203.94391818400879
    Total Energy =                       -203.9439181840087940
  @DF-UKS Final Energy:  -203.96212277717362
    Total Energy =                       -203.9621227771736187
  @DF-UKS Final Energy:  -203.97135164123426
    Total Energy =                       -203.9713516412342642
  @DF-UKS Final Energy:  -203.97577568446587
    Total Energy =                       -203.9757756844659013
  @DF-UKS Final Energy:  -203.97780255814206
    Total Energy =                       -203.9778025581420593
  @DF-UKS Final Energy:  -203.97846518428835
    Total Energy =                       -203.9784651842883534
  @DF-UKS Final Energy:  -203.97881279030113
    Total Energy =                       -203.9788127903011343
  @DF-UKS Final Energy:  -203.97895339778665
    Total Energy =                       -203.9789533977866540
  @DF-UKS Final Energy:  -203.97898602702693
    Total Energy =                       -203.9789860270269344
  @DF-UKS Final Energy:  -203.97899492395240
    Total Energy =                       -203.9789949239523992
  Basis Set: (CC-PVDZ AUX)
    Blend: CC-PVDZ-JKFIT
  Basis Set: CC-PVDZ
    Blend: CC-PVDZ
  Basis Set: (CC-PVDZ AUX)
    Blend: CC-PVDZ-JKFIT
  @DF-UKS Final Energy:  -203.97899799800939
    Total Energy =                       -203.9789979980093904
  Basis Set: CC-PVDZ
    Blend: CC-PVDZ
  Basis Set: (CC-PVDZ AUX)
    Blend: CC-PVDZ-JKFIT
  Charge       = 0
  Multiplicity = 3
  Basis Set: CC-PVDZ
    Blend: CC-PVDZ
  Basis Set: (CC-PVDZ AUX)
    Blend: CC-PVDZ-JKFIT

    Orbital Energies [Eh]
    ---------------------

    Alpha Occupied:

       1A1   -30.966134     2A1   -19.270218     3A1    -1.431037
       4A1    -1.001502     5A1    -0.542618     1B1    -0.539122
       1B2    -0.538883     2B1    -0.439492     6A1    -0.436538
       2B2    -0.362834

    Alpha Virtual:

       7A1     0.799735     3B1     0.818694     3B2     0.866283
       8A1     1.055667     4B1     1.362852     4B2     1.363445
       9A1     1.443296    10A1     1.847109     5B1     2.443939
      11A1     2.445573     1A2     2.502158     5B2     2.502358
      12A1     2.523379     6B1     4.725856     6B2     4.725987
       2A2     4.726598    13A1     4.726600    14A1     4.726756

    Beta Occupied:

       1A1   -30.965817     2A1   -19.220355     3A1    -1.430442
       4A1    -0.843574     5A1    -0.539562     1B1    -0.538814
       1B2    -0.538651     2B2    -0.311409

    Beta Virtual:

       2B1    -0.158227     6A1    -0.157101     3B2     0.896030
       7A1     0.904065     3B1     0.932572     8A1     1.132910
       4B1     1.363184     4B2     1.363500     9A1     1.454956
      10A1     1.849925     1A2     2.593011     5B2     2.593096
      11A1     2.600662     5B1     2.617447    12A1     2.618809
       6B1     4.726521     6B2     4.726635     2A2     4.726771
      13A1     4.726798    14A1     4.727547

    Final Occupation by Irrep:
             A1    A2    B1    B2
    DOCC [     5,    0,    1,    2 ]
    SOCC [     1,    0,    1,    0 ]
    NA   [     6,    0,    2,    2 ]
    NB   [     5,    0,    1,    2 ]

  @DF-UKS Final Energy:  -203.97899868408328

   => Energetics <=

    Nuclear Repulsion Energy =             16.3431932452699726
    One-Electron Energy =                -318.5600529173529480
    Two-Electron Energy =                 115.2068931639778384
    DFT Exchange-Correlation Energy =     -16.9690321759781213
    Empirical Dispersion Energy =           0.0000000000000000
    VV10 Nonlocal Energy =                  0.0000000000000000
    Total Energy =                       -203.9789986840832796

  UHF NO Occupations:
  HONO-2 :    5 A1 1.9992906
  HONO-1 :    6 A1 1.0000000
  HONO-0 :    2 B1 1.0000000
  LUNO+0 :    7 A1 0.0007094
  LUNO+1 :    3 B2 0.0002416
  LUNO+2 :    8 A1 0.0000039
  LUNO+3 :    3 B1 0.0000001

Computation Completed

Properties will be evaluated at   0.000000,   0.000000,   0.000000 [a0]

Properties computed using the SCF density matrix

 Multipole Moments:

 ------------------------------------------------------------------------------------
     Multipole            Electronic (a.u.)      Nuclear  (a.u.)        Total (a.u.)
 ------------------------------------------------------------------------------------

 L = 1.  Multiply by 2.5417464519 to convert [e a0] to [Debye]
 Dipole X            :          0.0000000            0.0000000            0.0000000
 Dipole Y            :          0.0000000            0.0000000            0.0000000
 Dipole Z            :         -0.0271016           -0.0013092           -0.0284108
 Magnitude           :                                                    0.0284108

 ------------------------------------------------------------------------------------

*** tstop() called on Joses-MacBook-Pro-2.local at Wed Jul 16 19:18:10 2025
Module time:
	user time   =       3.95 seconds =       0.07 minutes
	system time =       2.46 seconds =       0.04 minutes
	total time  =          0 seconds =       0.00 minutes
Total time:
	user time   =      78.39 seconds =       1.31 minutes
	system time =      66.25 seconds =       1.10 minutes
	total time  =         14 seconds =       0.23 minutes

*** tstart() called on Joses-MacBook-Pro-2.local
*** at Wed Jul 16 19:18:10 2025

         ------------------------------------------------------------
                                   SCF GRAD
                          Rob Parrish, Justin Turney,
                       Andy Simmonett, and Alex Sokolov
         ------------------------------------------------------------

  ==> Geometry <==

    Molecular point group: c2v
    Full point group: C_inf_v

    Geometry (in Angstrom), charge = 0, multiplicity = 3:

       Center              X                  Y                   Z               Mass
    ------------   -----------------  -----------------  -----------------  -----------------
         O            0.000000000000     0.000000000000     1.439030780259    15.994914619570
         NE           0.000000000000     0.000000000000    -1.151293902211    19.992440176200

  Nuclear repulsion =   16.343193245269973

  ==> Basis Set <==

  Basis Set: CC-PVDZ
    Blend: CC-PVDZ
    Number of shells: 12
    Number of basis functions: 28
    Number of Cartesian functions: 30
    Spherical Harmonics?: true
    Max angular momentum: 2

  ==> DFJKGrad: Density-Fitted SCF Gradients <==

    Gradient:                    1
    J tasked:                  Yes
    K tasked:                  Yes
    wK tasked:                  No
    OpenMP threads:              1
    Integrals threads:           1
    Memory [MiB]:              375
    Schwarz Cutoff:          1E-12
    Fitting Condition:       1E-10

   => Auxiliary Basis Set <=

  Basis Set: (CC-PVDZ AUX)
    Blend: CC-PVDZ-JKFIT
    Number of shells: 48
    Number of basis functions: 140
    Number of Cartesian functions: 162
    Spherical Harmonics?: true
    Max angular momentum: 3

  ==> DFT Potential <==

   => LibXC <=

    Version 6.2.2
    S. Lehtola, C. Steigemann, M. J.T. Oliveira, and M. A.L. Marques.,  SoftwareX 7, 1â€“5 (2018) (10.1016/j.softx.2017.11.002)

   => Composite Functional: B3LYP <=

    B3LYP Hyb-GGA Exchange-Correlation Functional

    P. J. Stephens, F. J. Devlin, C. F. Chabalowski, and M. J. Frisch.,  J. Phys. Chem. 98, 11623 (1994) (10.1021/j100096a001)

    Deriv               =              1
    GGA                 =           TRUE
    Meta                =          FALSE

    Exchange Hybrid     =           TRUE
    MP2 Hybrid          =          FALSE

   => Exchange Functionals <=

    0.0800   Slater exchange
    0.7200         Becke 88

   => Exact (HF) Exchange <=

    0.2000               HF

   => Correlation Functionals <=

    0.1900   Vosko, Wilk & Nusair (VWN5_RPA)
    0.8100   Lee, Yang & Parr

   => LibXC Density Thresholds  <==

    XC_HYB_GGA_XC_B3LYP:  1.00E-15

   => Molecular Quadrature <=

    Radial Scheme          =       TREUTLER
    Pruning Scheme         =           NONE
    Nuclear Scheme         =       TREUTLER

    Blocking Scheme        =         OCTREE
    BS radius alpha        =              1
    Pruning alpha          =              1
    Radial Points          =             75
    Spherical Points       =            302
    Total Points           =          42389
    Total Blocks           =            378
    Max Points             =            256
    Max Functions          =             28
    Weights Tolerance      =       1.00E-15

  -Total Gradient:
     Atom            X                  Y                   Z
    ------   -----------------  -----------------  -----------------
       1        0.000000000000     0.000000000000    -0.000018980752
       2       -0.000000000000    -0.000000000000     0.000035042104

*** tstop() called on Joses-MacBook-Pro-2.local at Wed Jul 16 19:18:10 2025
Module time:
	user time   =       0.52 seconds =       0.01 minutes
	system time =       1.28 seconds =       0.02 minutes
	total time  =          0 seconds =       0.00 minutes
Total time:
	user time   =      78.91 seconds =       1.32 minutes
	system time =      67.54 seconds =       1.13 minutes
	total time  =         14 seconds =       0.23 minutes

    			-----------------------------------------

    			 OPTKING 3.0: for geometry optimizations

    			     By R.A. King, Bethel University

    			        with contributions from

    			    A.V. Copan, J. Cayton, A. Heide

    			-----------------------------------------

	                            ===> Fragment 1 <==

	 Z (Atomic Numbers)          Masses                          Geom
	       8.000000            15.994915          0.00000000  0.00000000  2.71937406
	      10.000000            19.992440          0.00000000  0.00000000 -2.17563017

	 - Coordinate -           - BOHR/RAD -       - ANG/DEG -
	 R(1,2)           =         4.895004           2.590325

	        --- Internal Coordinate Step in ANG or DEG, aJ/ANG or AJ/DEG ---
	-------------------------------------------------------------------------------
	           Coordinate      Previous         Force          Change          New
	           ----------      --------        ------          ------        ------
	               R(1,2)       2.59032        0.00022        0.00266       2.59299
	-------------------------------------------------------------------------------

	                                 ==> Convergence Check <==

	Measures of convergence in internal coordinates in au.

	Criteria marked as inactive (o), active & met (*), and active & unmet ( ).

	----------------------------------------------------------------------------------------------
	   Step    Total Energy     Delta E     Max Force     RMS Force      Max Disp      RMS Disp
	----------------------------------------------------------------------------------------------
	  Convergence Criteria     1.00e-06 *    3.00e-04 *             o    1.20e-03 *             o
	----------------------------------------------------------------------------------------------
	    15    -203.97899868   -6.86e-07 *    2.70e-05 *    2.70e-05 o    5.03e-03      5.03e-03 o  ~
	----------------------------------------------------------------------------------------------

Next Geometry in Ang
	Fragment 1 (Ang)

	    O   0.0000000000   0.0000000000   1.4403622188
	   Ne   0.0000000000   0.0000000000  -1.1526253407

    Final optimized geometry and variables:
    Molecular point group: c2v
    Full point group: C_inf_v

    Geometry (in Angstrom), charge = 0, multiplicity = 3:

    O            0.000000000000     0.000000000000     1.439030780259
    NE           0.000000000000     0.000000000000    -1.151293902211

    Psi4 stopped on: Wednesday, 16 July 2025 07:18PM
    Psi4 wall time for execution: 0:00:15.37

*** Psi4 exiting successfully. Buy a developer a beer!
