                               Psi4 1.9.1 release

  ==> Input File <==

--------------------------------------------------------------------------
molecule {
0 3
F   0.00000        0.60000        0.00000
F   0.00000       -0.60000        0.00000
}

set {
basis              cc-pvdz
reference          uks
maxiter            500
geom_maxiter       500
DAMPING_PERCENTAGE 1
guess              SAP
}

optimize('b3lyp')
--------------------------------------------------------------------------

    Molecular point group: d2h
  Charge       = 0
  Multiplicity = 3
  Basis Set: CC-PVDZ
    Blend: CC-PVDZ
  Basis Set: (CC-PVDZ AUX)
    Blend: CC-PVDZ-JKFIT
  @DF-UKS Final Energy:  -199.21268041469534
    Total Energy =                       -199.2126804146953418
 Dipole X            :          0.0000000            0.0000000            0.0000000
 Dipole Y            :          0.0000000            0.0000000            0.0000000
 Dipole Z            :          0.0000000            0.0000000            0.0000000
 Magnitude           :                                                    0.0000000
    Molecular point group: d2h
  Basis Set: CC-PVDZ
    Blend: CC-PVDZ
  Basis Set: (CC-PVDZ AUX)
    Blend: CC-PVDZ-JKFIT
  Basis Set: CC-PVDZ
    Blend: CC-PVDZ
  Basis Set: (CC-PVDZ AUX)
    Blend: CC-PVDZ-JKFIT
  @DF-UKS Final Energy:  -199.42584699151161
    Total Energy =                       -199.4258469915116052
  Basis Set: CC-PVDZ
    Blend: CC-PVDZ
  Basis Set: (CC-PVDZ AUX)
    Blend: CC-PVDZ-JKFIT
  Basis Set: CC-PVDZ
    Blend: CC-PVDZ
  @DF-UKS Final Energy:  -199.44493695938479
    Total Energy =                       -199.4449369593847905
  @DF-UKS Final Energy:  -199.45776483226507
    Total Energy =                       -199.4577648322650703
  @DF-UKS Final Energy:  -199.46017907957307
    Total Energy =                       -199.4601790795730665
  @DF-UKS Final Energy:  -199.46073666517981
    Total Energy =                       -199.4607366651798088
  @DF-UKS Final Energy:  -199.46088119519831
    Total Energy =                       -199.4608811951983398
  @DF-UKS Final Energy:  -199.46092688853363
    Total Energy =                       -199.4609268885336348
  Basis Set: (CC-PVDZ AUX)
    Blend: CC-PVDZ-JKFIT
  Basis Set: CC-PVDZ
    Blend: CC-PVDZ
  Basis Set: (CC-PVDZ AUX)
    Blend: CC-PVDZ-JKFIT
  @DF-UKS Final Energy:  -199.46093626092329
    Total Energy =                       -199.4609362609233187
  Basis Set: CC-PVDZ
    Blend: CC-PVDZ
  Basis Set: (CC-PVDZ AUX)
    Blend: CC-PVDZ-JKFIT
  Charge       = 0
  Multiplicity = 3
  Basis Set: CC-PVDZ
    Blend: CC-PVDZ
  Basis Set: (CC-PVDZ AUX)
    Blend: CC-PVDZ-JKFIT

    Orbital Energies [Eh]
    ---------------------

    Alpha Occupied:

       1B2u  -24.799127     1Ag   -24.799076     2Ag    -1.270259
       2B2u   -1.187863     3Ag    -0.585014     1B3u   -0.533499
       1B1u   -0.487203     1B1g   -0.484017     1B3g   -0.435186
       3B2u   -0.408067

    Alpha Virtual:

       2B3u    0.972229     2B1u    1.002805     4B2u    1.107990
       4Ag     1.152139     2B1g    1.165590     2B3g    1.195298
       5Ag     1.336037     5B2u    1.910196     6Ag     3.368468
       3B3u    3.424657     3B1u    3.461402     1B2g    3.481611
       6B2u    3.484517     1Au     3.485497     7Ag     3.485815
       3B1g    3.485898     3B3g    3.522784     7B2u    3.824599

    Beta Occupied:

       1Ag   -24.764188     1B2u  -24.764179     2Ag    -1.181925
       2B2u   -1.092214     3Ag    -0.458334     1B1u   -0.454845
       1B3u   -0.400383     1B3g   -0.400179

    Beta Virtual:

       1B1g   -0.284211     3B2u   -0.190821     2B1u    1.021080
       2B3u    1.038375     4B2u    1.164364     2B3g    1.214036
       4Ag     1.224525     2B1g    1.229482     5Ag     1.381287
       5B2u    1.965401     6Ag     3.457413     3B1u    3.518541
       3B3u    3.524313     1B2g    3.538752     7Ag     3.541367
       1Au     3.543478     6B2u    3.545981     3B3g    3.580838
       3B1g    3.587636     7B2u    3.904410

    Final Occupation by Irrep:
             Ag   B1g   B2g   B3g    Au   B1u   B2u   B3u
    DOCC [     3,    0,    0,    1,    0,    1,    2,    1 ]
    SOCC [     0,    1,    0,    0,    0,    0,    1,    0 ]
    NA   [     3,    1,    0,    1,    0,    1,    3,    1 ]
    NB   [     3,    0,    0,    1,    0,    1,    2,    1 ]

  @DF-UKS Final Energy:  -199.46093679033811

   => Energetics <=

    Nuclear Repulsion Energy =             24.7144441606807277
    One-Electron Energy =                -327.8215898361009977
    Two-Electron Energy =                 120.4072328525200390
    DFT Exchange-Correlation Energy =     -16.7610239674378825
    Empirical Dispersion Energy =           0.0000000000000000
    VV10 Nonlocal Energy =                  0.0000000000000000
    Total Energy =                       -199.4609367903381099

  UHF NO Occupations:
  HONO-2 :    1B3u 1.9987549
  HONO-1 :    1B1g 1.0000000
  HONO-0 :    3B2u 1.0000000
  LUNO+0 :    2B3u 0.0012451
  LUNO+1 :    4 Ag 0.0012029
  LUNO+2 :    5 Ag 0.0001516
  LUNO+3 :    4B2u 0.0001388

Computation Completed

Properties will be evaluated at   0.000000,   0.000000,   0.000000 [a0]

Properties computed using the SCF density matrix

 Multipole Moments:

 ------------------------------------------------------------------------------------
     Multipole            Electronic (a.u.)      Nuclear  (a.u.)        Total (a.u.)
 ------------------------------------------------------------------------------------

 L = 1.  Multiply by 2.5417464519 to convert [e a0] to [Debye]
 Dipole X            :          0.0000000            0.0000000            0.0000000
 Dipole Y            :          0.0000000            0.0000000            0.0000000
 Dipole Z            :          0.0000000            0.0000000            0.0000000
 Magnitude           :                                                    0.0000000

 ------------------------------------------------------------------------------------

*** tstop() called on Joses-MacBook-Pro-2.local at Wed Jul 16 19:25:04 2025
Module time:
	user time   =       2.41 seconds =       0.04 minutes
	system time =       2.45 seconds =       0.04 minutes
	total time  =          0 seconds =       0.00 minutes
Total time:
	user time   =      34.52 seconds =       0.58 minutes
	system time =      43.48 seconds =       0.72 minutes
	total time  =          7 seconds =       0.12 minutes

*** tstart() called on Joses-MacBook-Pro-2.local
*** at Wed Jul 16 19:25:04 2025

         ------------------------------------------------------------
                                   SCF GRAD
                          Rob Parrish, Justin Turney,
                       Andy Simmonett, and Alex Sokolov
         ------------------------------------------------------------

  ==> Geometry <==

    Molecular point group: d2h
    Full point group: D_inf_h

    Geometry (in Angstrom), charge = 0, multiplicity = 3:

       Center              X                  Y                   Z               Mass
    ------------   -----------------  -----------------  -----------------  -----------------
         F           -0.000000000000     0.867172123832     0.000000000000    18.998403162730
         F            0.000000000000    -0.867172123832     0.000000000000    18.998403162730

  Nuclear repulsion =   24.714444160680728

  ==> Basis Set <==

  Basis Set: CC-PVDZ
    Blend: CC-PVDZ
    Number of shells: 12
    Number of basis functions: 28
    Number of Cartesian functions: 30
    Spherical Harmonics?: true
    Max angular momentum: 2

  ==> DFJKGrad: Density-Fitted SCF Gradients <==

    Gradient:                    1
    J tasked:                  Yes
    K tasked:                  Yes
    wK tasked:                  No
    OpenMP threads:              1
    Integrals threads:           1
    Memory [MiB]:              375
    Schwarz Cutoff:          1E-12
    Fitting Condition:       1E-10

   => Auxiliary Basis Set <=

  Basis Set: (CC-PVDZ AUX)
    Blend: CC-PVDZ-JKFIT
    Number of shells: 48
    Number of basis functions: 140
    Number of Cartesian functions: 162
    Spherical Harmonics?: true
    Max angular momentum: 3

  ==> DFT Potential <==

   => LibXC <=

    Version 6.2.2
    S. Lehtola, C. Steigemann, M. J.T. Oliveira, and M. A.L. Marques.,  SoftwareX 7, 1â€“5 (2018) (10.1016/j.softx.2017.11.002)

   => Composite Functional: B3LYP <=

    B3LYP Hyb-GGA Exchange-Correlation Functional

    P. J. Stephens, F. J. Devlin, C. F. Chabalowski, and M. J. Frisch.,  J. Phys. Chem. 98, 11623 (1994) (10.1021/j100096a001)

    Deriv               =              1
    GGA                 =           TRUE
    Meta                =          FALSE

    Exchange Hybrid     =           TRUE
    MP2 Hybrid          =          FALSE

   => Exchange Functionals <=

    0.0800   Slater exchange
    0.7200         Becke 88

   => Exact (HF) Exchange <=

    0.2000               HF

   => Correlation Functionals <=

    0.1900   Vosko, Wilk & Nusair (VWN5_RPA)
    0.8100   Lee, Yang & Parr

   => LibXC Density Thresholds  <==

    XC_HYB_GGA_XC_B3LYP:  1.00E-15

   => Molecular Quadrature <=

    Radial Scheme          =       TREUTLER
    Pruning Scheme         =           NONE
    Nuclear Scheme         =       TREUTLER

    Blocking Scheme        =         OCTREE
    BS radius alpha        =              1
    Pruning alpha          =              1
    Radial Points          =             75
    Spherical Points       =            302
    Total Points           =          42086
    Total Blocks           =            384
    Max Points             =            254
    Max Functions          =             28
    Weights Tolerance      =       1.00E-15

  -Total Gradient:
     Atom            X                  Y                   Z
    ------   -----------------  -----------------  -----------------
       1        0.000000000000    -0.000055807057     0.000000000000
       2       -0.000000000000     0.000055807057    -0.000000000000

*** tstop() called on Joses-MacBook-Pro-2.local at Wed Jul 16 19:25:05 2025
Module time:
	user time   =       0.47 seconds =       0.01 minutes
	system time =       1.07 seconds =       0.02 minutes
	total time  =          1 seconds =       0.02 minutes
Total time:
	user time   =      34.99 seconds =       0.58 minutes
	system time =      44.55 seconds =       0.74 minutes
	total time  =          8 seconds =       0.13 minutes

    			-----------------------------------------

    			 OPTKING 3.0: for geometry optimizations

    			     By R.A. King, Bethel University

    			        with contributions from

    			    A.V. Copan, J. Cayton, A. Heide

    			-----------------------------------------

	                            ===> Fragment 1 <==

	 Z (Atomic Numbers)          Masses                          Geom
	       9.000000            18.998403         -0.00000000  1.63871782  0.00000000
	       9.000000            18.998403          0.00000000 -1.63871782  0.00000000

	 - Coordinate -           - BOHR/RAD -       - ANG/DEG -
	 R(1,2)           =         3.277436           1.734344

	        --- Internal Coordinate Step in ANG or DEG, aJ/ANG or AJ/DEG ---
	-------------------------------------------------------------------------------
	           Coordinate      Previous         Force          Change          New
	           ----------      --------        ------          ------        ------
	               R(1,2)       1.73434        0.00046        0.00017       1.73452
	-------------------------------------------------------------------------------

	                                 ==> Convergence Check <==

	Measures of convergence in internal coordinates in au.

	Criteria marked as inactive (o), active & met (*), and active & unmet ( ).

	----------------------------------------------------------------------------------------------
	   Step    Total Energy     Delta E     Max Force     RMS Force      Max Disp      RMS Disp
	----------------------------------------------------------------------------------------------
	  Convergence Criteria     1.00e-06 *    3.00e-04 *             o    1.20e-03 *             o
	----------------------------------------------------------------------------------------------
	    10    -199.46093679   -5.29e-07 *    5.58e-05 *    5.58e-05 o    3.28e-04 *    3.28e-04 o  ~
	----------------------------------------------------------------------------------------------

Next Geometry in Ang
	Fragment 1 (Ang)

	    F  -0.0000000000   0.8672589069   0.0000000000
	    F   0.0000000000  -0.8672589069   0.0000000000

    Final optimized geometry and variables:
    Molecular point group: d2h
    Full point group: D_inf_h

    Geometry (in Angstrom), charge = 0, multiplicity = 3:

    F           -0.000000000000     0.867172123832     0.000000000000
    F            0.000000000000    -0.867172123832     0.000000000000

    Psi4 stopped on: Wednesday, 16 July 2025 07:25PM
    Psi4 wall time for execution: 0:00:08.11

*** Psi4 exiting successfully. Buy a developer a beer!
