                               Psi4 1.9.1 release

  ==> Input File <==

--------------------------------------------------------------------------
molecule {
0 3
O   0.00000        0.60000        0.00000
Si   0.00000       -0.60000        0.00000
}

set {
basis              cc-pvdz
reference          uks
maxiter            500
geom_maxiter       500
DAMPING_PERCENTAGE 1
guess              SAP
}

optimize('b3lyp')
--------------------------------------------------------------------------

    Molecular point group: c2v
  Charge       = 0
  Multiplicity = 3
  Basis Set: CC-PVDZ
    Blend: CC-PVDZ
  Basis Set: (CC-PVDZ AUX)
    Blend: CC-PVDZ-JKFIT
  @DF-UKS Final Energy:  -364.32529636400989
    Total Energy =                       -364.3252963640098301
 Dipole X            :          0.0000000            0.0000000            0.0000000
 Dipole Y            :          0.0000000            0.0000000            0.0000000
 Dipole Z            :         -0.7874583           -0.0058478           -0.7933060
 Magnitude           :                                                    0.7933060
    Molecular point group: c2v
  Basis Set: CC-PVDZ
    Blend: CC-PVDZ
  Basis Set: (CC-PVDZ AUX)
    Blend: CC-PVDZ-JKFIT
  Basis Set: CC-PVDZ
    Blend: CC-PVDZ
  Basis Set: (CC-PVDZ AUX)
    Blend: CC-PVDZ-JKFIT
  @DF-UKS Final Energy:  -364.48736311251571
    Total Energy =                       -364.4873631125156521
  Basis Set: CC-PVDZ
    Blend: CC-PVDZ
  Basis Set: (CC-PVDZ AUX)
    Blend: CC-PVDZ-JKFIT
  Basis Set: CC-PVDZ
    Blend: CC-PVDZ
  @DF-UKS Final Energy:  -364.55454543248845
    Total Energy =                       -364.5545454324884531
  @DF-UKS Final Energy:  -364.57457045712994
    Total Energy =                       -364.5745704571299370
  @DF-UKS Final Energy:  -364.58414054351272
    Total Energy =                       -364.5841405435127172
  @DF-UKS Final Energy:  -364.58671624387398
    Total Energy =                       -364.5867162438740365
  @DF-UKS Final Energy:  -364.58751876032881
    Total Energy =                       -364.5875187603287486
  @DF-UKS Final Energy:  -364.58785861395438
    Total Energy =                       -364.5878586139543813
  @DF-UKS Final Energy:  -364.58793217682086
    Total Energy =                       -364.5879321768208570
  Basis Set: (CC-PVDZ AUX)
    Blend: CC-PVDZ-JKFIT
  Basis Set: CC-PVDZ
    Blend: CC-PVDZ
  Basis Set: (CC-PVDZ AUX)
    Blend: CC-PVDZ-JKFIT
  @DF-UKS Final Energy:  -364.58794090046325
    Total Energy =                       -364.5879409004631952
  Basis Set: CC-PVDZ
    Blend: CC-PVDZ
  Basis Set: (CC-PVDZ AUX)
    Blend: CC-PVDZ-JKFIT
  Charge       = 0
  Multiplicity = 3
  Basis Set: CC-PVDZ
    Blend: CC-PVDZ
  Basis Set: (CC-PVDZ AUX)
    Blend: CC-PVDZ-JKFIT

    Orbital Energies [Eh]
    ---------------------

    Alpha Occupied:

       1A1   -66.209355     2A1   -19.176986     3A1    -5.350328
       4A1    -3.710887     1B2    -3.710206     1B1    -3.706622
       5A1    -0.972941     6A1    -0.495399     7A1    -0.367938
       2B1    -0.357292     2B2    -0.347907     3B1    -0.165887

    Alpha Virtual:

       3B2    -0.101559     8A1     0.022707     9A1     0.228721
       4B1     0.286456     4B2     0.290951     1A2     0.328866
      10A1     0.332105    11A1     0.339402     5B1     0.401718
       5B2     0.406427    12A1     0.631168    13A1     0.986049
       6B1     1.005167     6B2     1.006132    14A1     1.691895
       2A2     2.591115    15A1     2.591330     7B2     2.654834
       7B1     2.656359    16A1     2.976544

    Beta Occupied:

       1A1   -66.204463     2A1   -19.158407     3A1    -5.344470
       1B2    -3.707103     4A1    -3.702880     1B1    -3.695182
       5A1    -0.923211     6A1    -0.415233     2B2    -0.330424
       2B1    -0.314505

    Beta Virtual:

       7A1    -0.224798     3B2    -0.075073     3B1    -0.047023
       8A1     0.052842     9A1     0.255659     4B2     0.298564
       4B1     0.319579    10A1     0.365701     1A2     0.374345
      11A1     0.380396     5B2     0.431011     5B1     0.456321
      12A1     0.659402     6B2     1.019164     6B1     1.030459
      13A1     1.041227    14A1     1.721583    15A1     2.612871
       2A2     2.612944     7B2     2.701018     7B1     2.713541
      16A1     3.031492

    Final Occupation by Irrep:
             A1    A2    B1    B2
    DOCC [     6,    0,    2,    2 ]
    SOCC [     1,    0,    1,    0 ]
    NA   [     7,    0,    3,    2 ]
    NB   [     6,    0,    2,    2 ]

  @DF-UKS Final Energy:  -364.58794126946583

   => Energetics <=

    Nuclear Repulsion Energy =             36.5756415495543763
    One-Electron Energy =                -577.0111250182756066
    Two-Electron Energy =                 199.5743934765772565
    DFT Exchange-Correlation Energy =     -23.7268512773217850
    Empirical Dispersion Energy =           0.0000000000000000
    VV10 Nonlocal Energy =                  0.0000000000000000
    Total Energy =                       -364.5879412694657731

  UHF NO Occupations:
  HONO-2 :    6 A1 1.9970601
  HONO-1 :    3 B1 1.0000000
  HONO-0 :    7 A1 1.0000000
  LUNO+0 :    8 A1 0.0029399
  LUNO+1 :    4 B1 0.0006777
  LUNO+2 :    3 B2 0.0002877
  LUNO+3 :    9 A1 0.0001452

Computation Completed

Properties will be evaluated at   0.000000,   0.000000,   0.000000 [a0]

Properties computed using the SCF density matrix

 Multipole Moments:

 ------------------------------------------------------------------------------------
     Multipole            Electronic (a.u.)      Nuclear  (a.u.)        Total (a.u.)
 ------------------------------------------------------------------------------------

 L = 1.  Multiply by 2.5417464519 to convert [e a0] to [Debye]
 Dipole X            :          0.0000000            0.0000000            0.0000000
 Dipole Y            :          0.0000000            0.0000000            0.0000000
 Dipole Z            :         -0.9708125           -0.0078965           -0.9787090
 Magnitude           :                                                    0.9787090

 ------------------------------------------------------------------------------------

*** tstop() called on Joses-MacBook-Pro-2.local at Wed Jul 16 19:21:34 2025
Module time:
	user time   =       3.11 seconds =       0.05 minutes
	system time =       4.05 seconds =       0.07 minutes
	total time  =          1 seconds =       0.02 minutes
Total time:
	user time   =      55.75 seconds =       0.93 minutes
	system time =      66.95 seconds =       1.12 minutes
	total time  =         12 seconds =       0.20 minutes

*** tstart() called on Joses-MacBook-Pro-2.local
*** at Wed Jul 16 19:21:34 2025

         ------------------------------------------------------------
                                   SCF GRAD
                          Rob Parrish, Justin Turney,
                       Andy Simmonett, and Alex Sokolov
         ------------------------------------------------------------

  ==> Geometry <==

    Molecular point group: c2v
    Full point group: C_inf_v

    Geometry (in Angstrom), charge = 0, multiplicity = 3:

       Center              X                  Y                   Z               Mass
    ------------   -----------------  -----------------  -----------------  -----------------
         O            0.000000000000     0.000000000000     1.030985494228    15.994914619570
         SI           0.000000000000     0.000000000000    -0.589433043468    27.976926534650

  Nuclear repulsion =   36.575641549554376

  ==> Basis Set <==

  Basis Set: CC-PVDZ
    Blend: CC-PVDZ
    Number of shells: 14
    Number of basis functions: 32
    Number of Cartesian functions: 34
    Spherical Harmonics?: true
    Max angular momentum: 2

  ==> DFJKGrad: Density-Fitted SCF Gradients <==

    Gradient:                    1
    J tasked:                  Yes
    K tasked:                  Yes
    wK tasked:                  No
    OpenMP threads:              1
    Integrals threads:           1
    Memory [MiB]:              375
    Schwarz Cutoff:          1E-12
    Fitting Condition:       1E-10

   => Auxiliary Basis Set <=

  Basis Set: (CC-PVDZ AUX)
    Blend: CC-PVDZ-JKFIT
    Number of shells: 60
    Number of basis functions: 182
    Number of Cartesian functions: 211
    Spherical Harmonics?: true
    Max angular momentum: 3

  ==> DFT Potential <==

   => LibXC <=

    Version 6.2.2
    S. Lehtola, C. Steigemann, M. J.T. Oliveira, and M. A.L. Marques.,  SoftwareX 7, 1â€“5 (2018) (10.1016/j.softx.2017.11.002)

   => Composite Functional: B3LYP <=

    B3LYP Hyb-GGA Exchange-Correlation Functional

    P. J. Stephens, F. J. Devlin, C. F. Chabalowski, and M. J. Frisch.,  J. Phys. Chem. 98, 11623 (1994) (10.1021/j100096a001)

    Deriv               =              1
    GGA                 =           TRUE
    Meta                =          FALSE

    Exchange Hybrid     =           TRUE
    MP2 Hybrid          =          FALSE

   => Exchange Functionals <=

    0.0800   Slater exchange
    0.7200         Becke 88

   => Exact (HF) Exchange <=

    0.2000               HF

   => Correlation Functionals <=

    0.1900   Vosko, Wilk & Nusair (VWN5_RPA)
    0.8100   Lee, Yang & Parr

   => LibXC Density Thresholds  <==

    XC_HYB_GGA_XC_B3LYP:  1.00E-15

   => Molecular Quadrature <=

    Radial Scheme          =       TREUTLER
    Pruning Scheme         =           NONE
    Nuclear Scheme         =       TREUTLER

    Blocking Scheme        =         OCTREE
    BS radius alpha        =              1
    Pruning alpha          =              1
    Radial Points          =             75
    Spherical Points       =            302
    Total Points           =          42713
    Total Blocks           =            392
    Max Points             =            255
    Max Functions          =             32
    Weights Tolerance      =       1.00E-15

  -Total Gradient:
     Atom            X                  Y                   Z
    ------   -----------------  -----------------  -----------------
       1       -0.000000000000    -0.000000000000    -0.000078271474
       2        0.000000000000    -0.000000000000     0.000050923340

*** tstop() called on Joses-MacBook-Pro-2.local at Wed Jul 16 19:21:34 2025
Module time:
	user time   =       0.77 seconds =       0.01 minutes
	system time =       1.48 seconds =       0.02 minutes
	total time  =          0 seconds =       0.00 minutes
Total time:
	user time   =      56.53 seconds =       0.94 minutes
	system time =      68.43 seconds =       1.14 minutes
	total time  =         12 seconds =       0.20 minutes

    			-----------------------------------------

    			 OPTKING 3.0: for geometry optimizations

    			     By R.A. King, Bethel University

    			        with contributions from

    			    A.V. Copan, J. Cayton, A. Heide

    			-----------------------------------------

	                            ===> Fragment 1 <==

	 Z (Atomic Numbers)          Masses                          Geom
	       8.000000            15.994915          0.00000000  0.00000000  1.94828022
	      14.000000            27.976927          0.00000000  0.00000000 -1.11386702

	 - Coordinate -           - BOHR/RAD -       - ANG/DEG -
	 R(1,2)           =         3.062147           1.620419

	        --- Internal Coordinate Step in ANG or DEG, aJ/ANG or AJ/DEG ---
	-------------------------------------------------------------------------------
	           Coordinate      Previous         Force          Change          New
	           ----------      --------        ------          ------        ------
	               R(1,2)       1.62042        0.00053        0.00010       1.62052
	-------------------------------------------------------------------------------

	                                 ==> Convergence Check <==

	Measures of convergence in internal coordinates in au.

	Criteria marked as inactive (o), active & met (*), and active & unmet ( ).

	----------------------------------------------------------------------------------------------
	   Step    Total Energy     Delta E     Max Force     RMS Force      Max Disp      RMS Disp
	----------------------------------------------------------------------------------------------
	  Convergence Criteria     1.00e-06 *    3.00e-04 *             o    1.20e-03 *             o
	----------------------------------------------------------------------------------------------
	    11    -364.58794127   -3.69e-07 *    6.46e-05 *    6.46e-05 o    1.84e-04 *    1.84e-04 o  ~
	----------------------------------------------------------------------------------------------

Next Geometry in Ang
	Fragment 1 (Ang)

	    O   0.0000000000   0.0000000000   1.0310341615
	   Si   0.0000000000   0.0000000000  -0.5894817107

    Final optimized geometry and variables:
    Molecular point group: c2v
    Full point group: C_inf_v

    Geometry (in Angstrom), charge = 0, multiplicity = 3:

    O            0.000000000000     0.000000000000     1.030985494228
    SI           0.000000000000     0.000000000000    -0.589433043468

    Psi4 stopped on: Wednesday, 16 July 2025 07:21PM
    Psi4 wall time for execution: 0:00:12.51

*** Psi4 exiting successfully. Buy a developer a beer!
