                               Psi4 1.9.1 release

  ==> Input File <==

--------------------------------------------------------------------------
molecule {
0 3
P   0.00000        0.60000        0.00000
Cl   0.00000       -0.60000        0.00000
}

set {
basis              cc-pvdz
reference          uks
maxiter            500
geom_maxiter       500
DAMPING_PERCENTAGE 1
guess              SAP
}

optimize('b3lyp')
--------------------------------------------------------------------------

    Molecular point group: c2v
  Charge       = 0
  Multiplicity = 3
  Basis Set: CC-PVDZ
    Blend: CC-PVDZ
  Basis Set: (CC-PVDZ AUX)
    Blend: CC-PVDZ-JKFIT
  @DF-UKS Final Energy:  -800.29258181632065
    Total Energy =                       -800.2925818163205349
 Dipole X            :          0.0000000            0.0000000            0.0000000
 Dipole Y            :          0.0000000            0.0000000            0.0000000
 Dipole Z            :         -1.0835111           -0.0695049           -1.1530160
 Magnitude           :                                                    1.1530160
    Molecular point group: c2v
  Basis Set: CC-PVDZ
    Blend: CC-PVDZ
  Basis Set: (CC-PVDZ AUX)
    Blend: CC-PVDZ-JKFIT
  Basis Set: CC-PVDZ
    Blend: CC-PVDZ
  Basis Set: (CC-PVDZ AUX)
    Blend: CC-PVDZ-JKFIT
  @DF-UKS Final Energy:  -800.33588480371543
    Total Energy =                       -800.3358848037154303
  Basis Set: CC-PVDZ
    Blend: CC-PVDZ
  Basis Set: (CC-PVDZ AUX)
    Blend: CC-PVDZ-JKFIT
  Basis Set: CC-PVDZ
    Blend: CC-PVDZ
  @DF-UKS Final Energy:  -800.41598463878199
    Total Energy =                       -800.4159846387819925
  @DF-UKS Final Energy:  -800.67450390697866
    Total Energy =                       -800.6745039069786571
  @DF-UKS Final Energy:  -801.19628233398362
    Total Energy =                       -801.1962823339836177
  @DF-UKS Final Energy:  -801.37135025590999
    Total Energy =                       -801.3713502559099879
  @DF-UKS Final Energy:  -801.47847542437808
    Total Energy =                       -801.4784754243780753
  @DF-UKS Final Energy:  -801.52030010738997
    Total Energy =                       -801.5203001073898577
  @DF-UKS Final Energy:  -801.54104495712829
    Total Energy =                       -801.5410449571281788
  @DF-UKS Final Energy:  -801.55021524533936
    Total Energy =                       -801.5502152453394729
  @DF-UKS Final Energy:  -801.55303733113487
    Total Energy =                       -801.5530373311348740
  @DF-UKS Final Energy:  -801.55356806856014
    Total Energy =                       -801.5535680685601392
  @DF-UKS Final Energy:  -801.55367836160349
    Total Energy =                       -801.5536783616036018
  @DF-UKS Final Energy:  -801.55370578075303
    Total Energy =                       -801.5537057807530346
  Basis Set: (CC-PVDZ AUX)
    Blend: CC-PVDZ-JKFIT
  Basis Set: CC-PVDZ
    Blend: CC-PVDZ
  Basis Set: (CC-PVDZ AUX)
    Blend: CC-PVDZ-JKFIT
  @DF-UKS Final Energy:  -801.55370923688270
    Total Energy =                       -801.5537092368828098
  Basis Set: CC-PVDZ
    Blend: CC-PVDZ
  Basis Set: (CC-PVDZ AUX)
    Blend: CC-PVDZ-JKFIT
  Charge       = 0
  Multiplicity = 3
  Basis Set: CC-PVDZ
    Blend: CC-PVDZ
  Basis Set: (CC-PVDZ AUX)
    Blend: CC-PVDZ-JKFIT

    Orbital Energies [Eh]
    ---------------------

    Alpha Occupied:

       1A1  -101.561620     2A1   -77.144316     3A1    -9.480239
       4A1    -7.240343     1B2    -7.234723     1B1    -7.234723
       5A1    -6.611392     2B1    -4.774078     2B2    -4.774078
       6A1    -4.772646     7A1    -0.857587     8A1    -0.602357
       9A1    -0.389733     3B1    -0.371161     3B2    -0.371161
       4B1    -0.241802     4B2    -0.241802

    Alpha Virtual:

      10A1    -0.042083    11A1     0.290090    12A1     0.360965
       5B1     0.373430     5B2     0.373430     6B1     0.405890
       6B2     0.405890     1A2     0.414973    13A1     0.414975
      14A1     0.454668     7B2     0.558155     7B1     0.558155
      15A1     0.711544    16A1     0.715553     2A2     0.715554
      17A1     0.733523     8B1     0.840529     8B2     0.840529
      18A1     1.231279

    Beta Occupied:

       1A1  -101.560080     2A1   -77.136295     3A1    -9.478748
       4A1    -7.239888     1B2    -7.231597     1B1    -7.231597
       5A1    -6.602858     6A1    -4.767881     2B1    -4.757696
       2B2    -4.757696     7A1    -0.846221     8A1    -0.545485
       9A1    -0.365665     3B1    -0.349757     3B2    -0.349757

    Beta Virtual:

       4B1    -0.117811     4B2    -0.117811    10A1    -0.020145
      11A1     0.309160    12A1     0.379771     5B1     0.413957
       5B2     0.413957     6B1     0.445396     6B2     0.445396
      13A1     0.464307    14A1     0.501362     1A2     0.501363
       7B2     0.563622     7B1     0.563622    15A1     0.729617
      16A1     0.729783     2A2     0.729783    17A1     0.742226
       8B1     0.858732     8B2     0.858732    18A1     1.242702

    Final Occupation by Irrep:
             A1    A2    B1    B2
    DOCC [     9,    0,    3,    3 ]
    SOCC [     0,    0,    1,    1 ]
    NA   [     9,    0,    4,    4 ]
    NB   [     9,    0,    3,    3 ]

  @DF-UKS Final Energy:  -801.55370938970680

   => Energetics <=

    Nuclear Repulsion Energy =             65.2206639813984879
    One-Electron Energy =               -1236.9420831722707135
    Two-Electron Energy =                 411.6264886686862496
    DFT Exchange-Correlation Energy =     -41.4587788675208913
    Empirical Dispersion Energy =           0.0000000000000000
    VV10 Nonlocal Energy =                  0.0000000000000000
    Total Energy =                       -801.5537093897067962

  UHF NO Occupations:
  HONO-2 :    9 A1 1.9982576
  HONO-1 :    4 B1 1.0000000
  HONO-0 :    4 B2 1.0000000
  LUNO+0 :   10 A1 0.0017424
  LUNO+1 :   11 A1 0.0001896
  LUNO+2 :    5 B2 0.0001700
  LUNO+3 :    5 B1 0.0001700

Computation Completed

Properties will be evaluated at   0.000000,   0.000000,   0.000000 [a0]

Properties computed using the SCF density matrix

 Multipole Moments:

 ------------------------------------------------------------------------------------
     Multipole            Electronic (a.u.)      Nuclear  (a.u.)        Total (a.u.)
 ------------------------------------------------------------------------------------

 L = 1.  Multiply by 2.5417464519 to convert [e a0] to [Debye]
 Dipole X            :          0.0000000            0.0000000            0.0000000
 Dipole Y            :          0.0000000            0.0000000            0.0000000
 Dipole Z            :          0.4515960           -0.1198368            0.3317592
 Magnitude           :                                                    0.3317592

 ------------------------------------------------------------------------------------

*** tstop() called on Joses-MacBook-Pro-2.local at Wed Jul 16 20:24:29 2025
Module time:
	user time   =       7.03 seconds =       0.12 minutes
	system time =       2.29 seconds =       0.04 minutes
	total time  =          1 seconds =       0.02 minutes
Total time:
	user time   =     189.78 seconds =       3.16 minutes
	system time =      56.57 seconds =       0.94 minutes
	total time  =         23 seconds =       0.38 minutes

*** tstart() called on Joses-MacBook-Pro-2.local
*** at Wed Jul 16 20:24:29 2025

         ------------------------------------------------------------
                                   SCF GRAD
                          Rob Parrish, Justin Turney,
                       Andy Simmonett, and Alex Sokolov
         ------------------------------------------------------------

  ==> Geometry <==

    Molecular point group: c2v
    Full point group: C_inf_v

    Geometry (in Angstrom), charge = 0, multiplicity = 3:

       Center              X                  Y                   Z               Mass
    ------------   -----------------  -----------------  -----------------  -----------------
         P            0.000000000000     0.000000000000     1.097163414856    30.973761998420
         CL           0.000000000000     0.000000000000    -0.971815655325    34.968852682000

  Nuclear repulsion =   65.220663981398502

  ==> Basis Set <==

  Basis Set: CC-PVDZ
    Blend: CC-PVDZ
    Number of shells: 16
    Number of basis functions: 36
    Number of Cartesian functions: 38
    Spherical Harmonics?: true
    Max angular momentum: 2

  ==> DFJKGrad: Density-Fitted SCF Gradients <==

    Gradient:                    1
    J tasked:                  Yes
    K tasked:                  Yes
    wK tasked:                  No
    OpenMP threads:              1
    Integrals threads:           1
    Memory [MiB]:              375
    Schwarz Cutoff:          1E-12
    Fitting Condition:       1E-10

   => Auxiliary Basis Set <=

  Basis Set: (CC-PVDZ AUX)
    Blend: CC-PVDZ-JKFIT
    Number of shells: 72
    Number of basis functions: 224
    Number of Cartesian functions: 260
    Spherical Harmonics?: true
    Max angular momentum: 3

  ==> DFT Potential <==

   => LibXC <=

    Version 6.2.2
    S. Lehtola, C. Steigemann, M. J.T. Oliveira, and M. A.L. Marques.,  SoftwareX 7, 1â€“5 (2018) (10.1016/j.softx.2017.11.002)

   => Composite Functional: B3LYP <=

    B3LYP Hyb-GGA Exchange-Correlation Functional

    P. J. Stephens, F. J. Devlin, C. F. Chabalowski, and M. J. Frisch.,  J. Phys. Chem. 98, 11623 (1994) (10.1021/j100096a001)

    Deriv               =              1
    GGA                 =           TRUE
    Meta                =          FALSE

    Exchange Hybrid     =           TRUE
    MP2 Hybrid          =          FALSE

   => Exchange Functionals <=

    0.0800   Slater exchange
    0.7200         Becke 88

   => Exact (HF) Exchange <=

    0.2000               HF

   => Correlation Functionals <=

    0.1900   Vosko, Wilk & Nusair (VWN5_RPA)
    0.8100   Lee, Yang & Parr

   => LibXC Density Thresholds  <==

    XC_HYB_GGA_XC_B3LYP:  1.00E-15

   => Molecular Quadrature <=

    Radial Scheme          =       TREUTLER
    Pruning Scheme         =           NONE
    Nuclear Scheme         =       TREUTLER

    Blocking Scheme        =         OCTREE
    BS radius alpha        =              1
    Pruning alpha          =              1
    Radial Points          =             75
    Spherical Points       =            302
    Total Points           =          40834
    Total Blocks           =            364
    Max Points             =            256
    Max Functions          =             36
    Weights Tolerance      =       1.00E-15

  -Total Gradient:
     Atom            X                  Y                   Z
    ------   -----------------  -----------------  -----------------
       1       -0.000000000000     0.000000000000    -0.000015338303
       2        0.000000000000     0.000000000000     0.000030568577

*** tstop() called on Joses-MacBook-Pro-2.local at Wed Jul 16 20:24:30 2025
Module time:
	user time   =       2.35 seconds =       0.04 minutes
	system time =       0.97 seconds =       0.02 minutes
	total time  =          1 seconds =       0.02 minutes
Total time:
	user time   =     192.13 seconds =       3.20 minutes
	system time =      57.54 seconds =       0.96 minutes
	total time  =         24 seconds =       0.40 minutes

    			-----------------------------------------

    			 OPTKING 3.0: for geometry optimizations

    			     By R.A. King, Bethel University

    			        with contributions from

    			    A.V. Copan, J. Cayton, A. Heide

    			-----------------------------------------

	                            ===> Fragment 1 <==

	 Z (Atomic Numbers)          Masses                          Geom
	      15.000000            30.973762          0.00000000  0.00000000  2.07333837
	      17.000000            34.968853          0.00000000  0.00000000 -1.83646543

	 - Coordinate -           - BOHR/RAD -       - ANG/DEG -
	 R(1,2)           =         3.909804           2.068979

	        --- Internal Coordinate Step in ANG or DEG, aJ/ANG or AJ/DEG ---
	-------------------------------------------------------------------------------
	           Coordinate      Previous         Force          Change          New
	           ----------      --------        ------          ------        ------
	               R(1,2)       2.06898        0.00019        0.00007       2.06905
	-------------------------------------------------------------------------------

	                                 ==> Convergence Check <==

	Measures of convergence in internal coordinates in au.

	Criteria marked as inactive (o), active & met (*), and active & unmet ( ).

	----------------------------------------------------------------------------------------------
	   Step    Total Energy     Delta E     Max Force     RMS Force      Max Disp      RMS Disp
	----------------------------------------------------------------------------------------------
	  Convergence Criteria     1.00e-06 *    3.00e-04 *             o    1.20e-03 *             o
	----------------------------------------------------------------------------------------------
	    16    -801.55370939   -1.53e-07 *    2.30e-05 *    2.30e-05 o    1.27e-04 *    1.27e-04 o  ~
	----------------------------------------------------------------------------------------------

Next Geometry in Ang
	Fragment 1 (Ang)

	    P   0.0000000000   0.0000000000   1.0971970813
	   Cl   0.0000000000   0.0000000000  -0.9718493217

    Final optimized geometry and variables:
    Molecular point group: c2v
    Full point group: C_inf_v

    Geometry (in Angstrom), charge = 0, multiplicity = 3:

    P            0.000000000000     0.000000000000     1.097163414856
    CL           0.000000000000     0.000000000000    -0.971815655325

    Psi4 stopped on: Wednesday, 16 July 2025 08:24PM
    Psi4 wall time for execution: 0:00:24.60

*** Psi4 exiting successfully. Buy a developer a beer!
