                               Psi4 1.9.1 release

  ==> Input File <==

--------------------------------------------------------------------------
molecule {
0 3
B   0.00000        0.60000        0.00000
P   0.00000       -0.60000        0.00000
}

set {
basis              cc-pvdz
reference          uks
maxiter            500
geom_maxiter       500
DAMPING_PERCENTAGE 1
guess              SAP
}

optimize('b3lyp')
--------------------------------------------------------------------------

    Molecular point group: c2v
  Charge       = 0
  Multiplicity = 3
  Basis Set: CC-PVDZ
    Blend: CC-PVDZ
  Basis Set: (CC-PVDZ AUX)
    Blend: CC-PVDZ-JKFIT
  @DF-UKS Final Energy:  -365.62283282643727
    Total Energy =                       -365.6228328264372749
 Dipole X            :          0.0000000            0.0000000            0.0000000
 Dipole Y            :          0.0000000            0.0000000            0.0000000
 Dipole Z            :         -0.3452128           -0.5547649           -0.8999777
 Magnitude           :                                                    0.8999777
    Molecular point group: c2v
  Basis Set: CC-PVDZ
    Blend: CC-PVDZ
  Basis Set: (CC-PVDZ AUX)
    Blend: CC-PVDZ-JKFIT
  Basis Set: CC-PVDZ
    Blend: CC-PVDZ
  Basis Set: (CC-PVDZ AUX)
    Blend: CC-PVDZ-JKFIT
  @DF-UKS Final Energy:  -365.81976587681049
    Total Energy =                       -365.8197658768105498
  Basis Set: CC-PVDZ
    Blend: CC-PVDZ
  Basis Set: (CC-PVDZ AUX)
    Blend: CC-PVDZ-JKFIT
  Basis Set: CC-PVDZ
    Blend: CC-PVDZ
  @DF-UKS Final Energy:  -365.98847847096579
    Total Energy =                       -365.9884784709657879
  @DF-UKS Final Energy:  -366.03842795847407
    Total Energy =                       -366.0384279584741307
  @DF-UKS Final Energy:  -366.05643078784016
    Total Energy =                       -366.0564307878401564
  @DF-UKS Final Energy:  -366.06046327537558
    Total Energy =                       -366.0604632753755823
  @DF-UKS Final Energy:  -366.06137417638058
    Total Energy =                       -366.0613741763805820
  @DF-UKS Final Energy:  -366.06164595700176
    Total Energy =                       -366.0616459570018151
  @DF-UKS Final Energy:  -366.06168179692639
    Total Energy =                       -366.0616817969263934
  Basis Set: (CC-PVDZ AUX)
    Blend: CC-PVDZ-JKFIT
  Basis Set: CC-PVDZ
    Blend: CC-PVDZ
  Basis Set: (CC-PVDZ AUX)
    Blend: CC-PVDZ-JKFIT
  @DF-UKS Final Energy:  -366.06168727901911
    Total Energy =                       -366.0616872790191110
  Basis Set: CC-PVDZ
    Blend: CC-PVDZ
  Basis Set: (CC-PVDZ AUX)
    Blend: CC-PVDZ-JKFIT
  Charge       = 0
  Multiplicity = 3
  Basis Set: CC-PVDZ
    Blend: CC-PVDZ
  Basis Set: (CC-PVDZ AUX)
    Blend: CC-PVDZ-JKFIT

    Orbital Energies [Eh]
    ---------------------

    Alpha Occupied:

       1A1   -77.104714     2A1    -6.842871     3A1    -6.575200
       1B1    -4.742760     4A1    -4.735090     1B2    -4.731281
       5A1    -0.642862     6A1    -0.394232     2B1    -0.286684
       7A1    -0.275295     2B2    -0.257131

    Alpha Virtual:

       3B1    -0.070910     3B2    -0.052023     8A1     0.122790
       9A1     0.207621     4B1     0.274727     4B2     0.285389
      10A1     0.312677     5B1     0.403178    11A1     0.416626
       5B2     0.424712     1A2     0.437653    12A1     0.438624
       6B1     0.483397     6B2     0.506137    13A1     0.634717
       2A2     0.720723    14A1     0.720944    15A1     0.891260
       7B1     0.954494     7B2     0.972995    16A1     1.180349

    Beta Occupied:

       1A1   -77.100928     2A1    -6.829298     3A1    -6.571132
       1B1    -4.732073     1B2    -4.729641     4A1    -4.729413
       5A1    -0.599538     6A1    -0.348357     2B2    -0.244349

    Beta Virtual:

       2B1    -0.175687     7A1    -0.133012     3B2    -0.030088
       3B1    -0.016297     8A1     0.145265     9A1     0.233488
       4B2     0.295352     4B1     0.300557    10A1     0.361414
       5B2     0.439882     5B1     0.446954    11A1     0.447341
       1A2     0.470959    12A1     0.474057     6B2     0.522609
       6B1     0.527942    13A1     0.653176     2A2     0.752714
      14A1     0.754773    15A1     0.927923     7B2     1.009290
       7B1     1.013636    16A1     1.224269

    Final Occupation by Irrep:
             A1    A2    B1    B2
    DOCC [     6,    0,    1,    2 ]
    SOCC [     1,    0,    1,    0 ]
    NA   [     7,    0,    2,    2 ]
    NB   [     6,    0,    1,    2 ]

  @DF-UKS Final Energy:  -366.06168753890569

   => Energetics <=

    Nuclear Repulsion Energy =             22.5684097085994360
    One-Electron Energy =                -549.1575716950487731
    Two-Electron Energy =                 182.4372210199493054
    DFT Exchange-Correlation Energy =     -21.9097465724056519
    Empirical Dispersion Energy =           0.0000000000000000
    VV10 Nonlocal Energy =                  0.0000000000000000
    Total Energy =                       -366.0616875389056304

  UHF NO Occupations:
  HONO-2 :    2 B2 1.9983030
  HONO-1 :    7 A1 1.0000000
  HONO-0 :    2 B1 1.0000000
  LUNO+0 :    3 B2 0.0016970
  LUNO+1 :    8 A1 0.0006553
  LUNO+2 :    9 A1 0.0005612
  LUNO+3 :   10 A1 0.0000001

Computation Completed

Properties will be evaluated at   0.000000,   0.000000,   0.000000 [a0]

Properties computed using the SCF density matrix

 Multipole Moments:

 ------------------------------------------------------------------------------------
     Multipole            Electronic (a.u.)      Nuclear  (a.u.)        Total (a.u.)
 ------------------------------------------------------------------------------------

 L = 1.  Multiply by 2.5417464519 to convert [e a0] to [Debye]
 Dipole X            :          0.0000000            0.0000000            0.0000000
 Dipole Y            :          0.0000000            0.0000000            0.0000000
 Dipole Z            :          0.8639250           -0.8129974            0.0509276
 Magnitude           :                                                    0.0509276

 ------------------------------------------------------------------------------------

*** tstop() called on Joses-MacBook-Pro-2.local at Wed Jul 16 18:56:14 2025
Module time:
	user time   =       5.55 seconds =       0.09 minutes
	system time =       3.55 seconds =       0.06 minutes
	total time  =          1 seconds =       0.02 minutes
Total time:
	user time   =      65.07 seconds =       1.08 minutes
	system time =      65.06 seconds =       1.08 minutes
	total time  =         15 seconds =       0.25 minutes

*** tstart() called on Joses-MacBook-Pro-2.local
*** at Wed Jul 16 18:56:14 2025

         ------------------------------------------------------------
                                   SCF GRAD
                          Rob Parrish, Justin Turney,
                       Andy Simmonett, and Alex Sokolov
         ------------------------------------------------------------

  ==> Geometry <==

    Molecular point group: c2v
    Full point group: C_inf_v

    Geometry (in Angstrom), charge = 0, multiplicity = 3:

       Center              X                  Y                   Z               Mass
    ------------   -----------------  -----------------  -----------------  -----------------
         B            0.000000000000     0.000000000000     1.297421916493    11.009305360000
         P            0.000000000000     0.000000000000    -0.461155285566    30.973761998420

  Nuclear repulsion =   22.568409708599436

  ==> Basis Set <==

  Basis Set: CC-PVDZ
    Blend: CC-PVDZ
    Number of shells: 14
    Number of basis functions: 32
    Number of Cartesian functions: 34
    Spherical Harmonics?: true
    Max angular momentum: 2

  ==> DFJKGrad: Density-Fitted SCF Gradients <==

    Gradient:                    1
    J tasked:                  Yes
    K tasked:                  Yes
    wK tasked:                  No
    OpenMP threads:              1
    Integrals threads:           1
    Memory [MiB]:              375
    Schwarz Cutoff:          1E-12
    Fitting Condition:       1E-10

   => Auxiliary Basis Set <=

  Basis Set: (CC-PVDZ AUX)
    Blend: CC-PVDZ-JKFIT
    Number of shells: 60
    Number of basis functions: 182
    Number of Cartesian functions: 211
    Spherical Harmonics?: true
    Max angular momentum: 3

  ==> DFT Potential <==

   => LibXC <=

    Version 6.2.2
    S. Lehtola, C. Steigemann, M. J.T. Oliveira, and M. A.L. Marques.,  SoftwareX 7, 1â€“5 (2018) (10.1016/j.softx.2017.11.002)

   => Composite Functional: B3LYP <=

    B3LYP Hyb-GGA Exchange-Correlation Functional

    P. J. Stephens, F. J. Devlin, C. F. Chabalowski, and M. J. Frisch.,  J. Phys. Chem. 98, 11623 (1994) (10.1021/j100096a001)

    Deriv               =              1
    GGA                 =           TRUE
    Meta                =          FALSE

    Exchange Hybrid     =           TRUE
    MP2 Hybrid          =          FALSE

   => Exchange Functionals <=

    0.0800   Slater exchange
    0.7200         Becke 88

   => Exact (HF) Exchange <=

    0.2000               HF

   => Correlation Functionals <=

    0.1900   Vosko, Wilk & Nusair (VWN5_RPA)
    0.8100   Lee, Yang & Parr

   => LibXC Density Thresholds  <==

    XC_HYB_GGA_XC_B3LYP:  1.00E-15

   => Molecular Quadrature <=

    Radial Scheme          =       TREUTLER
    Pruning Scheme         =           NONE
    Nuclear Scheme         =       TREUTLER

    Blocking Scheme        =         OCTREE
    BS radius alpha        =              1
    Pruning alpha          =              1
    Radial Points          =             75
    Spherical Points       =            302
    Total Points           =          41988
    Total Blocks           =            381
    Max Points             =            255
    Max Functions          =             32
    Weights Tolerance      =       1.00E-15

  -Total Gradient:
     Atom            X                  Y                   Z
    ------   -----------------  -----------------  -----------------
       1        0.000000000000     0.000000000000    -0.000051758386
       2        0.000000000000    -0.000000000000     0.000036291978

*** tstop() called on Joses-MacBook-Pro-2.local at Wed Jul 16 18:56:14 2025
Module time:
	user time   =       0.74 seconds =       0.01 minutes
	system time =       1.94 seconds =       0.03 minutes
	total time  =          0 seconds =       0.00 minutes
Total time:
	user time   =      65.81 seconds =       1.10 minutes
	system time =      67.00 seconds =       1.12 minutes
	total time  =         15 seconds =       0.25 minutes

    			-----------------------------------------

    			 OPTKING 3.0: for geometry optimizations

    			     By R.A. King, Bethel University

    			        with contributions from

    			    A.V. Copan, J. Cayton, A. Heide

    			-----------------------------------------

	                            ===> Fragment 1 <==

	 Z (Atomic Numbers)          Masses                          Geom
	       5.000000            11.009305          0.00000000  0.00000000  2.45177209
	      15.000000            30.973762          0.00000000  0.00000000 -0.87145719

	 - Coordinate -           - BOHR/RAD -       - ANG/DEG -
	 R(1,2)           =         3.323229           1.758577

	        --- Internal Coordinate Step in ANG or DEG, aJ/ANG or AJ/DEG ---
	-------------------------------------------------------------------------------
	           Coordinate      Previous         Force          Change          New
	           ----------      --------        ------          ------        ------
	               R(1,2)       1.75858        0.00036        0.00008       1.75866
	-------------------------------------------------------------------------------

	                                 ==> Convergence Check <==

	Measures of convergence in internal coordinates in au.

	Criteria marked as inactive (o), active & met (*), and active & unmet ( ).

	----------------------------------------------------------------------------------------------
	   Step    Total Energy     Delta E     Max Force     RMS Force      Max Disp      RMS Disp
	----------------------------------------------------------------------------------------------
	  Convergence Criteria     1.00e-06 *    3.00e-04 *             o    1.20e-03 *             o
	----------------------------------------------------------------------------------------------
	    11    -366.06168754   -2.60e-07 *    4.40e-05 *    4.40e-05 o    1.48e-04 *    1.48e-04 o  ~
	----------------------------------------------------------------------------------------------

Next Geometry in Ang
	Fragment 1 (Ang)

	    B   0.0000000000   0.0000000000   1.2974611139
	    P   0.0000000000   0.0000000000  -0.4611944829

    Final optimized geometry and variables:
    Molecular point group: c2v
    Full point group: C_inf_v

    Geometry (in Angstrom), charge = 0, multiplicity = 3:

    B            0.000000000000     0.000000000000     1.297421916493
    P            0.000000000000     0.000000000000    -0.461155285566

    Psi4 stopped on: Wednesday, 16 July 2025 06:56PM
    Psi4 wall time for execution: 0:00:15.81

*** Psi4 exiting successfully. Buy a developer a beer!
