                               Psi4 1.9.1 release

  ==> Input File <==

--------------------------------------------------------------------------
molecule {
0 3
O   0.00000        0.60000        0.00000
Mg   0.00000       -0.60000        0.00000
}

set {
basis              cc-pvdz
reference          uks
maxiter            500
geom_maxiter       500
DAMPING_PERCENTAGE 1
guess              SAP
}

optimize('b3lyp')
--------------------------------------------------------------------------

    Molecular point group: c2v
  Charge       = 0
  Multiplicity = 3
  Basis Set: CC-PVDZ
    Blend: CC-PVDZ
  Basis Set: (CC-PVDZ AUX)
    Blend: CC-PVDZ-JKFIT + DEF2-UNIVERSAL-JKFIT
  @DF-UKS Final Energy:  -274.83404626003011
    Total Energy =                       -274.8340462600301066
 Dipole X            :          0.0000000            0.0000000            0.0000000
 Dipole Y            :          0.0000000            0.0000000            0.0000000
 Dipole Z            :         -0.3290267           -0.0033262           -0.3323529
 Magnitude           :                                                    0.3323529
    Molecular point group: c2v
  Basis Set: CC-PVDZ
    Blend: CC-PVDZ
  Basis Set: (CC-PVDZ AUX)
    Blend: CC-PVDZ-JKFIT + DEF2-UNIVERSAL-JKFIT
  Basis Set: CC-PVDZ
    Blend: CC-PVDZ
  Basis Set: (CC-PVDZ AUX)
    Blend: CC-PVDZ-JKFIT + DEF2-UNIVERSAL-JKFIT
  @DF-UKS Final Energy:  -275.03758247452436
    Total Energy =                       -275.0375824745243563
  Basis Set: CC-PVDZ
    Blend: CC-PVDZ
  Basis Set: (CC-PVDZ AUX)
    Blend: CC-PVDZ-JKFIT + DEF2-UNIVERSAL-JKFIT
  Basis Set: CC-PVDZ
    Blend: CC-PVDZ
  @DF-UKS Final Energy:  -275.14324799437992
    Total Energy =                       -275.1432479943799194
  @DF-UKS Final Energy:  -275.18674486616806
    Total Energy =                       -275.1867448661680555
  @DF-UKS Final Energy:  -275.20024275356758
    Total Energy =                       -275.2002427535675793
  @DF-UKS Final Energy:  -275.20691398751325
    Total Energy =                       -275.2069139875132464
  @DF-UKS Final Energy:  -275.20873727637542
    Total Energy =                       -275.2087372763754161
  @DF-UKS Final Energy:  -275.20942396190549
    Total Energy =                       -275.2094239619054861
  @DF-UKS Final Energy:  -275.20954012060952
    Total Energy =                       -275.2095401206095175
  Basis Set: (CC-PVDZ AUX)
    Blend: CC-PVDZ-JKFIT + DEF2-UNIVERSAL-JKFIT
  Basis Set: CC-PVDZ
    Blend: CC-PVDZ
  Basis Set: (CC-PVDZ AUX)
    Blend: CC-PVDZ-JKFIT + DEF2-UNIVERSAL-JKFIT
  @DF-UKS Final Energy:  -275.20956296806077
    Total Energy =                       -275.2095629680607658
  Basis Set: CC-PVDZ
    Blend: CC-PVDZ
  Basis Set: (CC-PVDZ AUX)
    Blend: CC-PVDZ-JKFIT + DEF2-UNIVERSAL-JKFIT
  Charge       = 0
  Multiplicity = 3
  Basis Set: CC-PVDZ
    Blend: CC-PVDZ
  Basis Set: (CC-PVDZ AUX)
    Blend: CC-PVDZ-JKFIT + DEF2-UNIVERSAL-JKFIT

    Orbital Energies [Eh]
    ---------------------

    Alpha Occupied:

       1A1   -46.872887     2A1   -19.127879     3A1    -3.155068
       4A1    -1.899073     1B2    -1.898419     1B1    -1.898419
       5A1    -0.890747     6A1    -0.380032     2B2    -0.281382
       2B1    -0.281382     7A1    -0.205312

    Alpha Virtual:

       3B1    -0.031879     3B2    -0.031879     8A1     0.021980
       9A1     0.090617     4B1     0.146903     4B2     0.146903
      10A1     0.207556    11A1     0.291361     1A2     0.291361
       5B2     0.345736     5B1     0.345736    12A1     0.510833
      13A1     1.025080     6B1     1.046913     6B2     1.046913
      14A1     1.864049     7B1     2.640359     7B2     2.640359
       2A2     2.646642    15A1     2.646647    16A1     2.656696

    Beta Occupied:

       1A1   -46.869497     2A1   -19.103664     3A1    -3.149297
       1B2    -1.894899     1B1    -1.894899     4A1    -1.892242
       5A1    -0.814796     2B2    -0.254894     2B1    -0.254894

    Beta Virtual:

       6A1    -0.168174     7A1    -0.087795     3B2    -0.006142
       3B1    -0.006142     8A1     0.040968     9A1     0.112680
       4B1     0.166702     4B2     0.166702    10A1     0.252264
       1A2     0.319868    11A1     0.319870     5B2     0.384842
       5B1     0.384842    12A1     0.549984     6B1     1.064485
       6B2     1.064485    13A1     1.118937    14A1     1.907874
       2A2     2.661590    15A1     2.661599     7B1     2.719027
       7B2     2.719027    16A1     2.758752

    Final Occupation by Irrep:
             A1    A2    B1    B2
    DOCC [     5,    0,    2,    2 ]
    SOCC [     2,    0,    0,    0 ]
    NA   [     7,    0,    2,    2 ]
    NB   [     5,    0,    2,    2 ]

  @DF-UKS Final Energy:  -275.20956517099074

   => Energetics <=

    Nuclear Repulsion Energy =             28.0953635226166156
    One-Electron Energy =                -439.1116406054570120
    Two-Electron Energy =                 156.0376516071572155
    DFT Exchange-Correlation Energy =     -20.2309396953075584
    Empirical Dispersion Energy =           0.0000000000000000
    VV10 Nonlocal Energy =                  0.0000000000000000
    Total Energy =                       -275.2095651709907429

  UHF NO Occupations:
  HONO-2 :    5 A1 1.9995666
  HONO-1 :    6 A1 1.0000000
  HONO-0 :    7 A1 1.0000000
  LUNO+0 :    8 A1 0.0004334
  LUNO+1 :    3 B2 0.0003190
  LUNO+2 :    3 B1 0.0003190
  LUNO+3 :    4 B1 0.0000011

Computation Completed

Properties will be evaluated at   0.000000,   0.000000,   0.000000 [a0]

Properties computed using the SCF density matrix

 Multipole Moments:

 ------------------------------------------------------------------------------------
     Multipole            Electronic (a.u.)      Nuclear  (a.u.)        Total (a.u.)
 ------------------------------------------------------------------------------------

 L = 1.  Multiply by 2.5417464519 to convert [e a0] to [Debye]
 Dipole X            :          0.0000000            0.0000000            0.0000000
 Dipole Y            :          0.0000000            0.0000000            0.0000000
 Dipole Z            :         -1.0428412           -0.0050119           -1.0478531
 Magnitude           :                                                    1.0478531

 ------------------------------------------------------------------------------------

*** tstop() called on Joses-MacBook-Pro-2.local at Wed Jul 16 19:19:59 2025
Module time:
	user time   =       3.98 seconds =       0.07 minutes
	system time =       3.71 seconds =       0.06 minutes
	total time  =          1 seconds =       0.02 minutes
Total time:
	user time   =      53.94 seconds =       0.90 minutes
	system time =      76.22 seconds =       1.27 minutes
	total time  =         14 seconds =       0.23 minutes

*** tstart() called on Joses-MacBook-Pro-2.local
*** at Wed Jul 16 19:19:59 2025

         ------------------------------------------------------------
                                   SCF GRAD
                          Rob Parrish, Justin Turney,
                       Andy Simmonett, and Alex Sokolov
         ------------------------------------------------------------

  ==> Geometry <==

    Molecular point group: c2v
    Full point group: C_inf_v

    Geometry (in Angstrom), charge = 0, multiplicity = 3:

       Center              X                  Y                   Z               Mass
    ------------   -----------------  -----------------  -----------------  -----------------
         O            0.000000000000     0.000000000000     1.084765520507    15.994914619570
         MG           0.000000000000     0.000000000000    -0.723398028736    23.985041697000

  Nuclear repulsion =   28.095363522616616

  ==> Basis Set <==

  Basis Set: CC-PVDZ
    Blend: CC-PVDZ
    Number of shells: 14
    Number of basis functions: 32
    Number of Cartesian functions: 34
    Spherical Harmonics?: true
    Max angular momentum: 2

  ==> DFJKGrad: Density-Fitted SCF Gradients <==

    Gradient:                    1
    J tasked:                  Yes
    K tasked:                  Yes
    wK tasked:                  No
    OpenMP threads:              1
    Integrals threads:           1
    Memory [MiB]:              375
    Schwarz Cutoff:          1E-12
    Fitting Condition:       1E-10

   => Auxiliary Basis Set <=

  Basis Set: (CC-PVDZ AUX)
    Blend: CC-PVDZ-JKFIT + DEF2-UNIVERSAL-JKFIT
    Number of shells: 58
    Number of basis functions: 182
    Number of Cartesian functions: 218
    Spherical Harmonics?: true
    Max angular momentum: 4

  ==> DFT Potential <==

   => LibXC <=

    Version 6.2.2
    S. Lehtola, C. Steigemann, M. J.T. Oliveira, and M. A.L. Marques.,  SoftwareX 7, 1â€“5 (2018) (10.1016/j.softx.2017.11.002)

   => Composite Functional: B3LYP <=

    B3LYP Hyb-GGA Exchange-Correlation Functional

    P. J. Stephens, F. J. Devlin, C. F. Chabalowski, and M. J. Frisch.,  J. Phys. Chem. 98, 11623 (1994) (10.1021/j100096a001)

    Deriv               =              1
    GGA                 =           TRUE
    Meta                =          FALSE

    Exchange Hybrid     =           TRUE
    MP2 Hybrid          =          FALSE

   => Exchange Functionals <=

    0.0800   Slater exchange
    0.7200         Becke 88

   => Exact (HF) Exchange <=

    0.2000               HF

   => Correlation Functionals <=

    0.1900   Vosko, Wilk & Nusair (VWN5_RPA)
    0.8100   Lee, Yang & Parr

   => LibXC Density Thresholds  <==

    XC_HYB_GGA_XC_B3LYP:  1.00E-15

   => Molecular Quadrature <=

    Radial Scheme          =       TREUTLER
    Pruning Scheme         =           NONE
    Nuclear Scheme         =       TREUTLER

    Blocking Scheme        =         OCTREE
    BS radius alpha        =              1
    Pruning alpha          =              1
    Radial Points          =             75
    Spherical Points       =            302
    Total Points           =          43425
    Total Blocks           =            408
    Max Points             =            256
    Max Functions          =             32
    Weights Tolerance      =       1.00E-15

  -Total Gradient:
     Atom            X                  Y                   Z
    ------   -----------------  -----------------  -----------------
       1        0.000000000000    -0.000000000000    -0.000242880253
       2        0.000000000000    -0.000000000000     0.000110056596

*** tstop() called on Joses-MacBook-Pro-2.local at Wed Jul 16 19:19:59 2025
Module time:
	user time   =       0.85 seconds =       0.01 minutes
	system time =       2.10 seconds =       0.04 minutes
	total time  =          0 seconds =       0.00 minutes
Total time:
	user time   =      54.79 seconds =       0.91 minutes
	system time =      78.33 seconds =       1.31 minutes
	total time  =         14 seconds =       0.23 minutes

    			-----------------------------------------

    			 OPTKING 3.0: for geometry optimizations

    			     By R.A. King, Bethel University

    			        with contributions from

    			    A.V. Copan, J. Cayton, A. Heide

    			-----------------------------------------

	                            ===> Fragment 1 <==

	 Z (Atomic Numbers)          Masses                          Geom
	       8.000000            15.994915          0.00000000  0.00000000  2.04990974
	      12.000000            23.985042          0.00000000  0.00000000 -1.36702415

	 - Coordinate -           - BOHR/RAD -       - ANG/DEG -
	 R(1,2)           =         3.416934           1.808164

	        --- Internal Coordinate Step in ANG or DEG, aJ/ANG or AJ/DEG ---
	-------------------------------------------------------------------------------
	           Coordinate      Previous         Force          Change          New
	           ----------      --------        ------          ------        ------
	               R(1,2)       1.80816        0.00145        0.00048       1.80864
	-------------------------------------------------------------------------------

	                                 ==> Convergence Check <==

	Measures of convergence in internal coordinates in au.

	Criteria marked as inactive (o), active & met (*), and active & unmet ( ).

	----------------------------------------------------------------------------------------------
	   Step    Total Energy     Delta E     Max Force     RMS Force      Max Disp      RMS Disp
	----------------------------------------------------------------------------------------------
	  Convergence Criteria     1.00e-06 *    3.00e-04 *             o    1.20e-03 *             o
	----------------------------------------------------------------------------------------------
	    11    -275.20956517   -2.20e-06      1.76e-04 *    1.76e-04 o    9.05e-04 *    9.05e-04 o  ~
	----------------------------------------------------------------------------------------------

Next Geometry in Ang
	Fragment 1 (Ang)

	    O   0.0000000000   0.0000000000   1.0850048581
	   Mg   0.0000000000   0.0000000000  -0.7236373664

    Final optimized geometry and variables:
    Molecular point group: c2v
    Full point group: C_inf_v

    Geometry (in Angstrom), charge = 0, multiplicity = 3:

    O            0.000000000000     0.000000000000     1.084765520507
    MG           0.000000000000     0.000000000000    -0.723398028736

    Psi4 stopped on: Wednesday, 16 July 2025 07:19PM
    Psi4 wall time for execution: 0:00:14.67

*** Psi4 exiting successfully. Buy a developer a beer!
