                               Psi4 1.9.1 release

  ==> Input File <==

--------------------------------------------------------------------------
molecule {
0 3
P   0.00000        0.60000        0.00000
P   0.00000       -0.60000        0.00000
}

set {
basis              cc-pvdz
reference          uks
maxiter            500
geom_maxiter       500
DAMPING_PERCENTAGE 1
guess              SAP
}

optimize('b3lyp')
--------------------------------------------------------------------------

    Molecular point group: d2h
  Charge       = 0
  Multiplicity = 3
  Basis Set: CC-PVDZ
    Blend: CC-PVDZ
  Basis Set: (CC-PVDZ AUX)
    Blend: CC-PVDZ-JKFIT
  @DF-UKS Final Energy:  -681.43130782587673
    Total Energy =                       -681.4313078258765017
 Dipole X            :          0.0000000            0.0000000            0.0000000
 Dipole Y            :          0.0000000            0.0000000            0.0000000
 Dipole Z            :          0.0000000            0.0000000            0.0000000
 Magnitude           :                                                    0.0000000
    Molecular point group: d2h
  Basis Set: CC-PVDZ
    Blend: CC-PVDZ
  Basis Set: (CC-PVDZ AUX)
    Blend: CC-PVDZ-JKFIT
  Basis Set: CC-PVDZ
    Blend: CC-PVDZ
  Basis Set: (CC-PVDZ AUX)
    Blend: CC-PVDZ-JKFIT
  @DF-UKS Final Energy:  -681.46494119821841
    Total Energy =                       -681.4649411982182983
  Basis Set: CC-PVDZ
    Blend: CC-PVDZ
  Basis Set: (CC-PVDZ AUX)
    Blend: CC-PVDZ-JKFIT
  Basis Set: CC-PVDZ
    Blend: CC-PVDZ
  @DF-UKS Final Energy:  -681.52833584796213
    Total Energy =                       -681.5283358479621256
  @DF-UKS Final Energy:  -681.74295048366218
    Total Energy =                       -681.7429504836621845
  @DF-UKS Final Energy:  -682.30095541865740
    Total Energy =                       -682.3009554186573951
  @DF-UKS Final Energy:  -682.47303711925872
    Total Energy =                       -682.4730371192586063
  @DF-UKS Final Energy:  -682.56214428031615
    Total Energy =                       -682.5621442803160335
  @DF-UKS Final Energy:  -682.59330061635649
    Total Energy =                       -682.5933006163563732
  @DF-UKS Final Energy:  -682.60101132832597
    Total Energy =                       -682.6010113283259670
  @DF-UKS Final Energy:  -682.60385560105397
    Total Energy =                       -682.6038556010539651
  @DF-UKS Final Energy:  -682.60436318551888
    Total Energy =                       -682.6043631855187641
  @DF-UKS Final Energy:  -682.60446345867297
    Total Energy =                       -682.6044634586730808
  Basis Set: (CC-PVDZ AUX)
    Blend: CC-PVDZ-JKFIT
  Basis Set: CC-PVDZ
    Blend: CC-PVDZ
  Basis Set: (CC-PVDZ AUX)
    Blend: CC-PVDZ-JKFIT
  @DF-UKS Final Energy:  -682.60448760869906
    Total Energy =                       -682.6044876086989461
  Basis Set: CC-PVDZ
    Blend: CC-PVDZ
  Basis Set: (CC-PVDZ AUX)
    Blend: CC-PVDZ-JKFIT
  Charge       = 0
  Multiplicity = 3
  Basis Set: CC-PVDZ
    Blend: CC-PVDZ
  Basis Set: (CC-PVDZ AUX)
    Blend: CC-PVDZ-JKFIT

    Orbital Energies [Eh]
    ---------------------

    Alpha Occupied:

       1Ag   -77.127515     1B2u  -77.127514     2Ag    -6.596048
       2B2u   -6.595930     3Ag    -4.763329     3B2u   -4.762110
       1B3u   -4.756399     1B1g   -4.756295     1B1u   -4.753780
       1B3g   -4.753681     4Ag    -0.694992     4B2u   -0.509537
       5Ag    -0.338478     2B1u   -0.296506     2B3u   -0.286828
       2B3g   -0.177191

    Alpha Virtual:

       2B1g   -0.120348     5B2u    0.033881     6Ag     0.231590
       3B3u    0.311168     3B1u    0.311499     7Ag     0.338989
       6B2u    0.362913     1B2g    0.404807     8Ag     0.406006
       4B1u    0.413657     4B3u    0.414439     3B3g    0.443659
       3B1g    0.446009     1Au     0.517063     7B2u    0.518407
       8B2u    0.572294     9Ag     0.704995     4B3g    0.727948
       4B1g    0.728510     9B2u    1.059310

    Beta Occupied:

       1Ag   -77.122605     1B2u  -77.122605     2Ag    -6.590775
       2B2u   -6.590690     1B3u   -4.753418     1B1g   -4.753321
       3Ag    -4.753122     3B2u   -4.751941     1B1u   -4.744154
       1B3g   -4.744055     4Ag    -0.657476     4B2u   -0.446838
       2B3u   -0.276032     2B1u   -0.253784

    Beta Virtual:

       5Ag    -0.225173     2B1g   -0.101480     2B3g   -0.076792
       5B2u    0.067109     6Ag     0.257380     3B3u    0.336799
       3B1u    0.353484     7Ag     0.366255     6B2u    0.399816
       4B3u    0.428959     1B2g    0.431479     8Ag     0.431927
       4B1u    0.449010     3B1g    0.452490     3B3g    0.469393
       1Au     0.548093     7B2u    0.548140     8B2u    0.586493
       9Ag     0.735982     4B1g    0.754964     4B3g    0.775605
       9B2u    1.093393

    Final Occupation by Irrep:
             Ag   B1g   B2g   B3g    Au   B1u   B2u   B3u
    DOCC [     4,    1,    0,    1,    0,    2,    4,    2 ]
    SOCC [     1,    0,    0,    1,    0,    0,    0,    0 ]
    NA   [     5,    1,    0,    2,    0,    2,    4,    2 ]
    NB   [     4,    1,    0,    1,    0,    2,    4,    2 ]

  @DF-UKS Final Energy:  -682.60448978714726

   => Energetics <=

    Nuclear Repulsion Energy =             59.6648011178665740
    One-Electron Energy =               -1062.0669604007516682
    Two-Electron Energy =                 357.1867546859623417
    DFT Exchange-Correlation Energy =     -37.3890851902245061
    Empirical Dispersion Energy =           0.0000000000000000
    VV10 Nonlocal Energy =                  0.0000000000000000
    Total Energy =                       -682.6044897871472585

  UHF NO Occupations:
  HONO-2 :    4B2u 1.9982102
  HONO-1 :    2B3g 1.0000000
  HONO-0 :    5 Ag 1.0000000
  LUNO+0 :    5B2u 0.0017898
  LUNO+1 :    3B1u 0.0014282
  LUNO+2 :    6 Ag 0.0003460
  LUNO+3 :    3B3u 0.0001740

Computation Completed

Properties will be evaluated at   0.000000,   0.000000,   0.000000 [a0]

Properties computed using the SCF density matrix

 Multipole Moments:

 ------------------------------------------------------------------------------------
     Multipole            Electronic (a.u.)      Nuclear  (a.u.)        Total (a.u.)
 ------------------------------------------------------------------------------------

 L = 1.  Multiply by 2.5417464519 to convert [e a0] to [Debye]
 Dipole X            :          0.0000000            0.0000000            0.0000000
 Dipole Y            :          0.0000000            0.0000000            0.0000000
 Dipole Z            :          0.0000000            0.0000000            0.0000000
 Magnitude           :                                                    0.0000000

 ------------------------------------------------------------------------------------

*** tstop() called on Joses-MacBook-Pro-2.local at Wed Jul 16 20:21:30 2025
Module time:
	user time   =       7.59 seconds =       0.13 minutes
	system time =       2.13 seconds =       0.04 minutes
	total time  =          1 seconds =       0.02 minutes
Total time:
	user time   =     155.76 seconds =       2.60 minutes
	system time =      45.64 seconds =       0.76 minutes
	total time  =         20 seconds =       0.33 minutes

*** tstart() called on Joses-MacBook-Pro-2.local
*** at Wed Jul 16 20:21:30 2025

         ------------------------------------------------------------
                                   SCF GRAD
                          Rob Parrish, Justin Turney,
                       Andy Simmonett, and Alex Sokolov
         ------------------------------------------------------------

  ==> Geometry <==

    Molecular point group: d2h
    Full point group: D_inf_h

    Geometry (in Angstrom), charge = 0, multiplicity = 3:

       Center              X                  Y                   Z               Mass
    ------------   -----------------  -----------------  -----------------  -----------------
         P           -0.000000000000     0.997781524198     0.000000000000    30.973761998420
         P            0.000000000000    -0.997781524198     0.000000000000    30.973761998420

  Nuclear repulsion =   59.664801117866574

  ==> Basis Set <==

  Basis Set: CC-PVDZ
    Blend: CC-PVDZ
    Number of shells: 16
    Number of basis functions: 36
    Number of Cartesian functions: 38
    Spherical Harmonics?: true
    Max angular momentum: 2

  ==> DFJKGrad: Density-Fitted SCF Gradients <==

    Gradient:                    1
    J tasked:                  Yes
    K tasked:                  Yes
    wK tasked:                  No
    OpenMP threads:              1
    Integrals threads:           1
    Memory [MiB]:              375
    Schwarz Cutoff:          1E-12
    Fitting Condition:       1E-10

   => Auxiliary Basis Set <=

  Basis Set: (CC-PVDZ AUX)
    Blend: CC-PVDZ-JKFIT
    Number of shells: 72
    Number of basis functions: 224
    Number of Cartesian functions: 260
    Spherical Harmonics?: true
    Max angular momentum: 3

  ==> DFT Potential <==

   => LibXC <=

    Version 6.2.2
    S. Lehtola, C. Steigemann, M. J.T. Oliveira, and M. A.L. Marques.,  SoftwareX 7, 1â€“5 (2018) (10.1016/j.softx.2017.11.002)

   => Composite Functional: B3LYP <=

    B3LYP Hyb-GGA Exchange-Correlation Functional

    P. J. Stephens, F. J. Devlin, C. F. Chabalowski, and M. J. Frisch.,  J. Phys. Chem. 98, 11623 (1994) (10.1021/j100096a001)

    Deriv               =              1
    GGA                 =           TRUE
    Meta                =          FALSE

    Exchange Hybrid     =           TRUE
    MP2 Hybrid          =          FALSE

   => Exchange Functionals <=

    0.0800   Slater exchange
    0.7200         Becke 88

   => Exact (HF) Exchange <=

    0.2000               HF

   => Correlation Functionals <=

    0.1900   Vosko, Wilk & Nusair (VWN5_RPA)
    0.8100   Lee, Yang & Parr

   => LibXC Density Thresholds  <==

    XC_HYB_GGA_XC_B3LYP:  1.00E-15

   => Molecular Quadrature <=

    Radial Scheme          =       TREUTLER
    Pruning Scheme         =           NONE
    Nuclear Scheme         =       TREUTLER

    Blocking Scheme        =         OCTREE
    BS radius alpha        =              1
    Pruning alpha          =              1
    Radial Points          =             75
    Spherical Points       =            302
    Total Points           =          40816
    Total Blocks           =            376
    Max Points             =            249
    Max Functions          =             36
    Weights Tolerance      =       1.00E-15

  -Total Gradient:
     Atom            X                  Y                   Z
    ------   -----------------  -----------------  -----------------
       1        0.000000000000    -0.000193659991    -0.000000000000
       2       -0.000000000000     0.000193659991    -0.000000000000

*** tstop() called on Joses-MacBook-Pro-2.local at Wed Jul 16 20:21:30 2025
Module time:
	user time   =       2.15 seconds =       0.04 minutes
	system time =       1.43 seconds =       0.02 minutes
	total time  =          0 seconds =       0.00 minutes
Total time:
	user time   =     157.91 seconds =       2.63 minutes
	system time =      47.08 seconds =       0.78 minutes
	total time  =         20 seconds =       0.33 minutes

    			-----------------------------------------

    			 OPTKING 3.0: for geometry optimizations

    			     By R.A. King, Bethel University

    			        with contributions from

    			    A.V. Copan, J. Cayton, A. Heide

    			-----------------------------------------

	                            ===> Fragment 1 <==

	 Z (Atomic Numbers)          Masses                          Geom
	      15.000000            30.973762         -0.00000000  1.88553381  0.00000000
	      15.000000            30.973762          0.00000000 -1.88553381  0.00000000

	 - Coordinate -           - BOHR/RAD -       - ANG/DEG -
	 R(1,2)           =         3.771068           1.995563

	        --- Internal Coordinate Step in ANG or DEG, aJ/ANG or AJ/DEG ---
	-------------------------------------------------------------------------------
	           Coordinate      Previous         Force          Change          New
	           ----------      --------        ------          ------        ------
	               R(1,2)       1.99556        0.00160        0.00038       1.99594
	-------------------------------------------------------------------------------

	                                 ==> Convergence Check <==

	Measures of convergence in internal coordinates in au.

	Criteria marked as inactive (o), active & met (*), and active & unmet ( ).

	----------------------------------------------------------------------------------------------
	   Step    Total Energy     Delta E     Max Force     RMS Force      Max Disp      RMS Disp
	----------------------------------------------------------------------------------------------
	  Convergence Criteria     1.00e-06 *    3.00e-04 *             o    1.20e-03 *             o
	----------------------------------------------------------------------------------------------
	    14    -682.60448979   -2.18e-06      1.94e-04 *    1.94e-04 o    7.20e-04 *    7.20e-04 o  ~
	----------------------------------------------------------------------------------------------

Next Geometry in Ang
	Fragment 1 (Ang)

	    P  -0.0000000000   0.9979719382   0.0000000000
	    P   0.0000000000  -0.9979719382   0.0000000000

    Final optimized geometry and variables:
    Molecular point group: d2h
    Full point group: D_inf_h

    Geometry (in Angstrom), charge = 0, multiplicity = 3:

    P           -0.000000000000     0.997781524198     0.000000000000
    P            0.000000000000    -0.997781524198     0.000000000000

    Psi4 stopped on: Wednesday, 16 July 2025 08:21PM
    Psi4 wall time for execution: 0:00:20.37

*** Psi4 exiting successfully. Buy a developer a beer!
