                               Psi4 1.9.1 release

  ==> Input File <==

--------------------------------------------------------------------------
molecule {
0 3
Be   0.00000        0.60000        0.00000
Ar   0.00000       -0.60000        0.00000
}

set {
basis              cc-pvdz
reference          uks
maxiter            500
geom_maxiter       500
DAMPING_PERCENTAGE 1
guess              SAP
}

optimize('b3lyp')
--------------------------------------------------------------------------

    Molecular point group: c2v
  Charge       = 0
  Multiplicity = 3
  Basis Set: CC-PVDZ
    Blend: CC-PVDZ
  Basis Set: (CC-PVDZ AUX)
    Blend: CC-PVDZ-JKFIT + DEF2-UNIVERSAL-JKFIT
  @DF-UKS Final Energy:  -541.64716582338497
    Total Energy =                       -541.6471658233849666
 Dipole X            :          0.0000000            0.0000000            0.0000000
 Dipole Y            :          0.0000000            0.0000000            0.0000000
 Dipole Z            :         -1.6443369           -0.1097272           -1.7540641
 Magnitude           :                                                    1.7540641
    Molecular point group: c2v
  Basis Set: CC-PVDZ
    Blend: CC-PVDZ
  Basis Set: (CC-PVDZ AUX)
    Blend: CC-PVDZ-JKFIT + DEF2-UNIVERSAL-JKFIT
  Basis Set: CC-PVDZ
    Blend: CC-PVDZ
  Basis Set: (CC-PVDZ AUX)
    Blend: CC-PVDZ-JKFIT + DEF2-UNIVERSAL-JKFIT
  @DF-UKS Final Energy:  -541.85780946019815
    Total Energy =                       -541.8578094601981547
  Basis Set: CC-PVDZ
    Blend: CC-PVDZ
  Basis Set: (CC-PVDZ AUX)
    Blend: CC-PVDZ-JKFIT + DEF2-UNIVERSAL-JKFIT
  Basis Set: CC-PVDZ
    Blend: CC-PVDZ
  @DF-UKS Final Energy:  -541.98356155480315
    Total Energy =                       -541.9835615548031456
  @DF-UKS Final Energy:  -542.04979635199982
    Total Energy =                       -542.0497963519998166
  @DF-UKS Final Energy:  -542.08384312803321
    Total Energy =                       -542.0838431280332088
  @DF-UKS Final Energy:  -542.10177894047774
    Total Energy =                       -542.1017789404777432
  @DF-UKS Final Energy:  -542.11140030048500
    Total Energy =                       -542.1114003004850019
  @DF-UKS Final Energy:  -542.11667385579278
    Total Energy =                       -542.1166738557927829
  @DF-UKS Final Energy:  -542.11961838769139
    Total Energy =                       -542.1196183876913892
  @DF-UKS Final Energy:  -542.12128403037457
    Total Energy =                       -542.1212840303745679
  @DF-UKS Final Energy:  -542.12221174318199
    Total Energy =                       -542.1222117431819925
  @DF-UKS Final Energy:  -542.12269263524047
    Total Energy =                       -542.1226926352404689
  @DF-UKS Final Energy:  -542.12290866159913
    Total Energy =                       -542.1229086615991264
  @DF-UKS Final Energy:  -542.12298496919300
    Total Energy =                       -542.1229849691928848
  @DF-UKS Final Energy:  -542.12300244427990
    Total Energy =                       -542.1230024442799049
  Basis Set: (CC-PVDZ AUX)
    Blend: CC-PVDZ-JKFIT + DEF2-UNIVERSAL-JKFIT
  Basis Set: CC-PVDZ
    Blend: CC-PVDZ
  Basis Set: (CC-PVDZ AUX)
    Blend: CC-PVDZ-JKFIT + DEF2-UNIVERSAL-JKFIT
  @DF-UKS Final Energy:  -542.12300437072679
    Total Energy =                       -542.1230043707267896
  Basis Set: CC-PVDZ
    Blend: CC-PVDZ
  Basis Set: (CC-PVDZ AUX)
    Blend: CC-PVDZ-JKFIT + DEF2-UNIVERSAL-JKFIT
  Charge       = 0
  Multiplicity = 3
  Basis Set: CC-PVDZ
    Blend: CC-PVDZ
  Basis Set: (CC-PVDZ AUX)
    Blend: CC-PVDZ-JKFIT + DEF2-UNIVERSAL-JKFIT

    Orbital Energies [Eh]
    ---------------------

    Alpha Occupied:

       1A1  -115.113581     2A1   -11.149626     3A1    -8.699867
       1B1    -8.699355     1B2    -8.699287     4A1    -4.112007
       5A1    -0.977646     6A1    -0.438774     2B1    -0.434206
       2B2    -0.433625     7A1    -0.264365     3B2    -0.136011

    Alpha Virtual:

       3B1    -0.064315     8A1    -0.057483     4B2     0.167560
       9A1     0.181611     4B1     0.186608    10A1     0.198053
      11A1     0.428801     5B2     0.435688     1A2     0.444143
       5B1     0.452724    12A1     0.454388     6B2     0.593833
       6B1     0.593921    13A1     0.630405    14A1     0.809181
      15A1     0.823905     2A2     0.823920     7B1     0.824269
       7B2     0.824636    16A1     0.906080

    Beta Occupied:

       1A1  -115.113414     2A1   -11.149460     3A1    -8.699489
       1B1    -8.699234     1B2    -8.699117     4A1    -4.093436
       5A1    -0.976937     6A1    -0.437445     2B1    -0.434030
       2B2    -0.433268

    Beta Virtual:

       7A1    -0.115604     3B1    -0.005707     8A1    -0.000600
       3B2     0.022765     4B1     0.212012     9A1     0.217006
      10A1     0.231520     4B2     0.238707    11A1     0.482660
       5B1     0.508005     5B2     0.529162     1A2     0.558250
      12A1     0.558976     6B1     0.602916     6B2     0.611867
      13A1     0.637530    14A1     0.810498    15A1     0.824207
       2A2     0.824221     7B1     0.825096     7B2     0.825767
      16A1     0.918126

    Final Occupation by Irrep:
             A1    A2    B1    B2
    DOCC [     6,    0,    2,    2 ]
    SOCC [     1,    0,    0,    1 ]
    NA   [     7,    0,    2,    3 ]
    NB   [     6,    0,    2,    2 ]

  @DF-UKS Final Energy:  -542.12300456728315

   => Energetics <=

    Nuclear Repulsion Energy =             11.4913612717370270
    One-Electron Energy =                -770.0336171798940086
    Two-Electron Energy =                 243.5618696808142261
    DFT Exchange-Correlation Energy =     -27.1426183399403200
    Empirical Dispersion Energy =           0.0000000000000000
    VV10 Nonlocal Energy =                  0.0000000000000000
    Total Energy =                       -542.1230045672831466

  UHF NO Occupations:
  HONO-2 :    6 A1 1.9999708
  HONO-1 :    7 A1 1.0000000
  HONO-0 :    3 B2 1.0000000
  LUNO+0 :    8 A1 0.0000292
  LUNO+1 :    3 B1 0.0000016
  LUNO+2 :    4 B2 0.0000010
  LUNO+3 :    9 A1 0.0000006

Computation Completed

Properties will be evaluated at   0.000000,   0.000000,   0.000000 [a0]

Properties computed using the SCF density matrix

 Multipole Moments:

 ------------------------------------------------------------------------------------
     Multipole            Electronic (a.u.)      Nuclear  (a.u.)        Total (a.u.)
 ------------------------------------------------------------------------------------

 L = 1.  Multiply by 2.5417464519 to convert [e a0] to [Debye]
 Dipole X            :          0.0000000            0.0000000            0.0000000
 Dipole Y            :          0.0000000            0.0000000            0.0000000
 Dipole Z            :          0.1381990           -0.3031763           -0.1649773
 Magnitude           :                                                    0.1649773

 ------------------------------------------------------------------------------------

*** tstop() called on Joses-MacBook-Pro-2.local at Wed Jul 16 18:48:22 2025
Module time:
	user time   =       2.48 seconds =       0.04 minutes
	system time =       4.05 seconds =       0.07 minutes
	total time  =          1 seconds =       0.02 minutes
Total time:
	user time   =      75.66 seconds =       1.26 minutes
	system time =     114.17 seconds =       1.90 minutes
	total time  =         21 seconds =       0.35 minutes

*** tstart() called on Joses-MacBook-Pro-2.local
*** at Wed Jul 16 18:48:22 2025

         ------------------------------------------------------------
                                   SCF GRAD
                          Rob Parrish, Justin Turney,
                       Andy Simmonett, and Alex Sokolov
         ------------------------------------------------------------

  ==> Geometry <==

    Molecular point group: c2v
    Full point group: C_inf_v

    Geometry (in Angstrom), charge = 0, multiplicity = 3:

       Center              X                  Y                   Z               Mass
    ------------   -----------------  -----------------  -----------------  -----------------
         BE           0.000000000000     0.000000000000     2.705471305461     9.012183065000
         AR           0.000000000000     0.000000000000    -0.610128845581    39.962383123700

  Nuclear repulsion =   11.491361271737027

  ==> Basis Set <==

  Basis Set: CC-PVDZ
    Blend: CC-PVDZ
    Number of shells: 14
    Number of basis functions: 32
    Number of Cartesian functions: 34
    Spherical Harmonics?: true
    Max angular momentum: 2

  ==> DFJKGrad: Density-Fitted SCF Gradients <==

    Gradient:                    1
    J tasked:                  Yes
    K tasked:                  Yes
    wK tasked:                  No
    OpenMP threads:              1
    Integrals threads:           1
    Memory [MiB]:              375
    Schwarz Cutoff:          1E-12
    Fitting Condition:       1E-10

   => Auxiliary Basis Set <=

  Basis Set: (CC-PVDZ AUX)
    Blend: CC-PVDZ-JKFIT + DEF2-UNIVERSAL-JKFIT
    Number of shells: 53
    Number of basis functions: 163
    Number of Cartesian functions: 190
    Spherical Harmonics?: true
    Max angular momentum: 3

  ==> DFT Potential <==

   => LibXC <=

    Version 6.2.2
    S. Lehtola, C. Steigemann, M. J.T. Oliveira, and M. A.L. Marques.,  SoftwareX 7, 1â€“5 (2018) (10.1016/j.softx.2017.11.002)

   => Composite Functional: B3LYP <=

    B3LYP Hyb-GGA Exchange-Correlation Functional

    P. J. Stephens, F. J. Devlin, C. F. Chabalowski, and M. J. Frisch.,  J. Phys. Chem. 98, 11623 (1994) (10.1021/j100096a001)

    Deriv               =              1
    GGA                 =           TRUE
    Meta                =          FALSE

    Exchange Hybrid     =           TRUE
    MP2 Hybrid          =          FALSE

   => Exchange Functionals <=

    0.0800   Slater exchange
    0.7200         Becke 88

   => Exact (HF) Exchange <=

    0.2000               HF

   => Correlation Functionals <=

    0.1900   Vosko, Wilk & Nusair (VWN5_RPA)
    0.8100   Lee, Yang & Parr

   => LibXC Density Thresholds  <==

    XC_HYB_GGA_XC_B3LYP:  1.00E-15

   => Molecular Quadrature <=

    Radial Scheme          =       TREUTLER
    Pruning Scheme         =           NONE
    Nuclear Scheme         =       TREUTLER

    Blocking Scheme        =         OCTREE
    BS radius alpha        =              1
    Pruning alpha          =              1
    Radial Points          =             75
    Spherical Points       =            302
    Total Points           =          42853
    Total Blocks           =            403
    Max Points             =            256
    Max Functions          =             32
    Weights Tolerance      =       1.00E-15

  -Total Gradient:
     Atom            X                  Y                   Z
    ------   -----------------  -----------------  -----------------
       1        0.000000000000     0.000000000000    -0.000000888746
       2        0.000000000000    -0.000000000000     0.000011110353

*** tstop() called on Joses-MacBook-Pro-2.local at Wed Jul 16 18:48:22 2025
Module time:
	user time   =       0.79 seconds =       0.01 minutes
	system time =       2.19 seconds =       0.04 minutes
	total time  =          0 seconds =       0.00 minutes
Total time:
	user time   =      76.45 seconds =       1.27 minutes
	system time =     116.36 seconds =       1.94 minutes
	total time  =         21 seconds =       0.35 minutes

    			-----------------------------------------

    			 OPTKING 3.0: for geometry optimizations

    			     By R.A. King, Bethel University

    			        with contributions from

    			    A.V. Copan, J. Cayton, A. Heide

    			-----------------------------------------

	                            ===> Fragment 1 <==

	 Z (Atomic Numbers)          Masses                          Geom
	       4.000000             9.012183          0.00000000  0.00000000  5.11259981
	      18.000000            39.962383          0.00000000  0.00000000 -1.15297642

	 - Coordinate -           - BOHR/RAD -       - ANG/DEG -
	 R(1,2)           =         6.265576           3.315600

	        --- Internal Coordinate Step in ANG or DEG, aJ/ANG or AJ/DEG ---
	-------------------------------------------------------------------------------
	           Coordinate      Previous         Force          Change          New
	           ----------      --------        ------          ------        ------
	               R(1,2)       3.31560        0.00005        0.00329       3.31889
	-------------------------------------------------------------------------------

	                                 ==> Convergence Check <==

	Measures of convergence in internal coordinates in au.

	Criteria marked as inactive (o), active & met (*), and active & unmet ( ).

	----------------------------------------------------------------------------------------------
	   Step    Total Energy     Delta E     Max Force     RMS Force      Max Disp      RMS Disp
	----------------------------------------------------------------------------------------------
	  Convergence Criteria     1.00e-06 *    3.00e-04 *             o    1.20e-03 *             o
	----------------------------------------------------------------------------------------------
	    17    -542.12300457   -1.97e-07 *    6.00e-06 *    6.00e-06 o    6.21e-03      6.21e-03 o  ~
	----------------------------------------------------------------------------------------------

Next Geometry in Ang
	Fragment 1 (Ang)

	   Be   0.0000000000   0.0000000000   2.7071141448
	   Ar   0.0000000000   0.0000000000  -0.6117716849

    Final optimized geometry and variables:
    Molecular point group: c2v
    Full point group: C_inf_v

    Geometry (in Angstrom), charge = 0, multiplicity = 3:

    BE           0.000000000000     0.000000000000     2.705471305461
    AR           0.000000000000     0.000000000000    -0.610128845581

    Psi4 stopped on: Wednesday, 16 July 2025 06:48PM
    Psi4 wall time for execution: 0:00:22.18

*** Psi4 exiting successfully. Buy a developer a beer!
