                               Psi4 1.9.1 release

  ==> Input File <==

--------------------------------------------------------------------------
molecule {
0 3
He   0.00000        0.60000        0.00000
Si   0.00000       -0.60000        0.00000
}

set {
basis              cc-pvdz
reference          uks
maxiter            500
geom_maxiter       500
DAMPING_PERCENTAGE 1
guess              SAP
}

optimize('b3lyp')
--------------------------------------------------------------------------

    Molecular point group: c2v
  Charge       = 0
  Multiplicity = 3
  Basis Set: CC-PVDZ
    Blend: CC-PVDZ
  Basis Set: (CC-PVDZ AUX)
    Blend: CC-PVDZ-JKFIT + DEF2-UNIVERSAL-JKFIT
  @DF-UKS Final Energy:  -292.14390488293924
    Total Energy =                       -292.1439048829392959
 Dipole X            :          0.0000000            0.0000000            0.0000000
 Dipole Y            :          0.0000000            0.0000000            0.0000000
 Dipole Z            :          0.9939193           -0.0058566            0.9880627
 Magnitude           :                                                    0.9880627
    Molecular point group: c2v
  Basis Set: CC-PVDZ
    Blend: CC-PVDZ
  Basis Set: (CC-PVDZ AUX)
    Blend: CC-PVDZ-JKFIT + DEF2-UNIVERSAL-JKFIT
  Basis Set: CC-PVDZ
    Blend: CC-PVDZ
  Basis Set: (CC-PVDZ AUX)
    Blend: CC-PVDZ-JKFIT + DEF2-UNIVERSAL-JKFIT
  @DF-UKS Final Energy:  -292.23865016197630
    Total Energy =                       -292.2386501619762953
  Basis Set: CC-PVDZ
    Blend: CC-PVDZ
  Basis Set: (CC-PVDZ AUX)
    Blend: CC-PVDZ-JKFIT + DEF2-UNIVERSAL-JKFIT
  Basis Set: CC-PVDZ
    Blend: CC-PVDZ
  @DF-UKS Final Energy:  -292.25886443176444
    Total Energy =                       -292.2588644317644935
  @DF-UKS Final Energy:  -292.27665775786051
    Total Energy =                       -292.2766577578605052
  @DF-UKS Final Energy:  -292.28612085204088
    Total Energy =                       -292.2861208520408809
  @DF-UKS Final Energy:  -292.29144878948028
    Total Energy =                       -292.2914487894802846
  @DF-UKS Final Energy:  -292.29412656627846
    Total Energy =                       -292.2941265662784645
  @DF-UKS Final Energy:  -292.29538795594772
    Total Energy =                       -292.2953879559477173
  @DF-UKS Final Energy:  -292.29593556679851
    Total Energy =                       -292.2959355667985619
  @DF-UKS Final Energy:  -292.29614787909156
    Total Energy =                       -292.2961478790915635
  @DF-UKS Final Energy:  -292.29621577126341
    Total Energy =                       -292.2962157712634053
  @DF-UKS Final Energy:  -292.29622865486090
    Total Energy =                       -292.2962286548608972
  Basis Set: (CC-PVDZ AUX)
    Blend: CC-PVDZ-JKFIT + DEF2-UNIVERSAL-JKFIT
  Basis Set: CC-PVDZ
    Blend: CC-PVDZ
  Basis Set: (CC-PVDZ AUX)
    Blend: CC-PVDZ-JKFIT + DEF2-UNIVERSAL-JKFIT
  @DF-UKS Final Energy:  -292.29623192681441
    Total Energy =                       -292.2962319268144142
  Basis Set: CC-PVDZ
    Blend: CC-PVDZ
  Basis Set: (CC-PVDZ AUX)
    Blend: CC-PVDZ-JKFIT + DEF2-UNIVERSAL-JKFIT
  Charge       = 0
  Multiplicity = 3
  Basis Set: CC-PVDZ
    Blend: CC-PVDZ
  Basis Set: (CC-PVDZ AUX)
    Blend: CC-PVDZ-JKFIT + DEF2-UNIVERSAL-JKFIT

    Orbital Energies [Eh]
    ---------------------

    Alpha Occupied:

       1A1   -66.169572     2A1    -5.311356     3A1    -3.673162
       1B1    -3.669148     1B2    -3.669148     4A1    -0.672883
       5A1    -0.451579     2B2    -0.189821     2B1    -0.189821

    Alpha Virtual:

       6A1    -0.121276     7A1     0.242602     3B2     0.301791
       3B1     0.301791     8A1     0.321805     1A2     0.339723
       9A1     0.339723     4B2     0.345451     4B1     0.345451
      10A1     0.353141    11A1     1.171071     5B1     2.168750
       5B2     2.168750    12A1     2.188457

    Beta Occupied:

       1A1   -66.163688     2A1    -5.304792     3A1    -3.669883
       1B1    -3.656468     1B2    -3.656468     4A1    -0.672954
       5A1    -0.386664

    Beta Virtual:

       6A1    -0.103382     2B2    -0.074153     2B1    -0.074153
       7A1     0.267007     8A1     0.329713     3B2     0.340917
       3B1     0.340917     9A1     0.381230     4B1     0.391501
       4B2     0.391501     1A2     0.418764    10A1     0.418764
      11A1     1.171891     5B1     2.168778     5B2     2.168778
      12A1     2.188602

    Final Occupation by Irrep:
             A1    A2    B1    B2
    DOCC [     5,    0,    1,    1 ]
    SOCC [     0,    0,    1,    1 ]
    NA   [     5,    0,    2,    2 ]
    NB   [     5,    0,    1,    1 ]

  @DF-UKS Final Energy:  -292.29623226056862

   => Energetics <=

    Nuclear Repulsion Energy =              4.9283562847324429
    One-Electron Energy =                -414.3566588721419635
    Two-Electron Energy =                 134.7756390397839823
    DFT Exchange-Correlation Energy =     -17.6435687129430860
    Empirical Dispersion Energy =           0.0000000000000000
    VV10 Nonlocal Energy =                  0.0000000000000000
    Total Energy =                       -292.2962322605686154

  UHF NO Occupations:
  HONO-2 :    5 A1 1.9984465
  HONO-1 :    2 B1 1.0000000
  HONO-0 :    2 B2 1.0000000
  LUNO+0 :    6 A1 0.0015535
  LUNO+1 :    7 A1 0.0000002
  LUNO+2 :    8 A1 0.0000000
  LUNO+3 :    3 B2 0.0000000

Computation Completed

Properties will be evaluated at   0.000000,   0.000000,   0.000000 [a0]

Properties computed using the SCF density matrix

 Multipole Moments:

 ------------------------------------------------------------------------------------
     Multipole            Electronic (a.u.)      Nuclear  (a.u.)        Total (a.u.)
 ------------------------------------------------------------------------------------

 L = 1.  Multiply by 2.5417464519 to convert [e a0] to [Debye]
 Dipole X            :          0.0000000            0.0000000            0.0000000
 Dipole Y            :          0.0000000            0.0000000            0.0000000
 Dipole Z            :          0.0566627           -0.0146732            0.0419895
 Magnitude           :                                                    0.0419895

 ------------------------------------------------------------------------------------

*** tstop() called on Joses-MacBook-Pro-2.local at Wed Jul 16 18:24:22 2025
Module time:
	user time   =       2.81 seconds =       0.05 minutes
	system time =       3.45 seconds =       0.06 minutes
	total time  =          0 seconds =       0.00 minutes
Total time:
	user time   =      59.34 seconds =       0.99 minutes
	system time =      58.60 seconds =       0.98 minutes
	total time  =         11 seconds =       0.18 minutes

*** tstart() called on Joses-MacBook-Pro-2.local
*** at Wed Jul 16 18:24:22 2025

         ------------------------------------------------------------
                                   SCF GRAD
                          Rob Parrish, Justin Turney,
                       Andy Simmonett, and Alex Sokolov
         ------------------------------------------------------------

  ==> Geometry <==

    Molecular point group: c2v
    Full point group: C_inf_v

    Geometry (in Angstrom), charge = 0, multiplicity = 3:

       Center              X                  Y                   Z               Mass
    ------------   -----------------  -----------------  -----------------  -----------------
         HE           0.000000000000     0.000000000000     2.630177123417     4.002603254130
         SI           0.000000000000     0.000000000000    -0.376294211592    27.976926534650

  Nuclear repulsion =    4.928356284732443

  ==> Basis Set <==

  Basis Set: CC-PVDZ
    Blend: CC-PVDZ
    Number of shells: 11
    Number of basis functions: 23
    Number of Cartesian functions: 24
    Spherical Harmonics?: true
    Max angular momentum: 2

  ==> DFJKGrad: Density-Fitted SCF Gradients <==

    Gradient:                    1
    J tasked:                  Yes
    K tasked:                  Yes
    wK tasked:                  No
    OpenMP threads:              1
    Integrals threads:           1
    Memory [MiB]:              375
    Schwarz Cutoff:          1E-12
    Fitting Condition:       1E-10

   => Auxiliary Basis Set <=

  Basis Set: (CC-PVDZ AUX)
    Blend: CC-PVDZ-JKFIT + DEF2-UNIVERSAL-JKFIT
    Number of shells: 45
    Number of basis functions: 135
    Number of Cartesian functions: 155
    Spherical Harmonics?: true
    Max angular momentum: 3

  ==> DFT Potential <==

   => LibXC <=

    Version 6.2.2
    S. Lehtola, C. Steigemann, M. J.T. Oliveira, and M. A.L. Marques.,  SoftwareX 7, 1â€“5 (2018) (10.1016/j.softx.2017.11.002)

   => Composite Functional: B3LYP <=

    B3LYP Hyb-GGA Exchange-Correlation Functional

    P. J. Stephens, F. J. Devlin, C. F. Chabalowski, and M. J. Frisch.,  J. Phys. Chem. 98, 11623 (1994) (10.1021/j100096a001)

    Deriv               =              1
    GGA                 =           TRUE
    Meta                =          FALSE

    Exchange Hybrid     =           TRUE
    MP2 Hybrid          =          FALSE

   => Exchange Functionals <=

    0.0800   Slater exchange
    0.7200         Becke 88

   => Exact (HF) Exchange <=

    0.2000               HF

   => Correlation Functionals <=

    0.1900   Vosko, Wilk & Nusair (VWN5_RPA)
    0.8100   Lee, Yang & Parr

   => LibXC Density Thresholds  <==

    XC_HYB_GGA_XC_B3LYP:  1.00E-15

   => Molecular Quadrature <=

    Radial Scheme          =       TREUTLER
    Pruning Scheme         =           NONE
    Nuclear Scheme         =       TREUTLER

    Blocking Scheme        =         OCTREE
    BS radius alpha        =              1
    Pruning alpha          =              1
    Radial Points          =             75
    Spherical Points       =            302
    Total Points           =          43032
    Total Blocks           =            384
    Max Points             =            254
    Max Functions          =             23
    Weights Tolerance      =       1.00E-15

  -Total Gradient:
     Atom            X                  Y                   Z
    ------   -----------------  -----------------  -----------------
       1        0.000000000000    -0.000000000000    -0.000015677009
       2        0.000000000000     0.000000000000     0.000005656415

*** tstop() called on Joses-MacBook-Pro-2.local at Wed Jul 16 18:24:23 2025
Module time:
	user time   =       0.50 seconds =       0.01 minutes
	system time =       1.29 seconds =       0.02 minutes
	total time  =          1 seconds =       0.02 minutes
Total time:
	user time   =      59.84 seconds =       1.00 minutes
	system time =      59.90 seconds =       1.00 minutes
	total time  =         12 seconds =       0.20 minutes

    			-----------------------------------------

    			 OPTKING 3.0: for geometry optimizations

    			     By R.A. King, Bethel University

    			        with contributions from

    			    A.V. Copan, J. Cayton, A. Heide

    			-----------------------------------------

	                            ===> Fragment 1 <==

	 Z (Atomic Numbers)          Masses                          Geom
	       2.000000             4.002603          0.00000000  0.00000000  4.97031442
	      14.000000            27.976927          0.00000000  0.00000000 -0.71109300

	 - Coordinate -           - BOHR/RAD -       - ANG/DEG -
	 R(1,2)           =         5.681407           3.006471

	        --- Internal Coordinate Step in ANG or DEG, aJ/ANG or AJ/DEG ---
	-------------------------------------------------------------------------------
	           Coordinate      Previous         Force          Change          New
	           ----------      --------        ------          ------        ------
	               R(1,2)       3.00647        0.00009        0.00380       3.01027
	-------------------------------------------------------------------------------

	                                 ==> Convergence Check <==

	Measures of convergence in internal coordinates in au.

	Criteria marked as inactive (o), active & met (*), and active & unmet ( ).

	----------------------------------------------------------------------------------------------
	   Step    Total Energy     Delta E     Max Force     RMS Force      Max Disp      RMS Disp
	----------------------------------------------------------------------------------------------
	  Convergence Criteria     1.00e-06 *    3.00e-04 *             o    1.20e-03 *             o
	----------------------------------------------------------------------------------------------
	    14    -292.29623226   -3.34e-07 *    1.07e-05 *    1.07e-05 o    7.18e-03      7.18e-03 o  ~
	----------------------------------------------------------------------------------------------

Next Geometry in Ang
	Fragment 1 (Ang)

	   He   0.0000000000   0.0000000000   2.6320768099
	   Si   0.0000000000   0.0000000000  -0.3781938981

    Final optimized geometry and variables:
    Molecular point group: c2v
    Full point group: C_inf_v

    Geometry (in Angstrom), charge = 0, multiplicity = 3:

    HE           0.000000000000     0.000000000000     2.630177123417
    SI           0.000000000000     0.000000000000    -0.376294211592

    Psi4 stopped on: Wednesday, 16 July 2025 06:24PM
    Psi4 wall time for execution: 0:00:12.04

*** Psi4 exiting successfully. Buy a developer a beer!
