                               Psi4 1.9.1 release

  ==> Input File <==

--------------------------------------------------------------------------
molecule {
0 3
Ne   0.00000        0.60000        0.00000
Si   0.00000       -0.60000        0.00000
}

set {
basis              cc-pvdz
reference          uks
maxiter            500
geom_maxiter       500
DAMPING_PERCENTAGE 1
guess              SAP
}

optimize('b3lyp')
--------------------------------------------------------------------------

    Molecular point group: c2v
  Charge       = 0
  Multiplicity = 3
  Basis Set: CC-PVDZ
    Blend: CC-PVDZ
  Basis Set: (CC-PVDZ AUX)
    Blend: CC-PVDZ-JKFIT
  @DF-UKS Final Energy:  -417.79688207680408
    Total Energy =                       -417.7968820768041383
 Dipole X            :          0.0000000            0.0000000            0.0000000
 Dipole Y            :          0.0000000            0.0000000            0.0000000
 Dipole Z            :          1.3678656           -0.0059043            1.3619613
 Magnitude           :                                                    1.3619613
    Molecular point group: c2v
  Basis Set: CC-PVDZ
    Blend: CC-PVDZ
  Basis Set: (CC-PVDZ AUX)
    Blend: CC-PVDZ-JKFIT
  Basis Set: CC-PVDZ
    Blend: CC-PVDZ
  Basis Set: (CC-PVDZ AUX)
    Blend: CC-PVDZ-JKFIT
  @DF-UKS Final Energy:  -418.01761030138096
    Total Energy =                       -418.0176103013809552
  Basis Set: CC-PVDZ
    Blend: CC-PVDZ
  Basis Set: (CC-PVDZ AUX)
    Blend: CC-PVDZ-JKFIT
  Basis Set: CC-PVDZ
    Blend: CC-PVDZ
  @DF-UKS Final Energy:  -418.14570804403002
    Total Energy =                       -418.1457080440300160
  @DF-UKS Final Energy:  -418.21759994812390
    Total Energy =                       -418.2175999481239046
  @DF-UKS Final Energy:  -418.25718248072013
    Total Energy =                       -418.2571824807201324
  @DF-UKS Final Energy:  -418.27898687960760
    Total Energy =                       -418.2789868796076007
  @DF-UKS Final Energy:  -418.29072779458670
    Total Energy =                       -418.2907277945867008
  @DF-UKS Final Energy:  -418.29683196576497
    Total Energy =                       -418.2968319657649090
  @DF-UKS Final Energy:  -418.29979397034833
    Total Energy =                       -418.2997939703483894
  @DF-UKS Final Energy:  -418.30105320270275
    Total Energy =                       -418.3010532027027466
  @DF-UKS Final Energy:  -418.30147685924766
    Total Energy =                       -418.3014768592476571
  @DF-UKS Final Energy:  -418.30155766846906
    Total Energy =                       -418.3015576684691155
  @DF-UKS Final Energy:  -418.30157875654811
    Total Energy =                       -418.3015787565481105
  Basis Set: (CC-PVDZ AUX)
    Blend: CC-PVDZ-JKFIT
  Basis Set: CC-PVDZ
    Blend: CC-PVDZ
  Basis Set: (CC-PVDZ AUX)
    Blend: CC-PVDZ-JKFIT
  @DF-UKS Final Energy:  -418.30158084919231
    Total Energy =                       -418.3015808491923053
  Basis Set: CC-PVDZ
    Blend: CC-PVDZ
  Basis Set: (CC-PVDZ AUX)
    Blend: CC-PVDZ-JKFIT
  Charge       = 0
  Multiplicity = 3
  Basis Set: CC-PVDZ
    Blend: CC-PVDZ
  Basis Set: (CC-PVDZ AUX)
    Blend: CC-PVDZ-JKFIT

    Orbital Energies [Eh]
    ---------------------

    Alpha Occupied:

       1A1   -66.166210     2A1   -30.997782     3A1    -5.308093
       4A1    -3.669897     1B1    -3.665868     1B2    -3.665868
       5A1    -1.460682     6A1    -0.574559     2B1    -0.567667
       2B2    -0.567667     7A1    -0.446751     3B2    -0.187382
       3B1    -0.187382

    Alpha Virtual:

       8A1    -0.114547     9A1     0.246953     4B1     0.304208
       4B2     0.304208    10A1     0.321393    11A1     0.342055
       1A2     0.342056     5B1     0.347298     5B2     0.347298
      12A1     0.362011     6B2     1.345200     6B1     1.345200
      13A1     1.407481    14A1     1.916045     7B2     4.695916
       7B1     4.695916    15A1     4.696865     2A2     4.697672
      16A1     4.697949

    Beta Occupied:

       1A1   -66.160345     2A1   -30.997700     3A1    -5.301553
       4A1    -3.666629     1B1    -3.653223     1B2    -3.653223
       5A1    -1.460557     6A1    -0.574191     2B1    -0.567385
       2B2    -0.567385     7A1    -0.382223

    Beta Virtual:

       8A1    -0.096601     3B2    -0.071931     3B1    -0.071931
       9A1     0.271083    10A1     0.330803     4B1     0.343147
       4B2     0.343147    11A1     0.388048     5B1     0.393220
       5B2     0.393220     1A2     0.420963    12A1     0.420963
       6B2     1.345450     6B1     1.345450    13A1     1.408203
      14A1     1.917309     7B2     4.695981     7B1     4.695981
      15A1     4.696884     2A2     4.697894    16A1     4.698172

    Final Occupation by Irrep:
             A1    A2    B1    B2
    DOCC [     7,    0,    2,    2 ]
    SOCC [     0,    0,    1,    1 ]
    NA   [     7,    0,    3,    3 ]
    NB   [     7,    0,    2,    2 ]

  @DF-UKS Final Energy:  -418.30158101291067

   => Energetics <=

    Nuclear Repulsion Energy =             26.3382435779342430
    One-Electron Energy =                -635.6381140464808368
    Two-Electron Energy =                 217.8810602960795677
    DFT Exchange-Correlation Energy =     -26.8827708404436443
    Empirical Dispersion Energy =           0.0000000000000000
    VV10 Nonlocal Energy =                  0.0000000000000000
    Total Energy =                       -418.3015810129106740

  UHF NO Occupations:
  HONO-2 :    7 A1 1.9984520
  HONO-1 :    3 B1 1.0000000
  HONO-0 :    3 B2 1.0000000
  LUNO+0 :    8 A1 0.0015480
  LUNO+1 :    9 A1 0.0000019
  LUNO+2 :    4 B1 0.0000001
  LUNO+3 :    4 B2 0.0000001

Computation Completed

Properties will be evaluated at   0.000000,   0.000000,   0.000000 [a0]

Properties computed using the SCF density matrix

 Multipole Moments:

 ------------------------------------------------------------------------------------
     Multipole            Electronic (a.u.)      Nuclear  (a.u.)        Total (a.u.)
 ------------------------------------------------------------------------------------

 L = 1.  Multiply by 2.5417464519 to convert [e a0] to [Debye]
 Dipole X            :          0.0000000            0.0000000            0.0000000
 Dipole Y            :          0.0000000            0.0000000            0.0000000
 Dipole Z            :          0.1540014           -0.0138398            0.1401616
 Magnitude           :                                                    0.1401616

 ------------------------------------------------------------------------------------

*** tstop() called on Joses-MacBook-Pro-2.local at Wed Jul 16 19:35:25 2025
Module time:
	user time   =       3.46 seconds =       0.06 minutes
	system time =       3.25 seconds =       0.05 minutes
	total time  =          0 seconds =       0.00 minutes
Total time:
	user time   =      80.74 seconds =       1.35 minutes
	system time =      71.56 seconds =       1.19 minutes
	total time  =         15 seconds =       0.25 minutes

*** tstart() called on Joses-MacBook-Pro-2.local
*** at Wed Jul 16 19:35:25 2025

         ------------------------------------------------------------
                                   SCF GRAD
                          Rob Parrish, Justin Turney,
                       Andy Simmonett, and Alex Sokolov
         ------------------------------------------------------------

  ==> Geometry <==

    Molecular point group: c2v
    Full point group: C_inf_v

    Geometry (in Angstrom), charge = 0, multiplicity = 3:

       Center              X                  Y                   Z               Mass
    ------------   -----------------  -----------------  -----------------  -----------------
         NE           0.000000000000     0.000000000000     1.640508089087    19.992440176200
         SI           0.000000000000     0.000000000000    -1.172314613938    27.976926534650

  Nuclear repulsion =   26.338243577934243

  ==> Basis Set <==

  Basis Set: CC-PVDZ
    Blend: CC-PVDZ
    Number of shells: 14
    Number of basis functions: 32
    Number of Cartesian functions: 34
    Spherical Harmonics?: true
    Max angular momentum: 2

  ==> DFJKGrad: Density-Fitted SCF Gradients <==

    Gradient:                    1
    J tasked:                  Yes
    K tasked:                  Yes
    wK tasked:                  No
    OpenMP threads:              1
    Integrals threads:           1
    Memory [MiB]:              375
    Schwarz Cutoff:          1E-12
    Fitting Condition:       1E-10

   => Auxiliary Basis Set <=

  Basis Set: (CC-PVDZ AUX)
    Blend: CC-PVDZ-JKFIT
    Number of shells: 60
    Number of basis functions: 182
    Number of Cartesian functions: 211
    Spherical Harmonics?: true
    Max angular momentum: 3

  ==> DFT Potential <==

   => LibXC <=

    Version 6.2.2
    S. Lehtola, C. Steigemann, M. J.T. Oliveira, and M. A.L. Marques.,  SoftwareX 7, 1â€“5 (2018) (10.1016/j.softx.2017.11.002)

   => Composite Functional: B3LYP <=

    B3LYP Hyb-GGA Exchange-Correlation Functional

    P. J. Stephens, F. J. Devlin, C. F. Chabalowski, and M. J. Frisch.,  J. Phys. Chem. 98, 11623 (1994) (10.1021/j100096a001)

    Deriv               =              1
    GGA                 =           TRUE
    Meta                =          FALSE

    Exchange Hybrid     =           TRUE
    MP2 Hybrid          =          FALSE

   => Exchange Functionals <=

    0.0800   Slater exchange
    0.7200         Becke 88

   => Exact (HF) Exchange <=

    0.2000               HF

   => Correlation Functionals <=

    0.1900   Vosko, Wilk & Nusair (VWN5_RPA)
    0.8100   Lee, Yang & Parr

   => LibXC Density Thresholds  <==

    XC_HYB_GGA_XC_B3LYP:  1.00E-15

   => Molecular Quadrature <=

    Radial Scheme          =       TREUTLER
    Pruning Scheme         =           NONE
    Nuclear Scheme         =       TREUTLER

    Blocking Scheme        =         OCTREE
    BS radius alpha        =              1
    Pruning alpha          =              1
    Radial Points          =             75
    Spherical Points       =            302
    Total Points           =          43021
    Total Blocks           =            392
    Max Points             =            255
    Max Functions          =             32
    Weights Tolerance      =       1.00E-15

  -Total Gradient:
     Atom            X                  Y                   Z
    ------   -----------------  -----------------  -----------------
       1        0.000000000000     0.000000000000    -0.000030606512
       2        0.000000000000    -0.000000000000     0.000006819055

*** tstop() called on Joses-MacBook-Pro-2.local at Wed Jul 16 19:35:26 2025
Module time:
	user time   =       0.75 seconds =       0.01 minutes
	system time =       1.48 seconds =       0.02 minutes
	total time  =          1 seconds =       0.02 minutes
Total time:
	user time   =      81.49 seconds =       1.36 minutes
	system time =      73.04 seconds =       1.22 minutes
	total time  =         16 seconds =       0.27 minutes

    			-----------------------------------------

    			 OPTKING 3.0: for geometry optimizations

    			     By R.A. King, Bethel University

    			        with contributions from

    			    A.V. Copan, J. Cayton, A. Heide

    			-----------------------------------------

	                            ===> Fragment 1 <==

	 Z (Atomic Numbers)          Masses                          Geom
	      10.000000            19.992440          0.00000000  0.00000000  3.10011099
	      14.000000            27.976927          0.00000000  0.00000000 -2.21535355

	 - Coordinate -           - BOHR/RAD -       - ANG/DEG -
	 R(1,2)           =         5.315465           2.812823

	        --- Internal Coordinate Step in ANG or DEG, aJ/ANG or AJ/DEG ---
	-------------------------------------------------------------------------------
	           Coordinate      Previous         Force          Change          New
	           ----------      --------        ------          ------        ------
	               R(1,2)       2.81282        0.00015        0.00170       2.81452
	-------------------------------------------------------------------------------

	                                 ==> Convergence Check <==

	Measures of convergence in internal coordinates in au.

	Criteria marked as inactive (o), active & met (*), and active & unmet ( ).

	----------------------------------------------------------------------------------------------
	   Step    Total Energy     Delta E     Max Force     RMS Force      Max Disp      RMS Disp
	----------------------------------------------------------------------------------------------
	  Convergence Criteria     1.00e-06 *    3.00e-04 *             o    1.20e-03 *             o
	----------------------------------------------------------------------------------------------
	    15    -418.30158101   -1.64e-07 *    1.87e-05 *    1.87e-05 o    3.21e-03      3.21e-03 o  ~
	----------------------------------------------------------------------------------------------

Next Geometry in Ang
	Fragment 1 (Ang)

	   Ne   0.0000000000   0.0000000000   1.6413576321
	   Si   0.0000000000   0.0000000000  -1.1731641570

    Final optimized geometry and variables:
    Molecular point group: c2v
    Full point group: C_inf_v

    Geometry (in Angstrom), charge = 0, multiplicity = 3:

    NE           0.000000000000     0.000000000000     1.640508089087
    SI           0.000000000000     0.000000000000    -1.172314613938

    Psi4 stopped on: Wednesday, 16 July 2025 07:35PM
    Psi4 wall time for execution: 0:00:15.85

*** Psi4 exiting successfully. Buy a developer a beer!
