                               Psi4 1.9.1 release

  ==> Input File <==

--------------------------------------------------------------------------
molecule {
0 3
C   0.00000        0.60000        0.00000
Ar   0.00000       -0.60000        0.00000
}

set {
basis              cc-pvdz
reference          uks
maxiter            500
geom_maxiter       500
DAMPING_PERCENTAGE 1
guess              SAP
}

optimize('b3lyp')
--------------------------------------------------------------------------

    Molecular point group: c2v
  Charge       = 0
  Multiplicity = 3
  Basis Set: CC-PVDZ
    Blend: CC-PVDZ
  Basis Set: (CC-PVDZ AUX)
    Blend: CC-PVDZ-JKFIT
  @DF-UKS Final Energy:  -564.93580600492180
    Total Energy =                       -564.9358060049218011
 Dipole X            :          0.0000000            0.0000000            0.0000000
 Dipole Y            :          0.0000000            0.0000000            0.0000000
 Dipole Z            :         -3.0107750            1.0375255           -1.9732495
 Magnitude           :                                                    1.9732495
    Molecular point group: c2v
  Basis Set: CC-PVDZ
    Blend: CC-PVDZ
  Basis Set: (CC-PVDZ AUX)
    Blend: CC-PVDZ-JKFIT
  Basis Set: CC-PVDZ
    Blend: CC-PVDZ
  Basis Set: (CC-PVDZ AUX)
    Blend: CC-PVDZ-JKFIT
  @DF-UKS Final Energy:  -565.13297462399703
    Total Energy =                       -565.1329746239970291
  Basis Set: CC-PVDZ
    Blend: CC-PVDZ
  Basis Set: (CC-PVDZ AUX)
    Blend: CC-PVDZ-JKFIT
  Basis Set: CC-PVDZ
    Blend: CC-PVDZ
  @DF-UKS Final Energy:  -565.24340138442130
    Total Energy =                       -565.2434013844213041
  @DF-UKS Final Energy:  -565.30768285830732
    Total Energy =                       -565.3076828583073166
  @DF-UKS Final Energy:  -565.34772293560047
    Total Energy =                       -565.3477229356004727
  @DF-UKS Final Energy:  -565.37142003331223
    Total Energy =                       -565.3714200333122335
  @DF-UKS Final Energy:  -565.38422780102655
    Total Energy =                       -565.3842278010265545
  @DF-UKS Final Energy:  -565.39050294999549
    Total Energy =                       -565.3905029499954935
  @DF-UKS Final Energy:  -565.39338990604676
    Total Energy =                       -565.3933899060466501
  @DF-UKS Final Energy:  -565.39462413402202
    Total Energy =                       -565.3946241340220240
  @DF-UKS Final Energy:  -565.39509304573050
    Total Energy =                       -565.3950930457305049
  @DF-UKS Final Energy:  -565.39521416738717
    Total Energy =                       -565.3952141673871665
  @DF-UKS Final Energy:  -565.39526205834932
    Total Energy =                       -565.3952620583494308
  @DF-UKS Final Energy:  -565.39527253804999
    Total Energy =                       -565.3952725380499942
  Basis Set: (CC-PVDZ AUX)
    Blend: CC-PVDZ-JKFIT
  Basis Set: CC-PVDZ
    Blend: CC-PVDZ
  Basis Set: (CC-PVDZ AUX)
    Blend: CC-PVDZ-JKFIT
  @DF-UKS Final Energy:  -565.39527515736597
    Total Energy =                       -565.3952751573659725
  Basis Set: CC-PVDZ
    Blend: CC-PVDZ
  Basis Set: (CC-PVDZ AUX)
    Blend: CC-PVDZ-JKFIT
  Charge       = 0
  Multiplicity = 3
  Basis Set: CC-PVDZ
    Blend: CC-PVDZ
  Basis Set: (CC-PVDZ AUX)
    Blend: CC-PVDZ-JKFIT

    Orbital Energies [Eh]
    ---------------------

    Alpha Occupied:

       1A1  -115.113802     2A1   -11.149869     3A1   -10.300360
       4A1    -8.700084     1B1    -8.699542     1B2    -8.699542
       5A1    -0.977514     6A1    -0.579995     7A1    -0.435281
       2B1    -0.433739     2B2    -0.433739     3B1    -0.254656
       3B2    -0.254656

    Alpha Virtual:

       8A1    -0.136863     4B1     0.443482     4B2     0.443482
       9A1     0.471919    10A1     0.514584     5B1     0.587985
       5B2     0.587985    11A1     0.630901    12A1     0.782890
       1A2     0.824094    13A1     0.824099     6B1     0.825365
       6B2     0.825365    14A1     0.905848     2A2     1.118857
      15A1     1.118875     7B1     1.129575     7B2     1.129575
      16A1     1.224627

    Beta Occupied:

       1A1  -115.113797     2A1   -11.149864     3A1   -10.272651
       4A1    -8.700154     1B1    -8.699494     1B2    -8.699494
       5A1    -0.977533     6A1    -0.478351     2B1    -0.433573
       2B2    -0.433573     7A1    -0.427004

    Beta Virtual:

       8A1    -0.105275     3B1    -0.062419     3B2    -0.062419
       9A1     0.487641     4B1     0.510967     4B2     0.510967
      10A1     0.553196     5B1     0.599028     5B2     0.599028
      11A1     0.638714    12A1     0.785522     1A2     0.824234
      13A1     0.824238     6B1     0.825882     6B2     0.825882
      14A1     0.920224     7B1     1.198715     7B2     1.198715
       2A2     1.234031    15A1     1.234055    16A1     1.263089

    Final Occupation by Irrep:
             A1    A2    B1    B2
    DOCC [     7,    0,    2,    2 ]
    SOCC [     0,    0,    1,    1 ]
    NA   [     7,    0,    3,    3 ]
    NB   [     7,    0,    2,    2 ]

  @DF-UKS Final Energy:  -565.39527598030554

   => Energetics <=

    Nuclear Repulsion Energy =             19.7373079994981424
    One-Electron Energy =                -818.1237272798621234
    Two-Electron Energy =                 262.1084179692215912
    DFT Exchange-Correlation Energy =     -29.1172746691631552
    Empirical Dispersion Energy =           0.0000000000000000
    VV10 Nonlocal Energy =                  0.0000000000000000
    Total Energy =                       -565.3952759803055415

  UHF NO Occupations:
  HONO-2 :    7 A1 1.9987286
  HONO-1 :    3 B1 1.0000000
  HONO-0 :    3 B2 1.0000000
  LUNO+0 :    8 A1 0.0012714
  LUNO+1 :    9 A1 0.0000512
  LUNO+2 :    4 B2 0.0000005
  LUNO+3 :    4 B1 0.0000005

Computation Completed

Properties will be evaluated at   0.000000,   0.000000,   0.000000 [a0]

Properties computed using the SCF density matrix

 Multipole Moments:

 ------------------------------------------------------------------------------------
     Multipole            Electronic (a.u.)      Nuclear  (a.u.)        Total (a.u.)
 ------------------------------------------------------------------------------------

 L = 1.  Multiply by 2.5417464519 to convert [e a0] to [Debye]
 Dipole X            :          0.0000000            0.0000000            0.0000000
 Dipole Y            :          0.0000000            0.0000000            0.0000000
 Dipole Z            :         -2.6684367            2.5035398           -0.1648970
 Magnitude           :                                                    0.1648970

 ------------------------------------------------------------------------------------

*** tstop() called on Joses-MacBook-Pro-2.local at Wed Jul 16 19:06:44 2025
Module time:
	user time   =       3.15 seconds =       0.05 minutes
	system time =       2.74 seconds =       0.05 minutes
	total time  =          0 seconds =       0.00 minutes
Total time:
	user time   =      81.42 seconds =       1.36 minutes
	system time =      85.20 seconds =       1.42 minutes
	total time  =         16 seconds =       0.27 minutes

*** tstart() called on Joses-MacBook-Pro-2.local
*** at Wed Jul 16 19:06:44 2025

         ------------------------------------------------------------
                                   SCF GRAD
                          Rob Parrish, Justin Turney,
                       Andy Simmonett, and Alex Sokolov
         ------------------------------------------------------------

  ==> Geometry <==

    Molecular point group: c2v
    Full point group: C_inf_v

    Geometry (in Angstrom), charge = 0, multiplicity = 3:

       Center              X                  Y                   Z               Mass
    ------------   -----------------  -----------------  -----------------  -----------------
         C            0.000000000000     0.000000000000     2.226892683475    12.000000000000
         AR           0.000000000000     0.000000000000    -0.668696662033    39.962383123700

  Nuclear repulsion =   19.737307999498142

  ==> Basis Set <==

  Basis Set: CC-PVDZ
    Blend: CC-PVDZ
    Number of shells: 14
    Number of basis functions: 32
    Number of Cartesian functions: 34
    Spherical Harmonics?: true
    Max angular momentum: 2

  ==> DFJKGrad: Density-Fitted SCF Gradients <==

    Gradient:                    1
    J tasked:                  Yes
    K tasked:                  Yes
    wK tasked:                  No
    OpenMP threads:              1
    Integrals threads:           1
    Memory [MiB]:              375
    Schwarz Cutoff:          1E-12
    Fitting Condition:       1E-10

   => Auxiliary Basis Set <=

  Basis Set: (CC-PVDZ AUX)
    Blend: CC-PVDZ-JKFIT
    Number of shells: 60
    Number of basis functions: 182
    Number of Cartesian functions: 211
    Spherical Harmonics?: true
    Max angular momentum: 3

  ==> DFT Potential <==

   => LibXC <=

    Version 6.2.2
    S. Lehtola, C. Steigemann, M. J.T. Oliveira, and M. A.L. Marques.,  SoftwareX 7, 1â€“5 (2018) (10.1016/j.softx.2017.11.002)

   => Composite Functional: B3LYP <=

    B3LYP Hyb-GGA Exchange-Correlation Functional

    P. J. Stephens, F. J. Devlin, C. F. Chabalowski, and M. J. Frisch.,  J. Phys. Chem. 98, 11623 (1994) (10.1021/j100096a001)

    Deriv               =              1
    GGA                 =           TRUE
    Meta                =          FALSE

    Exchange Hybrid     =           TRUE
    MP2 Hybrid          =          FALSE

   => Exchange Functionals <=

    0.0800   Slater exchange
    0.7200         Becke 88

   => Exact (HF) Exchange <=

    0.2000               HF

   => Correlation Functionals <=

    0.1900   Vosko, Wilk & Nusair (VWN5_RPA)
    0.8100   Lee, Yang & Parr

   => LibXC Density Thresholds  <==

    XC_HYB_GGA_XC_B3LYP:  1.00E-15

   => Molecular Quadrature <=

    Radial Scheme          =       TREUTLER
    Pruning Scheme         =           NONE
    Nuclear Scheme         =       TREUTLER

    Blocking Scheme        =         OCTREE
    BS radius alpha        =              1
    Pruning alpha          =              1
    Radial Points          =             75
    Spherical Points       =            302
    Total Points           =          41247
    Total Blocks           =            371
    Max Points             =            252
    Max Functions          =             32
    Weights Tolerance      =       1.00E-15

  -Total Gradient:
     Atom            X                  Y                   Z
    ------   -----------------  -----------------  -----------------
       1        0.000000000000    -0.000000000000    -0.000029455302
       2        0.000000000000    -0.000000000000     0.000024363036

*** tstop() called on Joses-MacBook-Pro-2.local at Wed Jul 16 19:06:44 2025
Module time:
	user time   =       1.00 seconds =       0.02 minutes
	system time =       1.42 seconds =       0.02 minutes
	total time  =          0 seconds =       0.00 minutes
Total time:
	user time   =      82.43 seconds =       1.37 minutes
	system time =      86.62 seconds =       1.44 minutes
	total time  =         16 seconds =       0.27 minutes

    			-----------------------------------------

    			 OPTKING 3.0: for geometry optimizations

    			     By R.A. King, Bethel University

    			        with contributions from

    			    A.V. Copan, J. Cayton, A. Heide

    			-----------------------------------------

	                            ===> Fragment 1 <==

	 Z (Atomic Numbers)          Masses                          Geom
	       6.000000            12.000000          0.00000000  0.00000000  4.20821728
	      18.000000            39.962383          0.00000000  0.00000000 -1.26365355

	 - Coordinate -           - BOHR/RAD -       - ANG/DEG -
	 R(1,2)           =         5.471871           2.895589

	        --- Internal Coordinate Step in ANG or DEG, aJ/ANG or AJ/DEG ---
	-------------------------------------------------------------------------------
	           Coordinate      Previous         Force          Change          New
	           ----------      --------        ------          ------        ------
	               R(1,2)       2.89559        0.00022        0.00416       2.89975
	-------------------------------------------------------------------------------

	                                 ==> Convergence Check <==

	Measures of convergence in internal coordinates in au.

	Criteria marked as inactive (o), active & met (*), and active & unmet ( ).

	----------------------------------------------------------------------------------------------
	   Step    Total Energy     Delta E     Max Force     RMS Force      Max Disp      RMS Disp
	----------------------------------------------------------------------------------------------
	  Convergence Criteria     1.00e-06 *    3.00e-04 *             o    1.20e-03 *             o
	----------------------------------------------------------------------------------------------
	    16    -565.39527598   -8.23e-07 *    2.69e-05 *    2.69e-05 o    7.86e-03      7.86e-03 o  ~
	----------------------------------------------------------------------------------------------

Next Geometry in Ang
	Fragment 1 (Ang)

	    C   0.0000000000   0.0000000000   2.2289736545
	   Ar   0.0000000000   0.0000000000  -0.6707776331

    Final optimized geometry and variables:
    Molecular point group: c2v
    Full point group: C_inf_v

    Geometry (in Angstrom), charge = 0, multiplicity = 3:

    C            0.000000000000     0.000000000000     2.226892683475
    AR           0.000000000000     0.000000000000    -0.668696662033

    Psi4 stopped on: Wednesday, 16 July 2025 07:06PM
    Psi4 wall time for execution: 0:00:16.79

*** Psi4 exiting successfully. Buy a developer a beer!
