                               Psi4 1.9.1 release

  ==> Input File <==

--------------------------------------------------------------------------
molecule {
0 3
Mg   0.00000        0.60000        0.00000
Ar   0.00000       -0.60000        0.00000
}

set {
basis              cc-pvdz
reference          uks
maxiter            500
geom_maxiter       500
DAMPING_PERCENTAGE 1
guess              SAP
}

optimize('b3lyp')
--------------------------------------------------------------------------

    Molecular point group: c2v
  Charge       = 0
  Multiplicity = 3
  Basis Set: CC-PVDZ
    Blend: CC-PVDZ
  Basis Set: (CC-PVDZ AUX)
    Blend: CC-PVDZ-JKFIT + DEF2-UNIVERSAL-JKFIT
  @DF-UKS Final Energy:  -726.23414365887675
    Total Energy =                       -726.2341436588768602
 Dipole X            :          0.0000000            0.0000000            0.0000000
 Dipole Y            :          0.0000000            0.0000000            0.0000000
 Dipole Z            :         -3.0434185            1.6956924           -1.3477261
 Magnitude           :                                                    1.3477261
    Molecular point group: c2v
  Basis Set: CC-PVDZ
    Blend: CC-PVDZ
  Basis Set: (CC-PVDZ AUX)
    Blend: CC-PVDZ-JKFIT + DEF2-UNIVERSAL-JKFIT
  Basis Set: CC-PVDZ
    Blend: CC-PVDZ
  Basis Set: (CC-PVDZ AUX)
    Blend: CC-PVDZ-JKFIT + DEF2-UNIVERSAL-JKFIT
  @DF-UKS Final Energy:  -726.26461589183350
    Total Energy =                       -726.2646158918333867
  Basis Set: CC-PVDZ
    Blend: CC-PVDZ
  Basis Set: (CC-PVDZ AUX)
    Blend: CC-PVDZ-JKFIT + DEF2-UNIVERSAL-JKFIT
  Basis Set: CC-PVDZ
    Blend: CC-PVDZ
  @DF-UKS Final Energy:  -726.32230729810055
    Total Energy =                       -726.3223072981005544
  @DF-UKS Final Energy:  -726.52005724387038
    Total Energy =                       -726.5200572438703830
  @DF-UKS Final Energy:  -727.08396175975986
    Total Energy =                       -727.0839617597598590
  @DF-UKS Final Energy:  -727.27534962373545
    Total Energy =                       -727.2753496237354511
  @DF-UKS Final Energy:  -727.39193532124716
    Total Energy =                       -727.3919353212471606
  @DF-UKS Final Energy:  -727.45737791554347
    Total Energy =                       -727.4573779155434750
  @DF-UKS Final Energy:  -727.49232186741642
    Total Energy =                       -727.4923218674164218
  @DF-UKS Final Energy:  -727.51078981299327
    Total Energy =                       -727.5107898129932664
  @DF-UKS Final Energy:  -727.52059679610704
    Total Energy =                       -727.5205967961071565
  @DF-UKS Final Energy:  -727.52582993548458
    Total Energy =                       -727.5258299354844667
  @DF-UKS Final Energy:  -727.52862096679587
    Total Energy =                       -727.5286209667957564
  @DF-UKS Final Energy:  -727.53008616688783
    Total Energy =                       -727.5300861668877133
  @DF-UKS Final Energy:  -727.53083178790052
    Total Energy =                       -727.5308317879005244
  @DF-UKS Final Energy:  -727.53118693717170
    Total Energy =                       -727.5311869371716966
  @DF-UKS Final Energy:  -727.53133595738461
    Total Energy =                       -727.5313359573846128
  @DF-UKS Final Energy:  -727.53138507253664
    Total Energy =                       -727.5313850725365228
  @DF-UKS Final Energy:  -727.53139494584673
    Total Energy =                       -727.5313949458467278
  Basis Set: (CC-PVDZ AUX)
    Blend: CC-PVDZ-JKFIT + DEF2-UNIVERSAL-JKFIT
  Basis Set: CC-PVDZ
    Blend: CC-PVDZ
  Basis Set: (CC-PVDZ AUX)
    Blend: CC-PVDZ-JKFIT + DEF2-UNIVERSAL-JKFIT
  @DF-UKS Final Energy:  -727.53139759080898
    Total Energy =                       -727.5313975908088651
  Basis Set: CC-PVDZ
    Blend: CC-PVDZ
  Basis Set: (CC-PVDZ AUX)
    Blend: CC-PVDZ-JKFIT + DEF2-UNIVERSAL-JKFIT
  Charge       = 0
  Multiplicity = 3
  Basis Set: CC-PVDZ
    Blend: CC-PVDZ
  Basis Set: (CC-PVDZ AUX)
    Blend: CC-PVDZ-JKFIT + DEF2-UNIVERSAL-JKFIT

    Orbital Energies [Eh]
    ---------------------

    Alpha Occupied:

       1A1  -115.115739     2A1   -46.880908     3A1   -11.151769
       4A1    -8.701973     1B2    -8.701517     1B1    -8.701448
       5A1    -3.159864     2B2    -1.904122     6A1    -1.904120
       2B1    -1.901110     7A1    -0.979783     8A1    -0.440343
       3B2    -0.436430     3B1    -0.435816     9A1    -0.241503
       4B1    -0.105201

    Alpha Virtual:

       4B2    -0.056105    10A1    -0.050088    11A1     0.083631
       5B1     0.131913    12A1     0.139983     5B2     0.141309
       6B1     0.270866    13A1     0.271890     1A2     0.272346
      14A1     0.279623     6B2     0.282251     7B2     0.579924
       7B1     0.581114    15A1     0.616303    16A1     0.806483
       8B2     0.820677     8B1     0.821088    17A1     0.821713
       2A2     0.821775    18A1     0.832896

    Beta Occupied:

       1A1  -115.115607     2A1   -46.876675     3A1   -11.151637
       4A1    -8.701689     1B2    -8.701420     1B1    -8.701296
       5A1    -3.152755     6A1    -1.899865     2B2    -1.899863
       2B1    -1.892329     7A1    -0.979216     8A1    -0.439565
       3B2    -0.436301     3B1    -0.435506

    Beta Virtual:

       9A1    -0.135803     4B2    -0.017438    10A1    -0.013962
       4B1     0.001680    11A1     0.107721    12A1     0.160884
       5B2     0.163238     5B1     0.180091    13A1     0.309273
       6B2     0.319144     6B1     0.339634     1A2     0.341501
      14A1     0.345691     7B2     0.580147     7B1     0.581861
      15A1     0.618077    16A1     0.808187     8B2     0.821176
       8B1     0.821733    17A1     0.821975     2A2     0.822036
      18A1     0.835287

    Final Occupation by Irrep:
             A1    A2    B1    B2
    DOCC [     8,    0,    3,    3 ]
    SOCC [     1,    0,    1,    0 ]
    NA   [     9,    0,    4,    3 ]
    NB   [     8,    0,    3,    3 ]

  @DF-UKS Final Energy:  -727.53139783291033

   => Energetics <=

    Nuclear Repulsion Energy =             31.2010271589627131
    One-Electron Energy =               -1069.1835113944189288
    Two-Electron Energy =                 348.5966152140640588
    DFT Exchange-Correlation Energy =     -38.1455288115181972
    Empirical Dispersion Energy =           0.0000000000000000
    VV10 Nonlocal Energy =                  0.0000000000000000
    Total Energy =                       -727.5313978329103293

  UHF NO Occupations:
  HONO-2 :    8 A1 1.9999908
  HONO-1 :    4 B1 1.0000000
  HONO-0 :    9 A1 1.0000000
  LUNO+0 :   10 A1 0.0000092
  LUNO+1 :    4 B2 0.0000014
  LUNO+2 :    5 B1 0.0000009
  LUNO+3 :   11 A1 0.0000006

Computation Completed

Properties will be evaluated at   0.000000,   0.000000,   0.000000 [a0]

Properties computed using the SCF density matrix

 Multipole Moments:

 ------------------------------------------------------------------------------------
     Multipole            Electronic (a.u.)      Nuclear  (a.u.)        Total (a.u.)
 ------------------------------------------------------------------------------------

 L = 1.  Multiply by 2.5417464519 to convert [e a0] to [Debye]
 Dipole X            :          0.0000000            0.0000000            0.0000000
 Dipole Y            :          0.0000000            0.0000000            0.0000000
 Dipole Z            :         -5.3304808            5.1766859           -0.1537948
 Magnitude           :                                                    0.1537948

 ------------------------------------------------------------------------------------

*** tstop() called on Joses-MacBook-Pro-2.local at Wed Jul 16 20:03:37 2025
Module time:
	user time   =       5.43 seconds =       0.09 minutes
	system time =       2.23 seconds =       0.04 minutes
	total time  =          0 seconds =       0.00 minutes
Total time:
	user time   =     246.77 seconds =       4.11 minutes
	system time =      81.03 seconds =       1.35 minutes
	total time  =         31 seconds =       0.52 minutes

*** tstart() called on Joses-MacBook-Pro-2.local
*** at Wed Jul 16 20:03:37 2025

         ------------------------------------------------------------
                                   SCF GRAD
                          Rob Parrish, Justin Turney,
                       Andy Simmonett, and Alex Sokolov
         ------------------------------------------------------------

  ==> Geometry <==

    Molecular point group: c2v
    Full point group: C_inf_v

    Geometry (in Angstrom), charge = 0, multiplicity = 3:

       Center              X                  Y                   Z               Mass
    ------------   -----------------  -----------------  -----------------  -----------------
         MG           0.000000000000     0.000000000000     2.289361164997    23.985041697000
         AR           0.000000000000     0.000000000000    -1.374052764370    39.962383123700

  Nuclear repulsion =   31.201027158962713

  ==> Basis Set <==

  Basis Set: CC-PVDZ
    Blend: CC-PVDZ
    Number of shells: 16
    Number of basis functions: 36
    Number of Cartesian functions: 38
    Spherical Harmonics?: true
    Max angular momentum: 2

  ==> DFJKGrad: Density-Fitted SCF Gradients <==

    Gradient:                    1
    J tasked:                  Yes
    K tasked:                  Yes
    wK tasked:                  No
    OpenMP threads:              1
    Integrals threads:           1
    Memory [MiB]:              375
    Schwarz Cutoff:          1E-12
    Fitting Condition:       1E-10

   => Auxiliary Basis Set <=

  Basis Set: (CC-PVDZ AUX)
    Blend: CC-PVDZ-JKFIT + DEF2-UNIVERSAL-JKFIT
    Number of shells: 70
    Number of basis functions: 224
    Number of Cartesian functions: 267
    Spherical Harmonics?: true
    Max angular momentum: 4

  ==> DFT Potential <==

   => LibXC <=

    Version 6.2.2
    S. Lehtola, C. Steigemann, M. J.T. Oliveira, and M. A.L. Marques.,  SoftwareX 7, 1â€“5 (2018) (10.1016/j.softx.2017.11.002)

   => Composite Functional: B3LYP <=

    B3LYP Hyb-GGA Exchange-Correlation Functional

    P. J. Stephens, F. J. Devlin, C. F. Chabalowski, and M. J. Frisch.,  J. Phys. Chem. 98, 11623 (1994) (10.1021/j100096a001)

    Deriv               =              1
    GGA                 =           TRUE
    Meta                =          FALSE

    Exchange Hybrid     =           TRUE
    MP2 Hybrid          =          FALSE

   => Exchange Functionals <=

    0.0800   Slater exchange
    0.7200         Becke 88

   => Exact (HF) Exchange <=

    0.2000               HF

   => Correlation Functionals <=

    0.1900   Vosko, Wilk & Nusair (VWN5_RPA)
    0.8100   Lee, Yang & Parr

   => LibXC Density Thresholds  <==

    XC_HYB_GGA_XC_B3LYP:  1.00E-15

   => Molecular Quadrature <=

    Radial Scheme          =       TREUTLER
    Pruning Scheme         =           NONE
    Nuclear Scheme         =       TREUTLER

    Blocking Scheme        =         OCTREE
    BS radius alpha        =              1
    Pruning alpha          =              1
    Radial Points          =             75
    Spherical Points       =            302
    Total Points           =          43088
    Total Blocks           =            423
    Max Points             =            256
    Max Functions          =             36
    Weights Tolerance      =       1.00E-15

  -Total Gradient:
     Atom            X                  Y                   Z
    ------   -----------------  -----------------  -----------------
       1        0.000000000000    -0.000000000000    -0.000002674637
       2       -0.000000000000    -0.000000000000     0.000006057010

*** tstop() called on Joses-MacBook-Pro-2.local at Wed Jul 16 20:03:38 2025
Module time:
	user time   =       2.07 seconds =       0.03 minutes
	system time =       1.90 seconds =       0.03 minutes
	total time  =          1 seconds =       0.02 minutes
Total time:
	user time   =     248.84 seconds =       4.15 minutes
	system time =      82.94 seconds =       1.38 minutes
	total time  =         32 seconds =       0.53 minutes

    			-----------------------------------------

    			 OPTKING 3.0: for geometry optimizations

    			     By R.A. King, Bethel University

    			        with contributions from

    			    A.V. Copan, J. Cayton, A. Heide

    			-----------------------------------------

	                            ===> Fragment 1 <==

	 Z (Atomic Numbers)          Masses                          Geom
	      12.000000            23.985042          0.00000000  0.00000000  4.32626560
	      18.000000            39.962383          0.00000000  0.00000000 -2.59658341

	 - Coordinate -           - BOHR/RAD -       - ANG/DEG -
	 R(1,2)           =         6.922849           3.663414

	        --- Internal Coordinate Step in ANG or DEG, aJ/ANG or AJ/DEG ---
	-------------------------------------------------------------------------------
	           Coordinate      Previous         Force          Change          New
	           ----------      --------        ------          ------        ------
	               R(1,2)       3.66341        0.00004        0.00261       3.66602
	-------------------------------------------------------------------------------

	                                 ==> Convergence Check <==

	Measures of convergence in internal coordinates in au.

	Criteria marked as inactive (o), active & met (*), and active & unmet ( ).

	----------------------------------------------------------------------------------------------
	   Step    Total Energy     Delta E     Max Force     RMS Force      Max Disp      RMS Disp
	----------------------------------------------------------------------------------------------
	  Convergence Criteria     1.00e-06 *    3.00e-04 *             o    1.20e-03 *             o
	----------------------------------------------------------------------------------------------
	    21    -727.53139783   -2.42e-07 *    4.37e-06 *    4.37e-06 o    4.92e-03      4.92e-03 o  ~
	----------------------------------------------------------------------------------------------

Next Geometry in Ang
	Fragment 1 (Ang)

	   Mg   0.0000000000   0.0000000000   2.2906637682
	   Ar   0.0000000000   0.0000000000  -1.3753553676

    Final optimized geometry and variables:
    Molecular point group: c2v
    Full point group: C_inf_v

    Geometry (in Angstrom), charge = 0, multiplicity = 3:

    MG           0.000000000000     0.000000000000     2.289361164997
    AR           0.000000000000     0.000000000000    -1.374052764370

    Psi4 stopped on: Wednesday, 16 July 2025 08:03PM
    Psi4 wall time for execution: 0:00:32.84

*** Psi4 exiting successfully. Buy a developer a beer!
