                               Psi4 1.9.1 release

  ==> Input File <==

--------------------------------------------------------------------------
molecule {
0 3
B   0.00000        0.60000        0.00000
B   0.00000       -0.60000        0.00000
}

set {
basis              cc-pvdz
reference          uks
maxiter            500
geom_maxiter       500
DAMPING_PERCENTAGE 1
guess              SAP
}

optimize('b3lyp')
--------------------------------------------------------------------------

    Molecular point group: d2h
  Charge       = 0
  Multiplicity = 3
  Basis Set: CC-PVDZ
    Blend: CC-PVDZ
  Basis Set: (CC-PVDZ AUX)
    Blend: CC-PVDZ-JKFIT
  @DF-UKS Final Energy:   -49.26862716697605
    Total Energy =                        -49.2686271669760529
 Dipole X            :          0.0000000            0.0000000            0.0000000
 Dipole Y            :          0.0000000            0.0000000            0.0000000
 Dipole Z            :          0.0000000            0.0000000            0.0000000
 Magnitude           :                                                    0.0000000
    Molecular point group: d2h
  Basis Set: CC-PVDZ
    Blend: CC-PVDZ
  Basis Set: (CC-PVDZ AUX)
    Blend: CC-PVDZ-JKFIT
  Basis Set: CC-PVDZ
    Blend: CC-PVDZ
  Basis Set: (CC-PVDZ AUX)
    Blend: CC-PVDZ-JKFIT
  @DF-UKS Final Energy:   -49.34514431166682
    Total Energy =                        -49.3451443116668216
  Basis Set: CC-PVDZ
    Blend: CC-PVDZ
  Basis Set: (CC-PVDZ AUX)
    Blend: CC-PVDZ-JKFIT
  Basis Set: CC-PVDZ
    Blend: CC-PVDZ
  @DF-UKS Final Energy:   -49.35168081798178
    Total Energy =                        -49.3516808179817801
  @DF-UKS Final Energy:   -49.35297555424629
    Total Energy =                        -49.3529755542462922
  @DF-UKS Final Energy:   -49.35326218851829
    Total Energy =                        -49.3532621885182934
  @DF-UKS Final Energy:   -49.35334661310507
    Total Energy =                        -49.3533466131050744
  Basis Set: (CC-PVDZ AUX)
    Blend: CC-PVDZ-JKFIT
  Basis Set: CC-PVDZ
    Blend: CC-PVDZ
  Basis Set: (CC-PVDZ AUX)
    Blend: CC-PVDZ-JKFIT
  @DF-UKS Final Energy:   -49.35335046711567
    Total Energy =                        -49.3533504671156749
  Basis Set: CC-PVDZ
    Blend: CC-PVDZ
  Basis Set: (CC-PVDZ AUX)
    Blend: CC-PVDZ-JKFIT
  Charge       = 0
  Multiplicity = 3
  Basis Set: CC-PVDZ
    Blend: CC-PVDZ
  Basis Set: (CC-PVDZ AUX)
    Blend: CC-PVDZ-JKFIT

    Orbital Energies [Eh]
    ---------------------

    Alpha Occupied:

       1Ag    -6.843169     1B2u   -6.841832     2Ag    -0.532416
       2B2u   -0.321239     1B3u   -0.252980     1B1u   -0.224500

    Alpha Virtual:

       3Ag    -0.188077     1B1g   -0.016992     1B3g    0.003499
       3B2u    0.145987     4Ag     0.239649     2B3u    0.254294
       2B1u    0.269383     5Ag     0.331733     2B1g    0.333553
       2B3g    0.346826     4B2u    0.444655     1B2g    0.594929
       6Ag     0.595045     3B3u    0.685187     5B2u    0.703081
       3B1u    0.709617     1Au     0.843832     6B2u    0.844012
       7Ag     1.103975     3B1g    1.125431     3B3g    1.144150
       7B2u    1.403623

    Beta Occupied:

       1Ag    -6.828820     1B2u   -6.827470     2Ag    -0.494258
       1B1u   -0.202045

    Beta Virtual:

       2B2u   -0.182271     1B3u   -0.121839     3Ag    -0.116069
       1B3g    0.035530     1B1g    0.059501     3B2u    0.168297
       4Ag     0.257190     2B1u    0.276049     2B3u    0.288980
       2B3g    0.363201     5Ag     0.371944     2B1g    0.380499
       4B2u    0.500148     1B2g    0.634760     6Ag     0.640267
       5B2u    0.734995     3B1u    0.739131     3B3u    0.757097
       1Au     0.887776     6B2u    0.894777     7Ag     1.154686
       3B3g    1.176121     3B1g    1.194269     7B2u    1.429163

    Final Occupation by Irrep:
             Ag   B1g   B2g   B3g    Au   B1u   B2u   B3u
    DOCC [     2,    0,    0,    0,    0,    1,    1,    0 ]
    SOCC [     0,    0,    0,    0,    0,    0,    1,    1 ]
    NA   [     2,    0,    0,    0,    0,    1,    2,    1 ]
    NB   [     2,    0,    0,    0,    0,    1,    1,    0 ]

  @DF-UKS Final Energy:   -49.35335065215496

   => Energetics <=

    Nuclear Repulsion Energy =              8.9400828484374362
    One-Electron Energy =                 -82.5936429111529407
    Two-Electron Energy =                  30.7029597163969683
    DFT Exchange-Correlation Energy =      -6.4027503058364301
    Empirical Dispersion Energy =           0.0000000000000000
    VV10 Nonlocal Energy =                  0.0000000000000000
    Total Energy =                        -49.3533506521549583

  UHF NO Occupations:
  HONO-2 :    2 Ag 1.9907516
  HONO-1 :    1B3u 1.0000000
  HONO-0 :    2B2u 1.0000000
  LUNO+0 :    3 Ag 0.0092484
  LUNO+1 :    2B1u 0.0004670
  LUNO+2 :    3B2u 0.0000002
  LUNO+3 :    4 Ag 0.0000001

Computation Completed

Properties will be evaluated at   0.000000,   0.000000,   0.000000 [a0]

Properties computed using the SCF density matrix

 Multipole Moments:

 ------------------------------------------------------------------------------------
     Multipole            Electronic (a.u.)      Nuclear  (a.u.)        Total (a.u.)
 ------------------------------------------------------------------------------------

 L = 1.  Multiply by 2.5417464519 to convert [e a0] to [Debye]
 Dipole X            :          0.0000000            0.0000000            0.0000000
 Dipole Y            :          0.0000000            0.0000000            0.0000000
 Dipole Z            :          0.0000000            0.0000000            0.0000000
 Magnitude           :                                                    0.0000000

 ------------------------------------------------------------------------------------

*** tstop() called on Joses-MacBook-Pro-2.local at Wed Jul 16 18:48:59 2025
Module time:
	user time   =       1.65 seconds =       0.03 minutes
	system time =       3.67 seconds =       0.06 minutes
	total time  =          1 seconds =       0.02 minutes
Total time:
	user time   =      25.47 seconds =       0.42 minutes
	system time =      47.79 seconds =       0.80 minutes
	total time  =          8 seconds =       0.13 minutes

*** tstart() called on Joses-MacBook-Pro-2.local
*** at Wed Jul 16 18:48:59 2025

         ------------------------------------------------------------
                                   SCF GRAD
                          Rob Parrish, Justin Turney,
                       Andy Simmonett, and Alex Sokolov
         ------------------------------------------------------------

  ==> Geometry <==

    Molecular point group: d2h
    Full point group: D_inf_h

    Geometry (in Angstrom), charge = 0, multiplicity = 3:

       Center              X                  Y                   Z               Mass
    ------------   -----------------  -----------------  -----------------  -----------------
         B           -0.000000000000     0.739894164910     0.000000000000    11.009305360000
         B            0.000000000000    -0.739894164910     0.000000000000    11.009305360000

  Nuclear repulsion =    8.940082848437436

  ==> Basis Set <==

  Basis Set: CC-PVDZ
    Blend: CC-PVDZ
    Number of shells: 12
    Number of basis functions: 28
    Number of Cartesian functions: 30
    Spherical Harmonics?: true
    Max angular momentum: 2

  ==> DFJKGrad: Density-Fitted SCF Gradients <==

    Gradient:                    1
    J tasked:                  Yes
    K tasked:                  Yes
    wK tasked:                  No
    OpenMP threads:              1
    Integrals threads:           1
    Memory [MiB]:              375
    Schwarz Cutoff:          1E-12
    Fitting Condition:       1E-10

   => Auxiliary Basis Set <=

  Basis Set: (CC-PVDZ AUX)
    Blend: CC-PVDZ-JKFIT
    Number of shells: 48
    Number of basis functions: 140
    Number of Cartesian functions: 162
    Spherical Harmonics?: true
    Max angular momentum: 3

  ==> DFT Potential <==

   => LibXC <=

    Version 6.2.2
    S. Lehtola, C. Steigemann, M. J.T. Oliveira, and M. A.L. Marques.,  SoftwareX 7, 1â€“5 (2018) (10.1016/j.softx.2017.11.002)

   => Composite Functional: B3LYP <=

    B3LYP Hyb-GGA Exchange-Correlation Functional

    P. J. Stephens, F. J. Devlin, C. F. Chabalowski, and M. J. Frisch.,  J. Phys. Chem. 98, 11623 (1994) (10.1021/j100096a001)

    Deriv               =              1
    GGA                 =           TRUE
    Meta                =          FALSE

    Exchange Hybrid     =           TRUE
    MP2 Hybrid          =          FALSE

   => Exchange Functionals <=

    0.0800   Slater exchange
    0.7200         Becke 88

   => Exact (HF) Exchange <=

    0.2000               HF

   => Correlation Functionals <=

    0.1900   Vosko, Wilk & Nusair (VWN5_RPA)
    0.8100   Lee, Yang & Parr

   => LibXC Density Thresholds  <==

    XC_HYB_GGA_XC_B3LYP:  1.00E-15

   => Molecular Quadrature <=

    Radial Scheme          =       TREUTLER
    Pruning Scheme         =           NONE
    Nuclear Scheme         =       TREUTLER

    Blocking Scheme        =         OCTREE
    BS radius alpha        =              1
    Pruning alpha          =              1
    Radial Points          =             75
    Spherical Points       =            302
    Total Points           =          42508
    Total Blocks           =            392
    Max Points             =            251
    Max Functions          =             28
    Weights Tolerance      =       1.00E-15

  -Total Gradient:
     Atom            X                  Y                   Z
    ------   -----------------  -----------------  -----------------
       1        0.000000000000    -0.000041392679    -0.000000000000
       2       -0.000000000000     0.000041392679    -0.000000000000

*** tstop() called on Joses-MacBook-Pro-2.local at Wed Jul 16 18:48:59 2025
Module time:
	user time   =       0.50 seconds =       0.01 minutes
	system time =       1.09 seconds =       0.02 minutes
	total time  =          0 seconds =       0.00 minutes
Total time:
	user time   =      25.97 seconds =       0.43 minutes
	system time =      48.89 seconds =       0.81 minutes
	total time  =          8 seconds =       0.13 minutes

    			-----------------------------------------

    			 OPTKING 3.0: for geometry optimizations

    			     By R.A. King, Bethel University

    			        with contributions from

    			    A.V. Copan, J. Cayton, A. Heide

    			-----------------------------------------

	                            ===> Fragment 1 <==

	 Z (Atomic Numbers)          Masses                          Geom
	       5.000000            11.009305         -0.00000000  1.39819733  0.00000000
	       5.000000            11.009305          0.00000000 -1.39819733  0.00000000

	 - Coordinate -           - BOHR/RAD -       - ANG/DEG -
	 R(1,2)           =         2.796395           1.479788

	        --- Internal Coordinate Step in ANG or DEG, aJ/ANG or AJ/DEG ---
	-------------------------------------------------------------------------------
	           Coordinate      Previous         Force          Change          New
	           ----------      --------        ------          ------        ------
	               R(1,2)       1.47979        0.00034        0.00005       1.47984
	-------------------------------------------------------------------------------

	                                 ==> Convergence Check <==

	Measures of convergence in internal coordinates in au.

	Criteria marked as inactive (o), active & met (*), and active & unmet ( ).

	----------------------------------------------------------------------------------------------
	   Step    Total Energy     Delta E     Max Force     RMS Force      Max Disp      RMS Disp
	----------------------------------------------------------------------------------------------
	  Convergence Criteria     1.00e-06 *    3.00e-04 *             o    1.20e-03 *             o
	----------------------------------------------------------------------------------------------
	     8     -49.35335065   -1.85e-07 *    4.14e-05 *    4.14e-05 o    1.03e-04 *    1.03e-04 o  ~
	----------------------------------------------------------------------------------------------

Next Geometry in Ang
	Fragment 1 (Ang)

	    B  -0.0000000000   0.7399214877   0.0000000000
	    B   0.0000000000  -0.7399214877   0.0000000000

    Final optimized geometry and variables:
    Molecular point group: d2h
    Full point group: D_inf_h

    Geometry (in Angstrom), charge = 0, multiplicity = 3:

    B           -0.000000000000     0.739894164910     0.000000000000
    B            0.000000000000    -0.739894164910     0.000000000000

    Psi4 stopped on: Wednesday, 16 July 2025 06:48PM
    Psi4 wall time for execution: 0:00:08.59

*** Psi4 exiting successfully. Buy a developer a beer!
