                               Psi4 1.9.1 release

  ==> Input File <==

--------------------------------------------------------------------------
molecule {
0 3
Mg   0.00000        0.60000        0.00000
Mg   0.00000       -0.60000        0.00000
}

set {
basis              cc-pvdz
reference          uks
maxiter            500
geom_maxiter       500
DAMPING_PERCENTAGE 1
guess              SAP
}

optimize('b3lyp')
--------------------------------------------------------------------------

    Molecular point group: d2h
  Charge       = 0
  Multiplicity = 3
  Basis Set: CC-PVDZ
    Blend: CC-PVDZ
  Basis Set: (CC-PVDZ AUX)
    Blend: DEF2-UNIVERSAL-JKFIT
  @DF-UKS Final Energy:  -399.36835902274743
    Total Energy =                       -399.3683590227474269
 Dipole X            :          0.0000000            0.0000000            0.0000000
 Dipole Y            :          0.0000000            0.0000000            0.0000000
 Dipole Z            :          0.0000000            0.0000000            0.0000000
 Magnitude           :                                                    0.0000000
    Molecular point group: d2h
  Basis Set: CC-PVDZ
    Blend: CC-PVDZ
  Basis Set: (CC-PVDZ AUX)
    Blend: DEF2-UNIVERSAL-JKFIT
  Basis Set: CC-PVDZ
    Blend: CC-PVDZ
  Basis Set: (CC-PVDZ AUX)
    Blend: DEF2-UNIVERSAL-JKFIT
  @DF-UKS Final Energy:  -399.37557556455812
    Total Energy =                       -399.3755755645581758
  Basis Set: CC-PVDZ
    Blend: CC-PVDZ
  Basis Set: (CC-PVDZ AUX)
    Blend: DEF2-UNIVERSAL-JKFIT
  Basis Set: CC-PVDZ
    Blend: CC-PVDZ
  @DF-UKS Final Energy:  -399.38954134728311
    Total Energy =                       -399.3895413472831137
  @DF-UKS Final Energy:  -399.44058767345803
    Total Energy =                       -399.4405876734580261
  @DF-UKS Final Energy:  -399.68201474917345
    Total Energy =                       -399.6820147491735042
  @DF-UKS Final Energy:  -399.82737931787761
    Total Energy =                       -399.8273793178776145
  @DF-UKS Final Energy:  -399.93675521701442
    Total Energy =                       -399.9367552170144222
  @DF-UKS Final Energy:  -400.00203917648844
    Total Energy =                       -400.0020391764884380
  @DF-UKS Final Energy:  -400.08284422545415
    Total Energy =                       -400.0828442254542097
  @DF-UKS Final Energy:  -400.11334369856621
    Total Energy =                       -400.1133436985661547
  @DF-UKS Final Energy:  -400.11421816863310
    Total Energy =                       -400.1142181686331014
  @DF-UKS Final Energy:  -400.11763811929586
    Total Energy =                       -400.1176381192959184
  @DF-UKS Final Energy:  -400.11797914327991
    Total Energy =                       -400.1179791432799107
  @DF-UKS Final Energy:  -400.11800938540154
    Total Energy =                       -400.1180093854015922
  Basis Set: (CC-PVDZ AUX)
    Blend: DEF2-UNIVERSAL-JKFIT
  Basis Set: CC-PVDZ
    Blend: CC-PVDZ
  Basis Set: (CC-PVDZ AUX)
    Blend: DEF2-UNIVERSAL-JKFIT
  @DF-UKS Final Energy:  -400.11801220074335
    Total Energy =                       -400.1180122007433511
  Basis Set: CC-PVDZ
    Blend: CC-PVDZ
  Basis Set: (CC-PVDZ AUX)
    Blend: DEF2-UNIVERSAL-JKFIT
  Charge       = 0
  Multiplicity = 3
  Basis Set: CC-PVDZ
    Blend: CC-PVDZ
  Basis Set: (CC-PVDZ AUX)
    Blend: DEF2-UNIVERSAL-JKFIT

    Orbital Energies [Eh]
    ---------------------

    Alpha Occupied:

       1B2u  -46.845844     1Ag   -46.845843     2Ag    -3.126543
       2B2u   -3.126539     1B1u   -1.870711     1B3g   -1.870587
       3Ag    -1.870403     1B3u   -1.869210     3B2u   -1.869155
       1B1g   -1.869083     4Ag    -0.264132     4B2u   -0.185687
       2B3u   -0.109847

    Alpha Virtual:

       2B1u   -0.068105     5Ag    -0.065175     2B1g   -0.022283
       2B3g   -0.013619     5B2u    0.039429     6Ag     0.080026
       7Ag     0.117716     3B3u    0.131792     3B1u    0.138507
       6B2u    0.142846     3B1g    0.170332     3B3g    0.174153
       4B3u    0.240944     7B2u    0.244053     4B1u    0.246899
       1B2g    0.268654     8Ag     0.270538     1Au     0.330450
       8B2u    0.332137     9Ag     0.370477     4B1g    0.450553
       4B3g    0.454226     9B2u    0.648821

    Beta Occupied:

       1B2u  -46.843858     1Ag   -46.843856     2Ag    -3.123183
       2B2u   -3.123178     1B1u   -1.868695     1B3g   -1.868552
       3Ag    -1.868298     3B2u   -1.867003     1B3u   -1.864991
       1B1g   -1.864851     4Ag    -0.239821

    Beta Virtual:

       4B2u   -0.116404     2B1u   -0.057864     2B3u   -0.045660
       5Ag    -0.041699     2B3g    0.003693     2B1g    0.013022
       5B2u    0.051698     6Ag     0.088590     7Ag     0.127712
       3B1u    0.140473     3B3u    0.149229     6B2u    0.160015
       3B3g    0.184576     3B1g    0.193341     7B2u    0.258481
       4B1u    0.263294     4B3u    0.274067     1B2g    0.297794
       8Ag     0.297910     1Au     0.360480     8B2u    0.361095
       9Ag     0.389982     4B3g    0.469705     4B1g    0.481525
       9B2u    0.663159

    Final Occupation by Irrep:
             Ag   B1g   B2g   B3g    Au   B1u   B2u   B3u
    DOCC [     4,    1,    0,    1,    0,    1,    3,    1 ]
    SOCC [     0,    0,    0,    0,    0,    0,    1,    1 ]
    NA   [     4,    1,    0,    1,    0,    1,    4,    2 ]
    NB   [     4,    1,    0,    1,    0,    1,    3,    1 ]

  @DF-UKS Final Energy:  -400.11801246159672

   => Energetics <=

    Nuclear Repulsion Energy =             27.4514093297951760
    One-Electron Energy =                -613.0830872481669758
    Two-Electron Energy =                 212.0589874616125030
    DFT Exchange-Correlation Energy =     -26.5453220048373524
    Empirical Dispersion Energy =           0.0000000000000000
    VV10 Nonlocal Energy =                  0.0000000000000000
    Total Energy =                       -400.1180124615966633

  UHF NO Occupations:
  HONO-2 :    4 Ag 1.9918111
  HONO-1 :    4B2u 1.0000000
  HONO-0 :    2B3u 1.0000000
  LUNO+0 :    5 Ag 0.0081889
  LUNO+1 :    2B1g 0.0000006
  LUNO+2 :    2B3g 0.0000004
  LUNO+3 :    6 Ag 0.0000004

Computation Completed

Properties will be evaluated at   0.000000,   0.000000,   0.000000 [a0]

Properties computed using the SCF density matrix

 Multipole Moments:

 ------------------------------------------------------------------------------------
     Multipole            Electronic (a.u.)      Nuclear  (a.u.)        Total (a.u.)
 ------------------------------------------------------------------------------------

 L = 1.  Multiply by 2.5417464519 to convert [e a0] to [Debye]
 Dipole X            :          0.0000000            0.0000000            0.0000000
 Dipole Y            :          0.0000000            0.0000000            0.0000000
 Dipole Z            :          0.0000000            0.0000000            0.0000000
 Magnitude           :                                                    0.0000000

 ------------------------------------------------------------------------------------

*** tstop() called on Joses-MacBook-Pro-2.local at Wed Jul 16 19:54:12 2025
Module time:
	user time   =       4.34 seconds =       0.07 minutes
	system time =       2.99 seconds =       0.05 minutes
	total time  =          0 seconds =       0.00 minutes
Total time:
	user time   =     160.67 seconds =       2.68 minutes
	system time =      78.56 seconds =       1.31 minutes
	total time  =         23 seconds =       0.38 minutes

*** tstart() called on Joses-MacBook-Pro-2.local
*** at Wed Jul 16 19:54:12 2025

         ------------------------------------------------------------
                                   SCF GRAD
                          Rob Parrish, Justin Turney,
                       Andy Simmonett, and Alex Sokolov
         ------------------------------------------------------------

  ==> Geometry <==

    Molecular point group: d2h
    Full point group: D_inf_h

    Geometry (in Angstrom), charge = 0, multiplicity = 3:

       Center              X                  Y                   Z               Mass
    ------------   -----------------  -----------------  -----------------  -----------------
         MG          -0.000000000000     1.387934539553     0.000000000000    23.985041697000
         MG           0.000000000000    -1.387934539553     0.000000000000    23.985041697000

  Nuclear repulsion =   27.451409329795176

  ==> Basis Set <==

  Basis Set: CC-PVDZ
    Blend: CC-PVDZ
    Number of shells: 16
    Number of basis functions: 36
    Number of Cartesian functions: 38
    Spherical Harmonics?: true
    Max angular momentum: 2

  ==> DFJKGrad: Density-Fitted SCF Gradients <==

    Gradient:                    1
    J tasked:                  Yes
    K tasked:                  Yes
    wK tasked:                  No
    OpenMP threads:              1
    Integrals threads:           1
    Memory [MiB]:              375
    Schwarz Cutoff:          1E-12
    Fitting Condition:       1E-10

   => Auxiliary Basis Set <=

  Basis Set: (CC-PVDZ AUX)
    Blend: DEF2-UNIVERSAL-JKFIT
    Number of shells: 68
    Number of basis functions: 224
    Number of Cartesian functions: 274
    Spherical Harmonics?: true
    Max angular momentum: 4

  ==> DFT Potential <==

   => LibXC <=

    Version 6.2.2
    S. Lehtola, C. Steigemann, M. J.T. Oliveira, and M. A.L. Marques.,  SoftwareX 7, 1â€“5 (2018) (10.1016/j.softx.2017.11.002)

   => Composite Functional: B3LYP <=

    B3LYP Hyb-GGA Exchange-Correlation Functional

    P. J. Stephens, F. J. Devlin, C. F. Chabalowski, and M. J. Frisch.,  J. Phys. Chem. 98, 11623 (1994) (10.1021/j100096a001)

    Deriv               =              1
    GGA                 =           TRUE
    Meta                =          FALSE

    Exchange Hybrid     =           TRUE
    MP2 Hybrid          =          FALSE

   => Exchange Functionals <=

    0.0800   Slater exchange
    0.7200         Becke 88

   => Exact (HF) Exchange <=

    0.2000               HF

   => Correlation Functionals <=

    0.1900   Vosko, Wilk & Nusair (VWN5_RPA)
    0.8100   Lee, Yang & Parr

   => LibXC Density Thresholds  <==

    XC_HYB_GGA_XC_B3LYP:  1.00E-15

   => Molecular Quadrature <=

    Radial Scheme          =       TREUTLER
    Pruning Scheme         =           NONE
    Nuclear Scheme         =       TREUTLER

    Blocking Scheme        =         OCTREE
    BS radius alpha        =              1
    Pruning alpha          =              1
    Radial Points          =             75
    Spherical Points       =            302
    Total Points           =          42370
    Total Blocks           =            410
    Max Points             =            254
    Max Functions          =             36
    Weights Tolerance      =       1.00E-15

  -Total Gradient:
     Atom            X                  Y                   Z
    ------   -----------------  -----------------  -----------------
       1        0.000000000000    -0.000038936444     0.000000000000
       2       -0.000000000000     0.000038936444     0.000000000000

*** tstop() called on Joses-MacBook-Pro-2.local at Wed Jul 16 19:54:13 2025
Module time:
	user time   =       2.81 seconds =       0.05 minutes
	system time =       1.44 seconds =       0.02 minutes
	total time  =          1 seconds =       0.02 minutes
Total time:
	user time   =     163.48 seconds =       2.72 minutes
	system time =      80.00 seconds =       1.33 minutes
	total time  =         24 seconds =       0.40 minutes

    			-----------------------------------------

    			 OPTKING 3.0: for geometry optimizations

    			     By R.A. King, Bethel University

    			        with contributions from

    			    A.V. Copan, J. Cayton, A. Heide

    			-----------------------------------------

	                            ===> Fragment 1 <==

	 Z (Atomic Numbers)          Masses                          Geom
	      12.000000            23.985042         -0.00000000  2.62281616  0.00000000
	      12.000000            23.985042          0.00000000 -2.62281616  0.00000000

	 - Coordinate -           - BOHR/RAD -       - ANG/DEG -
	 R(1,2)           =         5.245632           2.775869

	        --- Internal Coordinate Step in ANG or DEG, aJ/ANG or AJ/DEG ---
	-------------------------------------------------------------------------------
	           Coordinate      Previous         Force          Change          New
	           ----------      --------        ------          ------        ------
	               R(1,2)       2.77587        0.00032        0.00061       2.77648
	-------------------------------------------------------------------------------

	                                 ==> Convergence Check <==

	Measures of convergence in internal coordinates in au.

	Criteria marked as inactive (o), active & met (*), and active & unmet ( ).

	----------------------------------------------------------------------------------------------
	   Step    Total Energy     Delta E     Max Force     RMS Force      Max Disp      RMS Disp
	----------------------------------------------------------------------------------------------
	  Convergence Criteria     1.00e-06 *    3.00e-04 *             o    1.20e-03 *             o
	----------------------------------------------------------------------------------------------
	    16    -400.11801246   -2.61e-07 *    3.89e-05 *    3.89e-05 o    1.15e-03 *    1.15e-03 o  ~
	----------------------------------------------------------------------------------------------

Next Geometry in Ang
	Fragment 1 (Ang)

	   Mg  -0.0000000000   1.3882381619   0.0000000000
	   Mg   0.0000000000  -1.3882381619   0.0000000000

    Final optimized geometry and variables:
    Molecular point group: d2h
    Full point group: D_inf_h

    Geometry (in Angstrom), charge = 0, multiplicity = 3:

    MG          -0.000000000000     1.387934539553     0.000000000000
    MG           0.000000000000    -1.387934539553     0.000000000000

    Psi4 stopped on: Wednesday, 16 July 2025 07:54PM
    Psi4 wall time for execution: 0:00:23.92

*** Psi4 exiting successfully. Buy a developer a beer!
