                               Psi4 1.9.1 release

  ==> Input File <==

--------------------------------------------------------------------------
molecule {
0 3
F   0.00000        0.60000        0.00000
Al   0.00000       -0.60000        0.00000
}

set {
basis              cc-pvdz
reference          uks
maxiter            500
geom_maxiter       500
DAMPING_PERCENTAGE 1
guess              SAP
}

optimize('b3lyp')
--------------------------------------------------------------------------

    Molecular point group: c2v
  Charge       = 0
  Multiplicity = 3
  Basis Set: CC-PVDZ
    Blend: CC-PVDZ
  Basis Set: (CC-PVDZ AUX)
    Blend: CC-PVDZ-JKFIT
  @DF-UKS Final Energy:  -341.90006952802463
    Total Energy =                       -341.9000695280245736
 Dipole X            :          0.0000000            0.0000000            0.0000000
 Dipole Y            :          0.0000000            0.0000000            0.0000000
 Dipole Z            :         -0.1011938           -0.2044455           -0.3056393
 Magnitude           :                                                    0.3056393
    Molecular point group: c2v
  Basis Set: CC-PVDZ
    Blend: CC-PVDZ
  Basis Set: (CC-PVDZ AUX)
    Blend: CC-PVDZ-JKFIT
  Basis Set: CC-PVDZ
    Blend: CC-PVDZ
  Basis Set: (CC-PVDZ AUX)
    Blend: CC-PVDZ-JKFIT
  @DF-UKS Final Energy:  -342.09349167293010
    Total Energy =                       -342.0934916729300994
  Basis Set: CC-PVDZ
    Blend: CC-PVDZ
  Basis Set: (CC-PVDZ AUX)
    Blend: CC-PVDZ-JKFIT
  Basis Set: CC-PVDZ
    Blend: CC-PVDZ
  @DF-UKS Final Energy:  -342.17517427429971
    Total Energy =                       -342.1751742742997067
  @DF-UKS Final Energy:  -342.20369797281614
    Total Energy =                       -342.2036979728160873
  @DF-UKS Final Energy:  -342.21946521271417
    Total Energy =                       -342.2194652127141694
  @DF-UKS Final Energy:  -342.22417198494475
    Total Energy =                       -342.2241719849447463
  @DF-UKS Final Energy:  -342.22616454137346
    Total Energy =                       -342.2261645413734072
  @DF-UKS Final Energy:  -342.22659469769354
    Total Energy =                       -342.2265946976934856
  @DF-UKS Final Energy:  -342.22670829621927
    Total Energy =                       -342.2267082962192717
  Basis Set: (CC-PVDZ AUX)
    Blend: CC-PVDZ-JKFIT
  Basis Set: CC-PVDZ
    Blend: CC-PVDZ
  Basis Set: (CC-PVDZ AUX)
    Blend: CC-PVDZ-JKFIT
  @DF-UKS Final Energy:  -342.22672616517127
    Total Energy =                       -342.2267261651712715
  Basis Set: CC-PVDZ
    Blend: CC-PVDZ
  Basis Set: (CC-PVDZ AUX)
    Blend: CC-PVDZ-JKFIT
  Charge       = 0
  Multiplicity = 3
  Basis Set: CC-PVDZ
    Blend: CC-PVDZ
  Basis Set: (CC-PVDZ AUX)
    Blend: CC-PVDZ-JKFIT

    Orbital Energies [Eh]
    ---------------------

    Alpha Occupied:

       1A1   -56.123881     2A1   -24.667749     3A1    -4.203905
       1B1    -2.758861     4A1    -2.755977     1B2    -2.755080
       5A1    -1.142830     6A1    -0.463170     2B2    -0.401325
       2B1    -0.398693     7A1    -0.315779     3B2    -0.141238

    Alpha Virtual:

       3B1    -0.083742     8A1    -0.001488     9A1     0.146702
       4B2     0.188965     4B1     0.196959     1A2     0.226586
      10A1     0.231775    11A1     0.245696     5B2     0.288407
       5B1     0.294491    12A1     0.464725     6B1     1.276905
       6B2     1.277793    13A1     1.299266    14A1     2.210488
       2A2     3.590415    15A1     3.590598     7B1     3.602496
       7B2     3.603774    16A1     3.655131

    Beta Occupied:

       1A1   -56.118072     2A1   -24.662605     3A1    -4.195328
       1B1    -2.753666     4A1    -2.748901     1B2    -2.743080
       5A1    -1.130636     6A1    -0.439054     2B1    -0.394861
       2B2    -0.387356

    Beta Virtual:

       7A1    -0.185230     3B1    -0.045665     3B2    -0.021054
       8A1     0.027676     9A1     0.179025     4B1     0.216761
       4B2     0.236441    10A1     0.274390     1A2     0.288573
      11A1     0.291962     5B1     0.323245     5B2     0.346665
      12A1     0.494146     6B1     1.281172     6B2     1.288676
      13A1     1.310497    14A1     2.221758     2A2     3.596307
      15A1     3.596354     7B1     3.612061     7B2     3.617651
      16A1     3.668463

    Final Occupation by Irrep:
             A1    A2    B1    B2
    DOCC [     6,    0,    2,    2 ]
    SOCC [     1,    0,    0,    1 ]
    NA   [     7,    0,    2,    3 ]
    NB   [     6,    0,    2,    2 ]

  @DF-UKS Final Energy:  -342.22672722549999

   => Energetics <=

    Nuclear Repulsion Energy =             36.2693518543488338
    One-Electron Energy =                -548.5015805266210691
    Two-Electron Energy =                 193.4983388952558698
    DFT Exchange-Correlation Energy =     -23.4928374484836802
    Empirical Dispersion Energy =           0.0000000000000000
    VV10 Nonlocal Energy =                  0.0000000000000000
    Total Energy =                       -342.2267272254999853

  UHF NO Occupations:
  HONO-2 :    6 A1 1.9997164
  HONO-1 :    3 B2 1.0000000
  HONO-0 :    7 A1 1.0000000
  LUNO+0 :    8 A1 0.0002836
  LUNO+1 :    3 B1 0.0000943
  LUNO+2 :    4 B2 0.0000753
  LUNO+3 :    9 A1 0.0000053

Computation Completed

Properties will be evaluated at   0.000000,   0.000000,   0.000000 [a0]

Properties computed using the SCF density matrix

 Multipole Moments:

 ------------------------------------------------------------------------------------
     Multipole            Electronic (a.u.)      Nuclear  (a.u.)        Total (a.u.)
 ------------------------------------------------------------------------------------

 L = 1.  Multiply by 2.5417464519 to convert [e a0] to [Debye]
 Dipole X            :          0.0000000            0.0000000            0.0000000
 Dipole Y            :          0.0000000            0.0000000            0.0000000
 Dipole Z            :         -0.5973360           -0.2908329           -0.8881689
 Magnitude           :                                                    0.8881689

 ------------------------------------------------------------------------------------

*** tstop() called on Joses-MacBook-Pro-2.local at Wed Jul 16 19:27:46 2025
Module time:
	user time   =       3.35 seconds =       0.06 minutes
	system time =       2.58 seconds =       0.04 minutes
	total time  =          1 seconds =       0.02 minutes
Total time:
	user time   =      54.42 seconds =       0.91 minutes
	system time =      54.58 seconds =       0.91 minutes
	total time  =         11 seconds =       0.18 minutes

*** tstart() called on Joses-MacBook-Pro-2.local
*** at Wed Jul 16 19:27:46 2025

         ------------------------------------------------------------
                                   SCF GRAD
                          Rob Parrish, Justin Turney,
                       Andy Simmonett, and Alex Sokolov
         ------------------------------------------------------------

  ==> Geometry <==

    Molecular point group: c2v
    Full point group: C_inf_v

    Geometry (in Angstrom), charge = 0, multiplicity = 3:

       Center              X                  Y                   Z               Mass
    ------------   -----------------  -----------------  -----------------  -----------------
         F            0.000000000000     0.000000000000     1.001718037168    18.998403162730
         AL           0.000000000000     0.000000000000    -0.705335728144    26.981538530000

  Nuclear repulsion =   36.269351854348834

  ==> Basis Set <==

  Basis Set: CC-PVDZ
    Blend: CC-PVDZ
    Number of shells: 14
    Number of basis functions: 32
    Number of Cartesian functions: 34
    Spherical Harmonics?: true
    Max angular momentum: 2

  ==> DFJKGrad: Density-Fitted SCF Gradients <==

    Gradient:                    1
    J tasked:                  Yes
    K tasked:                  Yes
    wK tasked:                  No
    OpenMP threads:              1
    Integrals threads:           1
    Memory [MiB]:              375
    Schwarz Cutoff:          1E-12
    Fitting Condition:       1E-10

   => Auxiliary Basis Set <=

  Basis Set: (CC-PVDZ AUX)
    Blend: CC-PVDZ-JKFIT
    Number of shells: 60
    Number of basis functions: 182
    Number of Cartesian functions: 211
    Spherical Harmonics?: true
    Max angular momentum: 3

  ==> DFT Potential <==

   => LibXC <=

    Version 6.2.2
    S. Lehtola, C. Steigemann, M. J.T. Oliveira, and M. A.L. Marques.,  SoftwareX 7, 1â€“5 (2018) (10.1016/j.softx.2017.11.002)

   => Composite Functional: B3LYP <=

    B3LYP Hyb-GGA Exchange-Correlation Functional

    P. J. Stephens, F. J. Devlin, C. F. Chabalowski, and M. J. Frisch.,  J. Phys. Chem. 98, 11623 (1994) (10.1021/j100096a001)

    Deriv               =              1
    GGA                 =           TRUE
    Meta                =          FALSE

    Exchange Hybrid     =           TRUE
    MP2 Hybrid          =          FALSE

   => Exchange Functionals <=

    0.0800   Slater exchange
    0.7200         Becke 88

   => Exact (HF) Exchange <=

    0.2000               HF

   => Correlation Functionals <=

    0.1900   Vosko, Wilk & Nusair (VWN5_RPA)
    0.8100   Lee, Yang & Parr

   => LibXC Density Thresholds  <==

    XC_HYB_GGA_XC_B3LYP:  1.00E-15

   => Molecular Quadrature <=

    Radial Scheme          =       TREUTLER
    Pruning Scheme         =           NONE
    Nuclear Scheme         =       TREUTLER

    Blocking Scheme        =         OCTREE
    BS radius alpha        =              1
    Pruning alpha          =              1
    Radial Points          =             75
    Spherical Points       =            302
    Total Points           =          43420
    Total Blocks           =            406
    Max Points             =            253
    Max Functions          =             32
    Weights Tolerance      =       1.00E-15

  -Total Gradient:
     Atom            X                  Y                   Z
    ------   -----------------  -----------------  -----------------
       1       -0.000000000000    -0.000000000000    -0.000200294334
       2        0.000000000000     0.000000000000     0.000066943422

*** tstop() called on Joses-MacBook-Pro-2.local at Wed Jul 16 19:27:46 2025
Module time:
	user time   =       1.23 seconds =       0.02 minutes
	system time =       1.16 seconds =       0.02 minutes
	total time  =          0 seconds =       0.00 minutes
Total time:
	user time   =      55.65 seconds =       0.93 minutes
	system time =      55.74 seconds =       0.93 minutes
	total time  =         11 seconds =       0.18 minutes

    			-----------------------------------------

    			 OPTKING 3.0: for geometry optimizations

    			     By R.A. King, Bethel University

    			        with contributions from

    			    A.V. Copan, J. Cayton, A. Heide

    			-----------------------------------------

	                            ===> Fragment 1 <==

	 Z (Atomic Numbers)          Masses                          Geom
	       9.000000            18.998403          0.00000000  0.00000000  1.89297275
	      13.000000            26.981539          0.00000000  0.00000000 -1.33289135

	 - Coordinate -           - BOHR/RAD -       - ANG/DEG -
	 R(1,2)           =         3.225864           1.707054

	        --- Internal Coordinate Step in ANG or DEG, aJ/ANG or AJ/DEG ---
	-------------------------------------------------------------------------------
	           Coordinate      Previous         Force          Change          New
	           ----------      --------        ------          ------        ------
	               R(1,2)       1.70705        0.00110        0.00025       1.70730
	-------------------------------------------------------------------------------

	                                 ==> Convergence Check <==

	Measures of convergence in internal coordinates in au.

	Criteria marked as inactive (o), active & met (*), and active & unmet ( ).

	----------------------------------------------------------------------------------------------
	   Step    Total Energy     Delta E     Max Force     RMS Force      Max Disp      RMS Disp
	----------------------------------------------------------------------------------------------
	  Convergence Criteria     1.00e-06 *    3.00e-04 *             o    1.20e-03 *             o
	----------------------------------------------------------------------------------------------
	    11    -342.22672723   -1.06e-06      1.34e-04 *    1.34e-04 o    4.70e-04 *    4.70e-04 o  ~
	----------------------------------------------------------------------------------------------

Next Geometry in Ang
	Fragment 1 (Ang)

	    F   0.0000000000   0.0000000000   1.0018424044
	   Al   0.0000000000   0.0000000000  -0.7054600954

    Final optimized geometry and variables:
    Molecular point group: c2v
    Full point group: C_inf_v

    Geometry (in Angstrom), charge = 0, multiplicity = 3:

    F            0.000000000000     0.000000000000     1.001718037168
    AL           0.000000000000     0.000000000000    -0.705335728144

    Psi4 stopped on: Wednesday, 16 July 2025 07:27PM
    Psi4 wall time for execution: 0:00:11.52

*** Psi4 exiting successfully. Buy a developer a beer!
