                               Psi4 1.9.1 release

  ==> Input File <==

--------------------------------------------------------------------------
molecule {
0 3
He   0.00000        0.60000        0.00000
Be   0.00000       -0.60000        0.00000
}

set {
basis              cc-pvdz
reference          uks
maxiter            500
geom_maxiter       500
DAMPING_PERCENTAGE 1
guess              SAP
}

optimize('b3lyp')
--------------------------------------------------------------------------

    Molecular point group: c2v
  Charge       = 0
  Multiplicity = 3
  Basis Set: CC-PVDZ
    Blend: CC-PVDZ
  Basis Set: (CC-PVDZ AUX)
    Blend: DEF2-UNIVERSAL-JKFIT
  @DF-UKS Final Energy:   -17.45091684327164
    Total Energy =                        -17.4509168432716422
 Dipole X            :          0.0000000            0.0000000            0.0000000
 Dipole Y            :          0.0000000            0.0000000            0.0000000
 Dipole Z            :          0.6055928            0.3509073            0.9565001
 Magnitude           :                                                    0.9565001
    Molecular point group: c2v
  Basis Set: CC-PVDZ
    Blend: CC-PVDZ
  Basis Set: (CC-PVDZ AUX)
    Blend: DEF2-UNIVERSAL-JKFIT
  Basis Set: CC-PVDZ
    Blend: CC-PVDZ
  Basis Set: (CC-PVDZ AUX)
    Blend: DEF2-UNIVERSAL-JKFIT
  @DF-UKS Final Energy:   -17.46905655205902
    Total Energy =                        -17.4690565520590155
  Basis Set: CC-PVDZ
    Blend: CC-PVDZ
  Basis Set: (CC-PVDZ AUX)
    Blend: DEF2-UNIVERSAL-JKFIT
  Basis Set: CC-PVDZ
    Blend: CC-PVDZ
  @DF-UKS Final Energy:   -17.47465082889800
    Total Energy =                        -17.4746508288980031
  @DF-UKS Final Energy:   -17.47884146959412
    Total Energy =                        -17.4788414695941228
  @DF-UKS Final Energy:   -17.48099635826146
    Total Energy =                        -17.4809963582614643
  @DF-UKS Final Energy:   -17.48301962720958
    Total Energy =                        -17.4830196272095790
  @DF-UKS Final Energy:   -17.48541653065428
    Total Energy =                        -17.4854165306542839
  @DF-UKS Final Energy:   -17.48566206538864
    Total Energy =                        -17.4856620653886417
  @DF-UKS Final Energy:   -17.48695216883945
    Total Energy =                        -17.4869521688394549
  @DF-UKS Final Energy:   -17.48701175219354
    Total Energy =                        -17.4870117521935420
  @DF-UKS Final Energy:   -17.48744367868321
    Total Energy =                        -17.4874436786832135
  @DF-UKS Final Energy:   -17.48754917376305
    Total Energy =                        -17.4875491737630462
  @DF-UKS Final Energy:   -17.48757664743544
    Total Energy =                        -17.4875766474354428
  Basis Set: (CC-PVDZ AUX)
    Blend: DEF2-UNIVERSAL-JKFIT
  Basis Set: CC-PVDZ
    Blend: CC-PVDZ
  Basis Set: (CC-PVDZ AUX)
    Blend: DEF2-UNIVERSAL-JKFIT
  @DF-UKS Final Energy:   -17.48757973727613
    Total Energy =                        -17.4875797372761319
  Basis Set: CC-PVDZ
    Blend: CC-PVDZ
  Basis Set: (CC-PVDZ AUX)
    Blend: DEF2-UNIVERSAL-JKFIT
  Charge       = 0
  Multiplicity = 3
  Basis Set: CC-PVDZ
    Blend: CC-PVDZ
  Basis Set: (CC-PVDZ AUX)
    Blend: DEF2-UNIVERSAL-JKFIT

    Orbital Energies [Eh]
    ---------------------

    Alpha Occupied:

       1A1    -4.114801     2A1    -0.666052     3A1    -0.268153
       1B1    -0.138088

    Alpha Virtual:

       1B2    -0.066090     4A1    -0.061903     2B1     0.165587
       5A1     0.180039     2B2     0.184918     6A1     0.200607
       1A2     0.442232     3B1     0.442253     7A1     0.447857
       8A1     0.458808     3B2     0.460663     9A1     1.189607
       4B2     2.175354     4B1     2.175637    10A1     2.189209

    Beta Occupied:

       1A1    -4.096200     2A1    -0.665583

    Beta Virtual:

       3A1    -0.115472     4A1    -0.003080     1B2    -0.002383
       1B1     0.026388     2B2     0.211421     5A1     0.216881
       6A1     0.231930     2B1     0.237655     7A1     0.525046
       3B2     0.529663     3B1     0.558306     1A2     0.560654
       8A1     0.566121     9A1     1.192069     4B2     2.175683
       4B1     2.176009    10A1     2.189749

    Final Occupation by Irrep:
             A1    A2    B1    B2
    DOCC [     2,    0,    0,    0 ]
    SOCC [     1,    0,    1,    0 ]
    NA   [     3,    0,    1,    0 ]
    NB   [     2,    0,    0,    0 ]

  @DF-UKS Final Energy:   -17.48758018800720

   => Energetics <=

    Nuclear Repulsion Energy =              1.3662060935098879
    One-Electron Energy =                 -25.4978302744369891
    Two-Electron Energy =                   9.7687019986681349
    DFT Exchange-Correlation Energy =      -3.1246580057482376
    Empirical Dispersion Energy =           0.0000000000000000
    VV10 Nonlocal Energy =                  0.0000000000000000
    Total Energy =                        -17.4875801880072039

  UHF NO Occupations:
  HONO-2 :    2 A1 1.9999977
  HONO-1 :    3 A1 1.0000000
  HONO-0 :    1 B1 1.0000000
  LUNO+0 :    4 A1 0.0000023
  LUNO+1 :    5 A1 0.0000006
  LUNO+2 :    2 B1 0.0000000
  LUNO+3 :    6 A1 0.0000000

Computation Completed

Properties will be evaluated at   0.000000,   0.000000,   0.000000 [a0]

Properties computed using the SCF density matrix

 Multipole Moments:

 ------------------------------------------------------------------------------------
     Multipole            Electronic (a.u.)      Nuclear  (a.u.)        Total (a.u.)
 ------------------------------------------------------------------------------------

 L = 1.  Multiply by 2.5417464519 to convert [e a0] to [Debye]
 Dipole X            :          0.0000000            0.0000000            0.0000000
 Dipole Y            :          0.0000000            0.0000000            0.0000000
 Dipole Z            :         -0.8558320            0.9061208            0.0502887
 Magnitude           :                                                    0.0502887

 ------------------------------------------------------------------------------------

*** tstop() called on Joses-MacBook-Pro-2.local at Wed Jul 16 18:19:26 2025
Module time:
	user time   =       0.61 seconds =       0.01 minutes
	system time =       3.31 seconds =       0.06 minutes
	total time  =          1 seconds =       0.02 minutes
Total time:
	user time   =      16.44 seconds =       0.27 minutes
	system time =      62.47 seconds =       1.04 minutes
	total time  =          9 seconds =       0.15 minutes

*** tstart() called on Joses-MacBook-Pro-2.local
*** at Wed Jul 16 18:19:26 2025

         ------------------------------------------------------------
                                   SCF GRAD
                          Rob Parrish, Justin Turney,
                       Andy Simmonett, and Alex Sokolov
         ------------------------------------------------------------

  ==> Geometry <==

    Molecular point group: c2v
    Full point group: C_inf_v

    Geometry (in Angstrom), charge = 0, multiplicity = 3:

       Center              X                  Y                   Z               Mass
    ------------   -----------------  -----------------  -----------------  -----------------
         HE           0.000000000000     0.000000000000     2.145694384451     4.002603254130
         BE           0.000000000000     0.000000000000    -0.952972577635     9.012183065000

  Nuclear repulsion =    1.366206093509888

  ==> Basis Set <==

  Basis Set: CC-PVDZ
    Blend: CC-PVDZ
    Number of shells: 9
    Number of basis functions: 19
    Number of Cartesian functions: 20
    Spherical Harmonics?: true
    Max angular momentum: 2

  ==> DFJKGrad: Density-Fitted SCF Gradients <==

    Gradient:                    1
    J tasked:                  Yes
    K tasked:                  Yes
    wK tasked:                  No
    OpenMP threads:              1
    Integrals threads:           1
    Memory [MiB]:              375
    Schwarz Cutoff:          1E-12
    Fitting Condition:       1E-10

   => Auxiliary Basis Set <=

  Basis Set: (CC-PVDZ AUX)
    Blend: DEF2-UNIVERSAL-JKFIT
    Number of shells: 26
    Number of basis functions: 74
    Number of Cartesian functions: 85
    Spherical Harmonics?: true
    Max angular momentum: 3

  ==> DFT Potential <==

   => LibXC <=

    Version 6.2.2
    S. Lehtola, C. Steigemann, M. J.T. Oliveira, and M. A.L. Marques.,  SoftwareX 7, 1â€“5 (2018) (10.1016/j.softx.2017.11.002)

   => Composite Functional: B3LYP <=

    B3LYP Hyb-GGA Exchange-Correlation Functional

    P. J. Stephens, F. J. Devlin, C. F. Chabalowski, and M. J. Frisch.,  J. Phys. Chem. 98, 11623 (1994) (10.1021/j100096a001)

    Deriv               =              1
    GGA                 =           TRUE
    Meta                =          FALSE

    Exchange Hybrid     =           TRUE
    MP2 Hybrid          =          FALSE

   => Exchange Functionals <=

    0.0800   Slater exchange
    0.7200         Becke 88

   => Exact (HF) Exchange <=

    0.2000               HF

   => Correlation Functionals <=

    0.1900   Vosko, Wilk & Nusair (VWN5_RPA)
    0.8100   Lee, Yang & Parr

   => LibXC Density Thresholds  <==

    XC_HYB_GGA_XC_B3LYP:  1.00E-15

   => Molecular Quadrature <=

    Radial Scheme          =       TREUTLER
    Pruning Scheme         =           NONE
    Nuclear Scheme         =       TREUTLER

    Blocking Scheme        =         OCTREE
    BS radius alpha        =              1
    Pruning alpha          =              1
    Radial Points          =             75
    Spherical Points       =            302
    Total Points           =          43647
    Total Blocks           =            395
    Max Points             =            252
    Max Functions          =             19
    Weights Tolerance      =       1.00E-15

  -Total Gradient:
     Atom            X                  Y                   Z
    ------   -----------------  -----------------  -----------------
       1       -0.000000000000     0.000000000000    -0.000010624343
       2        0.000000000000     0.000000000000     0.000000202164

*** tstop() called on Joses-MacBook-Pro-2.local at Wed Jul 16 18:19:26 2025
Module time:
	user time   =       0.31 seconds =       0.01 minutes
	system time =       0.72 seconds =       0.01 minutes
	total time  =          0 seconds =       0.00 minutes
Total time:
	user time   =      16.75 seconds =       0.28 minutes
	system time =      63.19 seconds =       1.05 minutes
	total time  =          9 seconds =       0.15 minutes

    			-----------------------------------------

    			 OPTKING 3.0: for geometry optimizations

    			     By R.A. King, Bethel University

    			        with contributions from

    			    A.V. Copan, J. Cayton, A. Heide

    			-----------------------------------------

	                            ===> Fragment 1 <==

	 Z (Atomic Numbers)          Masses                          Geom
	       2.000000             4.002603          0.00000000  0.00000000  4.05477474
	       4.000000             9.012183          0.00000000  0.00000000 -1.80085718

	 - Coordinate -           - BOHR/RAD -       - ANG/DEG -
	 R(1,2)           =         5.855632           3.098667

	        --- Internal Coordinate Step in ANG or DEG, aJ/ANG or AJ/DEG ---
	-------------------------------------------------------------------------------
	           Coordinate      Previous         Force          Change          New
	           ----------      --------        ------          ------        ------
	               R(1,2)       3.09867        0.00004        0.00385       3.10252
	-------------------------------------------------------------------------------

	                                 ==> Convergence Check <==

	Measures of convergence in internal coordinates in au.

	Criteria marked as inactive (o), active & met (*), and active & unmet ( ).

	----------------------------------------------------------------------------------------------
	   Step    Total Energy     Delta E     Max Force     RMS Force      Max Disp      RMS Disp
	----------------------------------------------------------------------------------------------
	  Convergence Criteria     1.00e-06 *    3.00e-04 *             o    1.20e-03 *             o
	----------------------------------------------------------------------------------------------
	    15     -17.48758019   -4.51e-07 *    5.41e-06 *    5.41e-06 o    7.28e-03      7.28e-03 o  ~
	----------------------------------------------------------------------------------------------

Next Geometry in Ang
	Fragment 1 (Ang)

	   He   0.0000000000   0.0000000000   2.1476212947
	   Be   0.0000000000   0.0000000000  -0.9548994879

    Final optimized geometry and variables:
    Molecular point group: c2v
    Full point group: C_inf_v

    Geometry (in Angstrom), charge = 0, multiplicity = 3:

    HE           0.000000000000     0.000000000000     2.145694384451
    BE           0.000000000000     0.000000000000    -0.952972577635

    Psi4 stopped on: Wednesday, 16 July 2025 06:19PM
    Psi4 wall time for execution: 0:00:08.81

*** Psi4 exiting successfully. Buy a developer a beer!
