                               Psi4 1.9.1 release

  ==> Input File <==

--------------------------------------------------------------------------
molecule {
0 3
He   0.00000        0.60000        0.00000
S   0.00000       -0.60000        0.00000
}

set {
basis              cc-pvdz
reference          uks
maxiter            500
geom_maxiter       500
DAMPING_PERCENTAGE 1
guess              SAP
}

optimize('b3lyp')
--------------------------------------------------------------------------

    Molecular point group: c2v
  Charge       = 0
  Multiplicity = 3
  Basis Set: CC-PVDZ
    Blend: CC-PVDZ
  Basis Set: (CC-PVDZ AUX)
    Blend: CC-PVDZ-JKFIT + DEF2-UNIVERSAL-JKFIT
  @DF-UKS Final Energy:  -400.74380257316591
    Total Energy =                       -400.7438025731659081
 Dipole X            :          0.0000000            0.0000000            0.0000000
 Dipole Y            :          0.0000000            0.0000000            0.0000000
 Dipole Z            :          0.9916946           -0.0061465            0.9855481
 Magnitude           :                                                    0.9855481
    Molecular point group: c2v
  Basis Set: CC-PVDZ
    Blend: CC-PVDZ
  Basis Set: (CC-PVDZ AUX)
    Blend: CC-PVDZ-JKFIT + DEF2-UNIVERSAL-JKFIT
  Basis Set: CC-PVDZ
    Blend: CC-PVDZ
  Basis Set: (CC-PVDZ AUX)
    Blend: CC-PVDZ-JKFIT + DEF2-UNIVERSAL-JKFIT
  @DF-UKS Final Energy:  -400.90637821918932
    Total Energy =                       -400.9063782191892642
  Basis Set: CC-PVDZ
    Blend: CC-PVDZ
  Basis Set: (CC-PVDZ AUX)
    Blend: CC-PVDZ-JKFIT + DEF2-UNIVERSAL-JKFIT
  Basis Set: CC-PVDZ
    Blend: CC-PVDZ
  @DF-UKS Final Energy:  -400.96382642680283
    Total Energy =                       -400.9638264268028820
  @DF-UKS Final Energy:  -400.99776339572497
    Total Energy =                       -400.9977633957249736
  @DF-UKS Final Energy:  -401.01480994122772
    Total Energy =                       -401.0148099412277247
  @DF-UKS Final Energy:  -401.02363036879717
    Total Energy =                       -401.0236303687971713
  @DF-UKS Final Energy:  -401.02805380200846
    Total Energy =                       -401.0280538020084009
  @DF-UKS Final Energy:  -401.03022576490230
    Total Energy =                       -401.0302257649022977
  @DF-UKS Final Energy:  -401.03127287365163
    Total Energy =                       -401.0312728736516874
  @DF-UKS Final Energy:  -401.03176879133554
    Total Energy =                       -401.0317687913355371
  @DF-UKS Final Energy:  -401.03199866240237
    Total Energy =                       -401.0319986624023159
  @DF-UKS Final Energy:  -401.03210200611210
    Total Energy =                       -401.0321020061120976
  @DF-UKS Final Energy:  -401.03214647576061
    Total Energy =                       -401.0321464757605554
  @DF-UKS Final Energy:  -401.03216063988481
    Total Energy =                       -401.0321606398848076
  @DF-UKS Final Energy:  -401.03216878303357
    Total Energy =                       -401.0321687830335122
  @DF-UKS Final Energy:  -401.03217155932577
    Total Energy =                       -401.0321715593257750
  Basis Set: (CC-PVDZ AUX)
    Blend: CC-PVDZ-JKFIT + DEF2-UNIVERSAL-JKFIT
  Basis Set: CC-PVDZ
    Blend: CC-PVDZ
  Basis Set: (CC-PVDZ AUX)
    Blend: CC-PVDZ-JKFIT + DEF2-UNIVERSAL-JKFIT
  @DF-UKS Final Energy:  -401.03217302261493
    Total Energy =                       -401.0321730226149270
  Basis Set: CC-PVDZ
    Blend: CC-PVDZ
  Basis Set: (CC-PVDZ AUX)
    Blend: CC-PVDZ-JKFIT + DEF2-UNIVERSAL-JKFIT
  Charge       = 0
  Multiplicity = 3
  Basis Set: CC-PVDZ
    Blend: CC-PVDZ
  Basis Set: (CC-PVDZ AUX)
    Blend: CC-PVDZ-JKFIT + DEF2-UNIVERSAL-JKFIT

    Orbital Energies [Eh]
    ---------------------

    Alpha Occupied:

       1A1   -88.930230     2A1    -7.988554     1B2    -5.957787
       3A1    -5.957785     1B1    -5.938008     4A1    -0.719986
       5A1    -0.653629     2B2    -0.328830     6A1    -0.328730
       2B1    -0.280276

    Alpha Virtual:

       7A1     0.444652     8A1     0.453308     3B2     0.454516
       3B1     0.485479     9A1     0.522218     4B2     0.522254
       1A2     0.560892     4B1     0.560897    10A1     0.575112
      11A1     1.124102     5B2     2.185623     5B1     2.185707
      12A1     2.186296

    Beta Occupied:

       1A1   -88.919442     2A1    -7.977545     1B2    -5.936423
       3A1    -5.936413     1B1    -5.931502     4A1    -0.653655
       5A1    -0.626993     2B1    -0.253466

    Beta Virtual:

       2B2    -0.171331     6A1    -0.171197     7A1     0.480156
       3B1     0.498438     8A1     0.503098     3B2     0.504616
       1A2     0.618101     4B1     0.618111     9A1     0.621230
      10A1     0.630203     4B2     0.630251    11A1     1.124222
       5B2     2.185685     5B1     2.185769    12A1     2.186382

    Final Occupation by Irrep:
             A1    A2    B1    B2
    DOCC [     5,    0,    2,    1 ]
    SOCC [     1,    0,    0,    1 ]
    NA   [     6,    0,    2,    2 ]
    NB   [     5,    0,    2,    1 ]

  @DF-UKS Final Energy:  -401.03217355380667

   => Energetics <=

    Nuclear Repulsion Energy =              4.7511153108776210
    One-Electron Energy =                -562.9278889474835523
    Two-Electron Energy =                 178.6656786706710704
    DFT Exchange-Correlation Energy =     -21.5210785878717701
    Empirical Dispersion Energy =           0.0000000000000000
    VV10 Nonlocal Energy =                  0.0000000000000000
    Total Energy =                       -401.0321735538066719

  UHF NO Occupations:
  HONO-2 :    5 A1 1.9989819
  HONO-1 :    2 B2 1.0000000
  HONO-0 :    6 A1 1.0000000
  LUNO+0 :    7 A1 0.0010181
  LUNO+1 :    3 B1 0.0000980
  LUNO+2 :    8 A1 0.0000001
  LUNO+3 :    9 A1 0.0000000

Computation Completed

Properties will be evaluated at   0.000000,   0.000000,   0.000000 [a0]

Properties computed using the SCF density matrix

 Multipole Moments:

 ------------------------------------------------------------------------------------
     Multipole            Electronic (a.u.)      Nuclear  (a.u.)        Total (a.u.)
 ------------------------------------------------------------------------------------

 L = 1.  Multiply by 2.5417464519 to convert [e a0] to [Debye]
 Dipole X            :          0.0000000            0.0000000            0.0000000
 Dipole Y            :          0.0000000            0.0000000            0.0000000
 Dipole Z            :          0.0216581           -0.0182560            0.0034021
 Magnitude           :                                                    0.0034021

 ------------------------------------------------------------------------------------

*** tstop() called on Joses-MacBook-Pro-2.local at Wed Jul 16 18:25:50 2025
Module time:
	user time   =       2.28 seconds =       0.04 minutes
	system time =       2.33 seconds =       0.04 minutes
	total time  =          0 seconds =       0.00 minutes
Total time:
	user time   =      66.39 seconds =       1.11 minutes
	system time =      73.60 seconds =       1.23 minutes
	total time  =         13 seconds =       0.22 minutes

*** tstart() called on Joses-MacBook-Pro-2.local
*** at Wed Jul 16 18:25:50 2025

         ------------------------------------------------------------
                                   SCF GRAD
                          Rob Parrish, Justin Turney,
                       Andy Simmonett, and Alex Sokolov
         ------------------------------------------------------------

  ==> Geometry <==

    Molecular point group: c2v
    Full point group: C_inf_v

    Geometry (in Angstrom), charge = 0, multiplicity = 3:

       Center              X                  Y                   Z               Mass
    ------------   -----------------  -----------------  -----------------  -----------------
         HE           0.000000000000     0.000000000000     3.167593469612     4.002603254130
         S            0.000000000000     0.000000000000    -0.396552974628    31.972071174400

  Nuclear repulsion =    4.751115310877621

  ==> Basis Set <==

  Basis Set: CC-PVDZ
    Blend: CC-PVDZ
    Number of shells: 11
    Number of basis functions: 23
    Number of Cartesian functions: 24
    Spherical Harmonics?: true
    Max angular momentum: 2

  ==> DFJKGrad: Density-Fitted SCF Gradients <==

    Gradient:                    1
    J tasked:                  Yes
    K tasked:                  Yes
    wK tasked:                  No
    OpenMP threads:              1
    Integrals threads:           1
    Memory [MiB]:              375
    Schwarz Cutoff:          1E-12
    Fitting Condition:       1E-10

   => Auxiliary Basis Set <=

  Basis Set: (CC-PVDZ AUX)
    Blend: CC-PVDZ-JKFIT + DEF2-UNIVERSAL-JKFIT
    Number of shells: 45
    Number of basis functions: 135
    Number of Cartesian functions: 155
    Spherical Harmonics?: true
    Max angular momentum: 3

  ==> DFT Potential <==

   => LibXC <=

    Version 6.2.2
    S. Lehtola, C. Steigemann, M. J.T. Oliveira, and M. A.L. Marques.,  SoftwareX 7, 1â€“5 (2018) (10.1016/j.softx.2017.11.002)

   => Composite Functional: B3LYP <=

    B3LYP Hyb-GGA Exchange-Correlation Functional

    P. J. Stephens, F. J. Devlin, C. F. Chabalowski, and M. J. Frisch.,  J. Phys. Chem. 98, 11623 (1994) (10.1021/j100096a001)

    Deriv               =              1
    GGA                 =           TRUE
    Meta                =          FALSE

    Exchange Hybrid     =           TRUE
    MP2 Hybrid          =          FALSE

   => Exchange Functionals <=

    0.0800   Slater exchange
    0.7200         Becke 88

   => Exact (HF) Exchange <=

    0.2000               HF

   => Correlation Functionals <=

    0.1900   Vosko, Wilk & Nusair (VWN5_RPA)
    0.8100   Lee, Yang & Parr

   => LibXC Density Thresholds  <==

    XC_HYB_GGA_XC_B3LYP:  1.00E-15

   => Molecular Quadrature <=

    Radial Scheme          =       TREUTLER
    Pruning Scheme         =           NONE
    Nuclear Scheme         =       TREUTLER

    Blocking Scheme        =         OCTREE
    BS radius alpha        =              1
    Pruning alpha          =              1
    Radial Points          =             75
    Spherical Points       =            302
    Total Points           =          42544
    Total Blocks           =            388
    Max Points             =            252
    Max Functions          =             23
    Weights Tolerance      =       1.00E-15

  -Total Gradient:
     Atom            X                  Y                   Z
    ------   -----------------  -----------------  -----------------
       1        0.000000000000     0.000000000000    -0.000004959666
       2        0.000000000000     0.000000000000     0.000009490727

*** tstop() called on Joses-MacBook-Pro-2.local at Wed Jul 16 18:25:50 2025
Module time:
	user time   =       0.69 seconds =       0.01 minutes
	system time =       1.02 seconds =       0.02 minutes
	total time  =          0 seconds =       0.00 minutes
Total time:
	user time   =      67.08 seconds =       1.12 minutes
	system time =      74.62 seconds =       1.24 minutes
	total time  =         13 seconds =       0.22 minutes

    			-----------------------------------------

    			 OPTKING 3.0: for geometry optimizations

    			     By R.A. King, Bethel University

    			        with contributions from

    			    A.V. Copan, J. Cayton, A. Heide

    			-----------------------------------------

	                            ===> Fragment 1 <==

	 Z (Atomic Numbers)          Masses                          Geom
	       2.000000             4.002603          0.00000000  0.00000000  5.98588413
	      16.000000            31.972071          0.00000000  0.00000000 -0.74937652

	 - Coordinate -           - BOHR/RAD -       - ANG/DEG -
	 R(1,2)           =         6.735261           3.564146

	        --- Internal Coordinate Step in ANG or DEG, aJ/ANG or AJ/DEG ---
	-------------------------------------------------------------------------------
	           Coordinate      Previous         Force          Change          New
	           ----------      --------        ------          ------        ------
	               R(1,2)       3.56415        0.00006        0.01830       3.58245
	-------------------------------------------------------------------------------

	                                 ==> Convergence Check <==

	Measures of convergence in internal coordinates in au.

	Criteria marked as inactive (o), active & met (*), and active & unmet ( ).

	----------------------------------------------------------------------------------------------
	   Step    Total Energy     Delta E     Max Force     RMS Force      Max Disp      RMS Disp
	----------------------------------------------------------------------------------------------
	  Convergence Criteria     1.00e-06 *    3.00e-04 *             o    1.20e-03 *             o
	----------------------------------------------------------------------------------------------
	    18    -401.03217355   -5.31e-07 *    7.23e-06 *    7.23e-06 o    3.46e-02      3.46e-02 o  ~
	----------------------------------------------------------------------------------------------

Next Geometry in Ang
	Fragment 1 (Ang)

	   He   0.0000000000   0.0000000000   3.1767446923
	    S   0.0000000000   0.0000000000  -0.4057041973

    Final optimized geometry and variables:
    Molecular point group: c2v
    Full point group: C_inf_v

    Geometry (in Angstrom), charge = 0, multiplicity = 3:

    HE           0.000000000000     0.000000000000     3.167593469612
    S            0.000000000000     0.000000000000    -0.396552974628

    Psi4 stopped on: Wednesday, 16 July 2025 06:25PM
    Psi4 wall time for execution: 0:00:13.93

*** Psi4 exiting successfully. Buy a developer a beer!
