                               Psi4 1.9.1 release

  ==> Input File <==

--------------------------------------------------------------------------
molecule {
0 3
H   0.00000        0.60000        0.00000
Na   0.00000       -0.60000        0.00000
}

set {
basis              cc-pvdz
reference          uks
maxiter            500
geom_maxiter       500
DAMPING_PERCENTAGE 1
guess              SAP
}

optimize('b3lyp')
--------------------------------------------------------------------------

    Molecular point group: c2v
  Charge       = 0
  Multiplicity = 3
  Basis Set: CC-PVDZ
    Blend: CC-PVDZ
  Basis Set: (CC-PVDZ AUX)
    Blend: CC-PVDZ-JKFIT + DEF2-UNIVERSAL-JKFIT
  @DF-UKS Final Energy:  -162.64839640768284
    Total Energy =                       -162.6483964076828386
 Dipole X            :          0.0000000            0.0000000            0.0000000
 Dipole Y            :          0.0000000            0.0000000            0.0000000
 Dipole Z            :          0.4262172            1.1248488            1.5510661
 Magnitude           :                                                    1.5510661
    Molecular point group: c2v
  Basis Set: CC-PVDZ
    Blend: CC-PVDZ
  Basis Set: (CC-PVDZ AUX)
    Blend: CC-PVDZ-JKFIT + DEF2-UNIVERSAL-JKFIT
  Basis Set: CC-PVDZ
    Blend: CC-PVDZ
  Basis Set: (CC-PVDZ AUX)
    Blend: CC-PVDZ-JKFIT + DEF2-UNIVERSAL-JKFIT
  @DF-UKS Final Energy:  -162.71259928808445
    Total Energy =                       -162.7125992880844478
  Basis Set: CC-PVDZ
    Blend: CC-PVDZ
  Basis Set: (CC-PVDZ AUX)
    Blend: CC-PVDZ-JKFIT + DEF2-UNIVERSAL-JKFIT
  Basis Set: CC-PVDZ
    Blend: CC-PVDZ
  @DF-UKS Final Energy:  -162.74064100952560
    Total Energy =                       -162.7406410095256035
  @DF-UKS Final Energy:  -162.75825049548598
    Total Energy =                       -162.7582504954860099
  @DF-UKS Final Energy:  -162.76953365808717
    Total Energy =                       -162.7695336580871981
  @DF-UKS Final Energy:  -162.77695936696514
    Total Energy =                       -162.7769593669651726
  @DF-UKS Final Energy:  -162.78197301343994
    Total Energy =                       -162.7819730134399379
  @DF-UKS Final Energy:  -162.78265928201938
    Total Energy =                       -162.7826592820194094
  @DF-UKS Final Energy:  -162.78631008976964
    Total Energy =                       -162.7863100897696143
  @DF-UKS Final Energy:  -162.78659127796155
    Total Energy =                       -162.7865912779615485
  @DF-UKS Final Energy:  -162.78880732889064
    Total Energy =                       -162.7888073288906696
  @DF-UKS Final Energy:  -162.78892181181178
    Total Energy =                       -162.7889218118117753
  @DF-UKS Final Energy:  -162.79020737852974
    Total Energy =                       -162.7902073785297716
  @DF-UKS Final Energy:  -162.79025222782906
    Total Energy =                       -162.7902522278290292
  @DF-UKS Final Energy:  -162.79098699005218
    Total Energy =                       -162.7909869900521755
  @DF-UKS Final Energy:  -162.79100404263221
    Total Energy =                       -162.7910040426322098
  @DF-UKS Final Energy:  -162.79142408797938
    Total Energy =                       -162.7914240879794079
  @DF-UKS Final Energy:  -162.79143043557818
    Total Energy =                       -162.7914304355781496
  @DF-UKS Final Energy:  -162.79143666204550
    Total Energy =                       -162.7914366620454985
  @DF-UKS Final Energy:  -162.79167244044220
    Total Energy =                       -162.7916724404421984
  @DF-UKS Final Energy:  -162.79167469969570
    Total Energy =                       -162.7916746996957045
  @DF-UKS Final Energy:  -162.79167692892005
    Total Energy =                       -162.7916769289200545
  @DF-UKS Final Energy:  -162.79167912897123
    Total Energy =                       -162.7916791289711966
  Basis Set: (CC-PVDZ AUX)
    Blend: CC-PVDZ-JKFIT + DEF2-UNIVERSAL-JKFIT
  Basis Set: CC-PVDZ
    Blend: CC-PVDZ
  Basis Set: (CC-PVDZ AUX)
    Blend: CC-PVDZ-JKFIT + DEF2-UNIVERSAL-JKFIT
  @DF-UKS Final Energy:  -162.79180940391780
    Total Energy =                       -162.7918094039177959
  Basis Set: CC-PVDZ
    Blend: CC-PVDZ
  Basis Set: (CC-PVDZ AUX)
    Blend: CC-PVDZ-JKFIT + DEF2-UNIVERSAL-JKFIT
  Charge       = 0
  Multiplicity = 3
  Basis Set: CC-PVDZ
    Blend: CC-PVDZ
  Basis Set: (CC-PVDZ AUX)
    Blend: CC-PVDZ-JKFIT + DEF2-UNIVERSAL-JKFIT

    Orbital Energies [Eh]
    ---------------------

    Alpha Occupied:

       1A1   -38.479541     2A1    -2.224250     3A1    -1.155094
       1B2    -1.155080     1B1    -1.155080     4A1    -0.320620
       5A1    -0.128195

    Alpha Virtual:

       2B1    -0.020821     2B2    -0.020821     6A1    -0.018506
       7A1     0.054584     3B1     0.076111     3B2     0.076111
       8A1     0.080069     9A1     0.158966     1A2     0.159199
      10A1     0.159199     4B2     0.159346     4B1     0.159346
      11A1     0.445175     5B2     1.209037     5B1     1.209037
      12A1     1.211606

    Beta Occupied:

       1A1   -38.478076     2A1    -2.221307     3A1    -1.153178
       1B2    -1.153163     1B1    -1.153163

    Beta Virtual:

       4A1    -0.065575     5A1    -0.032284     2B1     0.003127
       2B2     0.003127     6A1     0.014829     7A1     0.072949
       3B1     0.094185     3B2     0.094185     8A1     0.100848
       4B2     0.187920     4B1     0.187920     9A1     0.187992
       1A2     0.187992    10A1     0.188394    11A1     0.661870
       5B1     1.459147     5B2     1.459147    12A1     1.459718

    Final Occupation by Irrep:
             A1    A2    B1    B2
    DOCC [     3,    0,    1,    1 ]
    SOCC [     2,    0,    0,    0 ]
    NA   [     5,    0,    1,    1 ]
    NB   [     3,    0,    1,    1 ]

  @DF-UKS Final Energy:  -162.79181017061626

   => Energetics <=

    Nuclear Repulsion Energy =              1.1055473602116010
    One-Electron Energy =                -230.5144979327259875
    Two-Electron Energy =                  78.5057093291216717
    DFT Exchange-Correlation Energy =     -11.8885689272235311
    Empirical Dispersion Energy =           0.0000000000000000
    VV10 Nonlocal Energy =                  0.0000000000000000
    Total Energy =                       -162.7918101706162304

  UHF NO Occupations:
  HONO-2 :    1 B2 1.9999989
  HONO-1 :    4 A1 1.0000000
  HONO-0 :    5 A1 1.0000000
  LUNO+0 :    2 B2 0.0000011
  LUNO+1 :    2 B1 0.0000011
  LUNO+2 :    6 A1 0.0000011
  LUNO+3 :    7 A1 0.0000000

Computation Completed

Properties will be evaluated at   0.000000,   0.000000,   0.000000 [a0]

Properties computed using the SCF density matrix

 Multipole Moments:

 ------------------------------------------------------------------------------------
     Multipole            Electronic (a.u.)      Nuclear  (a.u.)        Total (a.u.)
 ------------------------------------------------------------------------------------

 L = 1.  Multiply by 2.5417464519 to convert [e a0] to [Debye]
 Dipole X            :          0.0000000            0.0000000            0.0000000
 Dipole Y            :          0.0000000            0.0000000            0.0000000
 Dipole Z            :         -4.8899609            4.9354798            0.0455189
 Magnitude           :                                                    0.0455189

 ------------------------------------------------------------------------------------

*** tstop() called on Joses-MacBook-Pro-2.local at Wed Jul 16 18:14:49 2025
Module time:
	user time   =       0.81 seconds =       0.01 minutes
	system time =       2.32 seconds =       0.04 minutes
	total time  =          0 seconds =       0.00 minutes
Total time:
	user time   =      67.88 seconds =       1.13 minutes
	system time =     105.52 seconds =       1.76 minutes
	total time  =         16 seconds =       0.27 minutes

*** tstart() called on Joses-MacBook-Pro-2.local
*** at Wed Jul 16 18:14:49 2025

         ------------------------------------------------------------
                                   SCF GRAD
                          Rob Parrish, Justin Turney,
                       Andy Simmonett, and Alex Sokolov
         ------------------------------------------------------------

  ==> Geometry <==

    Molecular point group: c2v
    Full point group: C_inf_v

    Geometry (in Angstrom), charge = 0, multiplicity = 3:

       Center              X                  Y                   Z               Mass
    ------------   -----------------  -----------------  -----------------  -----------------
         H            0.000000000000     0.000000000000     5.044096326610     1.007825032230
         NA           0.000000000000     0.000000000000    -0.221122990865    22.989769282000

  Nuclear repulsion =    1.105547360211601

  ==> Basis Set <==

  Basis Set: CC-PVDZ
    Blend: CC-PVDZ
    Number of shells: 11
    Number of basis functions: 23
    Number of Cartesian functions: 24
    Spherical Harmonics?: true
    Max angular momentum: 2

  ==> DFJKGrad: Density-Fitted SCF Gradients <==

    Gradient:                    1
    J tasked:                  Yes
    K tasked:                  Yes
    wK tasked:                  No
    OpenMP threads:              1
    Integrals threads:           1
    Memory [MiB]:              375
    Schwarz Cutoff:          1E-12
    Fitting Condition:       1E-10

   => Auxiliary Basis Set <=

  Basis Set: (CC-PVDZ AUX)
    Blend: CC-PVDZ-JKFIT + DEF2-UNIVERSAL-JKFIT
    Number of shells: 43
    Number of basis functions: 135
    Number of Cartesian functions: 162
    Spherical Harmonics?: true
    Max angular momentum: 4

  ==> DFT Potential <==

   => LibXC <=

    Version 6.2.2
    S. Lehtola, C. Steigemann, M. J.T. Oliveira, and M. A.L. Marques.,  SoftwareX 7, 1â€“5 (2018) (10.1016/j.softx.2017.11.002)

   => Composite Functional: B3LYP <=

    B3LYP Hyb-GGA Exchange-Correlation Functional

    P. J. Stephens, F. J. Devlin, C. F. Chabalowski, and M. J. Frisch.,  J. Phys. Chem. 98, 11623 (1994) (10.1021/j100096a001)

    Deriv               =              1
    GGA                 =           TRUE
    Meta                =          FALSE

    Exchange Hybrid     =           TRUE
    MP2 Hybrid          =          FALSE

   => Exchange Functionals <=

    0.0800   Slater exchange
    0.7200         Becke 88

   => Exact (HF) Exchange <=

    0.2000               HF

   => Correlation Functionals <=

    0.1900   Vosko, Wilk & Nusair (VWN5_RPA)
    0.8100   Lee, Yang & Parr

   => LibXC Density Thresholds  <==

    XC_HYB_GGA_XC_B3LYP:  1.00E-15

   => Molecular Quadrature <=

    Radial Scheme          =       TREUTLER
    Pruning Scheme         =           NONE
    Nuclear Scheme         =       TREUTLER

    Blocking Scheme        =         OCTREE
    BS radius alpha        =              1
    Pruning alpha          =              1
    Radial Points          =             75
    Spherical Points       =            302
    Total Points           =          43928
    Total Blocks           =            437
    Max Points             =            255
    Max Functions          =             23
    Weights Tolerance      =       1.00E-15

  -Total Gradient:
     Atom            X                  Y                   Z
    ------   -----------------  -----------------  -----------------
       1       -0.000000000000    -0.000000000000    -0.000147512071
       2        0.000000000000     0.000000000000     0.000143007606

*** tstop() called on Joses-MacBook-Pro-2.local at Wed Jul 16 18:14:49 2025
Module time:
	user time   =       0.65 seconds =       0.01 minutes
	system time =       1.25 seconds =       0.02 minutes
	total time  =          0 seconds =       0.00 minutes
Total time:
	user time   =      68.53 seconds =       1.14 minutes
	system time =     106.77 seconds =       1.78 minutes
	total time  =         16 seconds =       0.27 minutes

    			-----------------------------------------

    			 OPTKING 3.0: for geometry optimizations

    			     By R.A. King, Bethel University

    			        with contributions from

    			    A.V. Copan, J. Cayton, A. Heide

    			-----------------------------------------

	                            ===> Fragment 1 <==

	 Z (Atomic Numbers)          Masses                          Geom
	       1.000000             1.007825          0.00000000  0.00000000  9.53196061
	      11.000000            22.989769          0.00000000  0.00000000 -0.41786189

	 - Coordinate -           - BOHR/RAD -       - ANG/DEG -
	 R(1,2)           =         9.949823           5.265219

	        --- Internal Coordinate Step in ANG or DEG, aJ/ANG or AJ/DEG ---
	-------------------------------------------------------------------------------
	           Coordinate      Previous         Force          Change          New
	           ----------      --------        ------          ------        ------
	               R(1,2)       5.26522        0.00120        0.00277       5.26799
	-------------------------------------------------------------------------------

	                                 ==> Convergence Check <==

	Measures of convergence in internal coordinates in au.

	Criteria marked as inactive (o), active & met (*), and active & unmet ( ).

	----------------------------------------------------------------------------------------------
	   Step    Total Energy     Delta E     Max Force     RMS Force      Max Disp      RMS Disp
	----------------------------------------------------------------------------------------------
	  Convergence Criteria     1.00e-06 *    3.00e-04 *             o    1.20e-03 *             o
	----------------------------------------------------------------------------------------------
	    25    -162.79181017   -7.67e-07 *    1.45e-04 *    1.45e-04 o    5.23e-03      5.23e-03 o  ~
	----------------------------------------------------------------------------------------------

Next Geometry in Ang
	Fragment 1 (Ang)

	    H   0.0000000000   0.0000000000   5.0454793639
	   Na   0.0000000000   0.0000000000  -0.2225060281

    Final optimized geometry and variables:
    Molecular point group: c2v
    Full point group: C_inf_v

    Geometry (in Angstrom), charge = 0, multiplicity = 3:

    H            0.000000000000     0.000000000000     5.044096326610
    NA           0.000000000000     0.000000000000    -0.221122990865

    Psi4 stopped on: Wednesday, 16 July 2025 06:14PM
    Psi4 wall time for execution: 0:00:17.20

*** Psi4 exiting successfully. Buy a developer a beer!
