                               Psi4 1.9.1 release

  ==> Input File <==

--------------------------------------------------------------------------
molecule {
0 3
H   0.00000        0.60000        0.00000
F   0.00000       -0.60000        0.00000
}

set {
basis              cc-pvdz
reference          uks
maxiter            500
geom_maxiter       500
DAMPING_PERCENTAGE 1
guess              SAP
}

optimize('b3lyp')
--------------------------------------------------------------------------

    Molecular point group: c2v
  Charge       = 0
  Multiplicity = 3
  Basis Set: CC-PVDZ
    Blend: CC-PVDZ
  Basis Set: (CC-PVDZ AUX)
    Blend: CC-PVDZ-JKFIT
  @DF-UKS Final Energy:  -100.15932000679325
    Total Energy =                       -100.1593200067932514
 Dipole X            :          0.0000000            0.0000000            0.0000000
 Dipole Y            :          0.0000000            0.0000000            0.0000000
 Dipole Z            :         -1.7255472            1.1253191           -0.6002280
 Magnitude           :                                                    0.6002280
    Molecular point group: c2v
  Basis Set: CC-PVDZ
    Blend: CC-PVDZ
  Basis Set: (CC-PVDZ AUX)
    Blend: CC-PVDZ-JKFIT
  Basis Set: CC-PVDZ
    Blend: CC-PVDZ
  Basis Set: (CC-PVDZ AUX)
    Blend: CC-PVDZ-JKFIT
  @DF-UKS Final Energy:  -100.19460225323482
    Total Energy =                       -100.1946022532348195
  Basis Set: CC-PVDZ
    Blend: CC-PVDZ
  Basis Set: (CC-PVDZ AUX)
    Blend: CC-PVDZ-JKFIT
  Basis Set: CC-PVDZ
    Blend: CC-PVDZ
  @DF-UKS Final Energy:  -100.21165013072924
    Total Energy =                       -100.2116501307292395
  @DF-UKS Final Energy:  -100.22010888327611
    Total Energy =                       -100.2201088832761258
  @DF-UKS Final Energy:  -100.22457478459172
    Total Energy =                       -100.2245747845917236
  @DF-UKS Final Energy:  -100.22686396921546
    Total Energy =                       -100.2268639692154579
  @DF-UKS Final Energy:  -100.22787409909182
    Total Energy =                       -100.2278740990918351
  @DF-UKS Final Energy:  -100.22824682210280
    Total Energy =                       -100.2282468221028040
  @DF-UKS Final Energy:  -100.22837177309879
    Total Energy =                       -100.2283717730987860
  @DF-UKS Final Energy:  -100.22840083014012
    Total Energy =                       -100.2284008301401173
  @DF-UKS Final Energy:  -100.22841139857691
    Total Energy =                       -100.2284113985769238
  Basis Set: (CC-PVDZ AUX)
    Blend: CC-PVDZ-JKFIT
  Basis Set: CC-PVDZ
    Blend: CC-PVDZ
  Basis Set: (CC-PVDZ AUX)
    Blend: CC-PVDZ-JKFIT
  @DF-UKS Final Energy:  -100.22841332593268
    Total Energy =                       -100.2284133259326779
  Basis Set: CC-PVDZ
    Blend: CC-PVDZ
  Basis Set: (CC-PVDZ AUX)
    Blend: CC-PVDZ-JKFIT
  Charge       = 0
  Multiplicity = 3
  Basis Set: CC-PVDZ
    Blend: CC-PVDZ
  Basis Set: (CC-PVDZ AUX)
    Blend: CC-PVDZ-JKFIT

    Orbital Energies [Eh]
    ---------------------

    Alpha Occupied:

       1A1   -24.785025     2A1    -1.214559     1B1    -0.541538
       3A1    -0.454454     1B2    -0.452192     4A1    -0.313337

    Alpha Virtual:

       5A1     0.424840     2B1     1.033439     6A1     1.087521
       2B2     1.088706     3B1     1.214221     3B2     1.214497
       7A1     1.239765     8A1     1.442552     9A1     3.436300
       4B1     3.457727     1A2     3.458223     4B2     3.527212
      10A1     3.527877

    Beta Occupied:

       1A1   -24.753991     2A1    -1.122995     3A1    -0.421099
       1B2    -0.420562

    Beta Virtual:

       1B1    -0.246964     4A1    -0.059544     5A1     0.606220
       2B2     1.106759     6A1     1.122574     2B1     1.144802
       3B1     1.402005     3B2     1.402089     7A1     1.416817
       8A1     1.498393     4B2     3.543072     9A1     3.543737
       1A2     3.553511     4B1     3.553637    10A1     3.573239

    Final Occupation by Irrep:
             A1    A2    B1    B2
    DOCC [     3,    0,    0,    1 ]
    SOCC [     1,    0,    1,    0 ]
    NA   [     4,    0,    1,    1 ]
    NB   [     3,    0,    0,    1 ]

  @DF-UKS Final Energy:  -100.22841371639696

   => Energetics <=

    Nuclear Repulsion Energy =              1.7653086453066238
    One-Electron Energy =                -143.3026634897841518
    Two-Electron Energy =                  49.9509469575635663
    DFT Exchange-Correlation Energy =      -8.6420058294829865
    Empirical Dispersion Energy =           0.0000000000000000
    VV10 Nonlocal Energy =                  0.0000000000000000
    Total Energy =                       -100.2284137163969575

  UHF NO Occupations:
  HONO-2 :    3 A1 1.9996882
  HONO-1 :    4 A1 1.0000000
  HONO-0 :    1 B1 1.0000000
  LUNO+0 :    5 A1 0.0003118
  LUNO+1 :    6 A1 0.0001052
  LUNO+2 :    2 B2 0.0000573
  LUNO+3 :    7 A1 0.0000000

Computation Completed

Properties will be evaluated at   0.000000,   0.000000,   0.000000 [a0]

Properties computed using the SCF density matrix

 Multipole Moments:

 ------------------------------------------------------------------------------------
     Multipole            Electronic (a.u.)      Nuclear  (a.u.)        Total (a.u.)
 ------------------------------------------------------------------------------------

 L = 1.  Multiply by 2.5417464519 to convert [e a0] to [Debye]
 Dipole X            :          0.0000000            0.0000000            0.0000000
 Dipole Y            :          0.0000000            0.0000000            0.0000000
 Dipole Z            :         -2.5628882            2.5299821           -0.0329062
 Magnitude           :                                                    0.0329062

 ------------------------------------------------------------------------------------

*** tstop() called on Joses-MacBook-Pro-2.local at Wed Jul 16 18:14:03 2025
Module time:
	user time   =       0.68 seconds =       0.01 minutes
	system time =       2.95 seconds =       0.05 minutes
	total time  =          1 seconds =       0.02 minutes
Total time:
	user time   =      14.85 seconds =       0.25 minutes
	system time =      50.49 seconds =       0.84 minutes
	total time  =          7 seconds =       0.12 minutes

*** tstart() called on Joses-MacBook-Pro-2.local
*** at Wed Jul 16 18:14:03 2025

         ------------------------------------------------------------
                                   SCF GRAD
                          Rob Parrish, Justin Turney,
                       Andy Simmonett, and Alex Sokolov
         ------------------------------------------------------------

  ==> Geometry <==

    Molecular point group: c2v
    Full point group: C_inf_v

    Geometry (in Angstrom), charge = 0, multiplicity = 3:

       Center              X                  Y                   Z               Mass
    ------------   -----------------  -----------------  -----------------  -----------------
         H            0.000000000000     0.000000000000     2.561974929005     1.007825032230
         F            0.000000000000     0.000000000000    -0.135907341437    18.998403162730

  Nuclear repulsion =    1.765308645306624

  ==> Basis Set <==

  Basis Set: CC-PVDZ
    Blend: CC-PVDZ
    Number of shells: 9
    Number of basis functions: 19
    Number of Cartesian functions: 20
    Spherical Harmonics?: true
    Max angular momentum: 2

  ==> DFJKGrad: Density-Fitted SCF Gradients <==

    Gradient:                    1
    J tasked:                  Yes
    K tasked:                  Yes
    wK tasked:                  No
    OpenMP threads:              1
    Integrals threads:           1
    Memory [MiB]:              375
    Schwarz Cutoff:          1E-12
    Fitting Condition:       1E-10

   => Auxiliary Basis Set <=

  Basis Set: (CC-PVDZ AUX)
    Blend: CC-PVDZ-JKFIT
    Number of shells: 33
    Number of basis functions: 93
    Number of Cartesian functions: 106
    Spherical Harmonics?: true
    Max angular momentum: 3

  ==> DFT Potential <==

   => LibXC <=

    Version 6.2.2
    S. Lehtola, C. Steigemann, M. J.T. Oliveira, and M. A.L. Marques.,  SoftwareX 7, 1â€“5 (2018) (10.1016/j.softx.2017.11.002)

   => Composite Functional: B3LYP <=

    B3LYP Hyb-GGA Exchange-Correlation Functional

    P. J. Stephens, F. J. Devlin, C. F. Chabalowski, and M. J. Frisch.,  J. Phys. Chem. 98, 11623 (1994) (10.1021/j100096a001)

    Deriv               =              1
    GGA                 =           TRUE
    Meta                =          FALSE

    Exchange Hybrid     =           TRUE
    MP2 Hybrid          =          FALSE

   => Exchange Functionals <=

    0.0800   Slater exchange
    0.7200         Becke 88

   => Exact (HF) Exchange <=

    0.2000               HF

   => Correlation Functionals <=

    0.1900   Vosko, Wilk & Nusair (VWN5_RPA)
    0.8100   Lee, Yang & Parr

   => LibXC Density Thresholds  <==

    XC_HYB_GGA_XC_B3LYP:  1.00E-15

   => Molecular Quadrature <=

    Radial Scheme          =       TREUTLER
    Pruning Scheme         =           NONE
    Nuclear Scheme         =       TREUTLER

    Blocking Scheme        =         OCTREE
    BS radius alpha        =              1
    Pruning alpha          =              1
    Radial Points          =             75
    Spherical Points       =            302
    Total Points           =          44454
    Total Blocks           =            389
    Max Points             =            255
    Max Functions          =             19
    Weights Tolerance      =       1.00E-15

  -Total Gradient:
     Atom            X                  Y                   Z
    ------   -----------------  -----------------  -----------------
       1        0.000000000000     0.000000000000    -0.000014658944
       2        0.000000000000    -0.000000000000     0.000016445709

*** tstop() called on Joses-MacBook-Pro-2.local at Wed Jul 16 18:14:03 2025
Module time:
	user time   =       0.32 seconds =       0.01 minutes
	system time =       0.72 seconds =       0.01 minutes
	total time  =          0 seconds =       0.00 minutes
Total time:
	user time   =      15.17 seconds =       0.25 minutes
	system time =      51.21 seconds =       0.85 minutes
	total time  =          7 seconds =       0.12 minutes

    			-----------------------------------------

    			 OPTKING 3.0: for geometry optimizations

    			     By R.A. King, Bethel University

    			        with contributions from

    			    A.V. Copan, J. Cayton, A. Heide

    			-----------------------------------------

	                            ===> Fragment 1 <==

	 Z (Atomic Numbers)          Masses                          Geom
	       1.000000             1.007825          0.00000000  0.00000000  4.84143096
	       9.000000            18.998403          0.00000000  0.00000000 -0.25682765

	 - Coordinate -           - BOHR/RAD -       - ANG/DEG -
	 R(1,2)           =         5.098259           2.697882

	        --- Internal Coordinate Step in ANG or DEG, aJ/ANG or AJ/DEG ---
	-------------------------------------------------------------------------------
	           Coordinate      Previous         Force          Change          New
	           ----------      --------        ------          ------        ------
	               R(1,2)       2.69788        0.00013        0.00507       2.70296
	-------------------------------------------------------------------------------

	                                 ==> Convergence Check <==

	Measures of convergence in internal coordinates in au.

	Criteria marked as inactive (o), active & met (*), and active & unmet ( ).

	----------------------------------------------------------------------------------------------
	   Step    Total Energy     Delta E     Max Force     RMS Force      Max Disp      RMS Disp
	----------------------------------------------------------------------------------------------
	  Convergence Criteria     1.00e-06 *    3.00e-04 *             o    1.20e-03 *             o
	----------------------------------------------------------------------------------------------
	    13    -100.22841372   -3.90e-07 *    1.56e-05 *    1.56e-05 o    9.59e-03      9.59e-03 o  ~
	----------------------------------------------------------------------------------------------

Next Geometry in Ang
	Fragment 1 (Ang)

	    H   0.0000000000   0.0000000000   2.5645115475
	    F   0.0000000000   0.0000000000  -0.1384439600

    Final optimized geometry and variables:
    Molecular point group: c2v
    Full point group: C_inf_v

    Geometry (in Angstrom), charge = 0, multiplicity = 3:

    H            0.000000000000     0.000000000000     2.561974929005
    F            0.000000000000     0.000000000000    -0.135907341437

    Psi4 stopped on: Wednesday, 16 July 2025 06:14PM
    Psi4 wall time for execution: 0:00:07.73

*** Psi4 exiting successfully. Buy a developer a beer!
