                               Psi4 1.9.1 release

  ==> Input File <==

--------------------------------------------------------------------------
molecule {
0 3
Na   0.00000        0.60000        0.00000
Na   0.00000       -0.60000        0.00000
}

set {
basis              cc-pvdz
reference          uks
maxiter            500
geom_maxiter       500
DAMPING_PERCENTAGE 1
guess              SAP
}

optimize('b3lyp')
--------------------------------------------------------------------------

    Molecular point group: d2h
  Charge       = 0
  Multiplicity = 3
  Basis Set: CC-PVDZ
    Blend: CC-PVDZ
  Basis Set: (CC-PVDZ AUX)
    Blend: DEF2-UNIVERSAL-JKFIT
  @DF-UKS Final Energy:  -323.99474573682090
    Total Energy =                       -323.9947457368209029
 Dipole X            :          0.0000000            0.0000000            0.0000000
 Dipole Y            :          0.0000000            0.0000000            0.0000000
 Dipole Z            :          0.0000000            0.0000000            0.0000000
 Magnitude           :                                                    0.0000000
    Molecular point group: d2h
  Basis Set: CC-PVDZ
    Blend: CC-PVDZ
  Basis Set: (CC-PVDZ AUX)
    Blend: DEF2-UNIVERSAL-JKFIT
  Basis Set: CC-PVDZ
    Blend: CC-PVDZ
  Basis Set: (CC-PVDZ AUX)
    Blend: DEF2-UNIVERSAL-JKFIT
  @DF-UKS Final Energy:  -324.00197643554930
    Total Energy =                       -324.0019764355493521
  Basis Set: CC-PVDZ
    Blend: CC-PVDZ
  Basis Set: (CC-PVDZ AUX)
    Blend: DEF2-UNIVERSAL-JKFIT
  Basis Set: CC-PVDZ
    Blend: CC-PVDZ
  @DF-UKS Final Energy:  -324.01588779842359
    Total Energy =                       -324.0158877984236483
  @DF-UKS Final Energy:  -324.06592103571683
    Total Energy =                       -324.0659210357168831
  @DF-UKS Final Energy:  -324.28254517645541
    Total Energy =                       -324.2825451764554145
  @DF-UKS Final Energy:  -324.37161286059455
    Total Energy =                       -324.3716128605944959
  @DF-UKS Final Energy:  -324.43144750211854
    Total Energy =                       -324.4314475021185444
  @DF-UKS Final Energy:  -324.46461256683216
    Total Energy =                       -324.4646125668321588
  @DF-UKS Final Energy:  -324.48990598902088
    Total Energy =                       -324.4899059890209401
  @DF-UKS Final Energy:  -324.51382338650467
    Total Energy =                       -324.5138233865046686
  @DF-UKS Final Energy:  -324.52867753737877
    Total Energy =                       -324.5286775373787691
  @DF-UKS Final Energy:  -324.53690739636517
    Total Energy =                       -324.5369073963651658
  @DF-UKS Final Energy:  -324.54032164045987
    Total Energy =                       -324.5403216404598652
  @DF-UKS Final Energy:  -324.54144301260612
    Total Energy =                       -324.5414430126061234
  @DF-UKS Final Energy:  -324.54158517938367
    Total Energy =                       -324.5415851793837305
  Basis Set: (CC-PVDZ AUX)
    Blend: DEF2-UNIVERSAL-JKFIT
  Basis Set: CC-PVDZ
    Blend: CC-PVDZ
  Basis Set: (CC-PVDZ AUX)
    Blend: DEF2-UNIVERSAL-JKFIT
  @DF-UKS Final Energy:  -324.54158896905591
    Total Energy =                       -324.5415889690559084
  Basis Set: CC-PVDZ
    Blend: CC-PVDZ
  Basis Set: (CC-PVDZ AUX)
    Blend: DEF2-UNIVERSAL-JKFIT
  Charge       = 0
  Multiplicity = 3
  Basis Set: CC-PVDZ
    Blend: CC-PVDZ
  Basis Set: (CC-PVDZ AUX)
    Blend: DEF2-UNIVERSAL-JKFIT

    Orbital Energies [Eh]
    ---------------------

    Alpha Occupied:

       1Ag   -38.505450     1B2u  -38.505448     2Ag    -2.249908
       2B2u   -2.249797     3Ag    -1.182636     1B1u   -1.181283
       1B3g   -1.181060     3B2u   -1.180692     1B3u   -1.180009
       1B1g   -1.179780     4Ag    -0.166405     2B3u   -0.075662

    Alpha Virtual:

       4B2u   -0.071467     2B1u   -0.036322     5Ag    -0.020229
       2B1g   -0.006018     2B3g    0.006350     5B2u    0.020616
       6Ag     0.039536     3B3u    0.049517     3B1u    0.059932
       7Ag     0.065346     3B1g    0.086936     3B3g    0.096007
       6B2u    0.099912     1B2g    0.125496     8Ag     0.130287
       4B3u    0.143799     7B2u    0.152036     4B1u    0.154118
       1Au     0.189036     8B2u    0.193848     9Ag     0.229917
       4B1g    0.277969     4B3g    0.286716     9B2u    0.555911

    Beta Occupied:

       1Ag   -38.504165     1B2u  -38.504163     2Ag    -2.247515
       2B2u   -2.247411     3Ag    -1.180882     1B1u   -1.179939
       1B3g   -1.179760     3B2u   -1.179076     1B3u   -1.177453
       1B1g   -1.177277

    Beta Virtual:

       4Ag    -0.095005     4B2u   -0.055802     2B1u   -0.013814
       2B3u   -0.005999     5Ag    -0.000564     2B3g    0.015763
       2B1g    0.019257     5B2u    0.027003     6Ag     0.064197
       3B1u    0.073917     7Ag     0.075200     3B3u    0.079513
       3B3g    0.100293     3B1g    0.106220     6B2u    0.113502
       1B2g    0.160113     8Ag     0.160642     7B2u    0.162404
       4B1u    0.169617     4B3u    0.178894     1Au     0.212845
       8B2u    0.213966     9Ag     0.247930     4B3g    0.294733
       4B1g    0.304238     9B2u    0.564718

    Final Occupation by Irrep:
             Ag   B1g   B2g   B3g    Au   B1u   B2u   B3u
    DOCC [     3,    1,    0,    1,    0,    1,    3,    1 ]
    SOCC [     1,    0,    0,    0,    0,    0,    0,    1 ]
    NA   [     4,    1,    0,    1,    0,    1,    3,    2 ]
    NB   [     3,    1,    0,    1,    0,    1,    3,    1 ]

  @DF-UKS Final Energy:  -324.54158906312927

   => Energetics <=

    Nuclear Repulsion Energy =             20.7161620339431636
    One-Electron Energy =                -496.4615508562982882
    Two-Electron Energy =                 174.4810524409455752
    DFT Exchange-Correlation Energy =     -23.2772526817197090
    Empirical Dispersion Energy =           0.0000000000000000
    VV10 Nonlocal Energy =                  0.0000000000000000
    Total Energy =                       -324.5415890631292655

  UHF NO Occupations:
  HONO-2 :    3 Ag 1.9999993
  HONO-1 :    2B3u 1.0000000
  HONO-0 :    4 Ag 1.0000000
  LUNO+0 :    5 Ag 0.0000007
  LUNO+1 :    3B3u 0.0000003
  LUNO+2 :    2B1u 0.0000003
  LUNO+3 :    4B2u 0.0000002

Computation Completed

Properties will be evaluated at   0.000000,   0.000000,   0.000000 [a0]

Properties computed using the SCF density matrix

 Multipole Moments:

 ------------------------------------------------------------------------------------
     Multipole            Electronic (a.u.)      Nuclear  (a.u.)        Total (a.u.)
 ------------------------------------------------------------------------------------

 L = 1.  Multiply by 2.5417464519 to convert [e a0] to [Debye]
 Dipole X            :          0.0000000            0.0000000            0.0000000
 Dipole Y            :          0.0000000            0.0000000            0.0000000
 Dipole Z            :          0.0000000            0.0000000            0.0000000
 Magnitude           :                                                    0.0000000

 ------------------------------------------------------------------------------------

*** tstop() called on Joses-MacBook-Pro-2.local at Wed Jul 16 19:39:32 2025
Module time:
	user time   =       5.30 seconds =       0.09 minutes
	system time =       2.72 seconds =       0.05 minutes
	total time  =          1 seconds =       0.02 minutes
Total time:
	user time   =     157.22 seconds =       2.62 minutes
	system time =      76.68 seconds =       1.28 minutes
	total time  =         22 seconds =       0.37 minutes

*** tstart() called on Joses-MacBook-Pro-2.local
*** at Wed Jul 16 19:39:32 2025

         ------------------------------------------------------------
                                   SCF GRAD
                          Rob Parrish, Justin Turney,
                       Andy Simmonett, and Alex Sokolov
         ------------------------------------------------------------

  ==> Geometry <==

    Molecular point group: d2h
    Full point group: D_inf_h

    Geometry (in Angstrom), charge = 0, multiplicity = 3:

       Center              X                  Y                   Z               Mass
    ------------   -----------------  -----------------  -----------------  -----------------
         NA          -0.000000000000     1.545422419128     0.000000000000    22.989769282000
         NA           0.000000000000    -1.545422419128     0.000000000000    22.989769282000

  Nuclear repulsion =   20.716162033943164

  ==> Basis Set <==

  Basis Set: CC-PVDZ
    Blend: CC-PVDZ
    Number of shells: 16
    Number of basis functions: 36
    Number of Cartesian functions: 38
    Spherical Harmonics?: true
    Max angular momentum: 2

  ==> DFJKGrad: Density-Fitted SCF Gradients <==

    Gradient:                    1
    J tasked:                  Yes
    K tasked:                  Yes
    wK tasked:                  No
    OpenMP threads:              1
    Integrals threads:           1
    Memory [MiB]:              375
    Schwarz Cutoff:          1E-12
    Fitting Condition:       1E-10

   => Auxiliary Basis Set <=

  Basis Set: (CC-PVDZ AUX)
    Blend: DEF2-UNIVERSAL-JKFIT
    Number of shells: 68
    Number of basis functions: 224
    Number of Cartesian functions: 274
    Spherical Harmonics?: true
    Max angular momentum: 4

  ==> DFT Potential <==

   => LibXC <=

    Version 6.2.2
    S. Lehtola, C. Steigemann, M. J.T. Oliveira, and M. A.L. Marques.,  SoftwareX 7, 1â€“5 (2018) (10.1016/j.softx.2017.11.002)

   => Composite Functional: B3LYP <=

    B3LYP Hyb-GGA Exchange-Correlation Functional

    P. J. Stephens, F. J. Devlin, C. F. Chabalowski, and M. J. Frisch.,  J. Phys. Chem. 98, 11623 (1994) (10.1021/j100096a001)

    Deriv               =              1
    GGA                 =           TRUE
    Meta                =          FALSE

    Exchange Hybrid     =           TRUE
    MP2 Hybrid          =          FALSE

   => Exchange Functionals <=

    0.0800   Slater exchange
    0.7200         Becke 88

   => Exact (HF) Exchange <=

    0.2000               HF

   => Correlation Functionals <=

    0.1900   Vosko, Wilk & Nusair (VWN5_RPA)
    0.8100   Lee, Yang & Parr

   => LibXC Density Thresholds  <==

    XC_HYB_GGA_XC_B3LYP:  1.00E-15

   => Molecular Quadrature <=

    Radial Scheme          =       TREUTLER
    Pruning Scheme         =           NONE
    Nuclear Scheme         =       TREUTLER

    Blocking Scheme        =         OCTREE
    BS radius alpha        =              1
    Pruning alpha          =              1
    Radial Points          =             75
    Spherical Points       =            302
    Total Points           =          43066
    Total Blocks           =            452
    Max Points             =            254
    Max Functions          =             36
    Weights Tolerance      =       1.00E-15

  -Total Gradient:
     Atom            X                  Y                   Z
    ------   -----------------  -----------------  -----------------
       1        0.000000000000    -0.000007217055     0.000000000000
       2       -0.000000000000     0.000007217055     0.000000000000

*** tstop() called on Joses-MacBook-Pro-2.local at Wed Jul 16 19:39:32 2025
Module time:
	user time   =       3.24 seconds =       0.05 minutes
	system time =       1.60 seconds =       0.03 minutes
	total time  =          0 seconds =       0.00 minutes
Total time:
	user time   =     160.46 seconds =       2.67 minutes
	system time =      78.28 seconds =       1.30 minutes
	total time  =         22 seconds =       0.37 minutes

    			-----------------------------------------

    			 OPTKING 3.0: for geometry optimizations

    			     By R.A. King, Bethel University

    			        with contributions from

    			    A.V. Copan, J. Cayton, A. Heide

    			-----------------------------------------

	                            ===> Fragment 1 <==

	 Z (Atomic Numbers)          Masses                          Geom
	      11.000000            22.989769         -0.00000000  2.92042512  0.00000000
	      11.000000            22.989769          0.00000000 -2.92042512  0.00000000

	 - Coordinate -           - BOHR/RAD -       - ANG/DEG -
	 R(1,2)           =         5.840850           3.090845

	        --- Internal Coordinate Step in ANG or DEG, aJ/ANG or AJ/DEG ---
	-------------------------------------------------------------------------------
	           Coordinate      Previous         Force          Change          New
	           ----------      --------        ------          ------        ------
	               R(1,2)       3.09084        0.00006        0.00033       3.09117
	-------------------------------------------------------------------------------

	                                 ==> Convergence Check <==

	Measures of convergence in internal coordinates in au.

	Criteria marked as inactive (o), active & met (*), and active & unmet ( ).

	----------------------------------------------------------------------------------------------
	   Step    Total Energy     Delta E     Max Force     RMS Force      Max Disp      RMS Disp
	----------------------------------------------------------------------------------------------
	  Convergence Criteria     1.00e-06 *    3.00e-04 *             o    1.20e-03 *             o
	----------------------------------------------------------------------------------------------
	    17    -324.54158906   -9.41e-08 *    7.22e-06 *    7.22e-06 o    6.17e-04 *    6.17e-04 o  ~
	----------------------------------------------------------------------------------------------

Next Geometry in Ang
	Fragment 1 (Ang)

	   Na  -0.0000000000   1.5455857254   0.0000000000
	   Na   0.0000000000  -1.5455857254   0.0000000000

    Final optimized geometry and variables:
    Molecular point group: d2h
    Full point group: D_inf_h

    Geometry (in Angstrom), charge = 0, multiplicity = 3:

    NA          -0.000000000000     1.545422419128     0.000000000000
    NA           0.000000000000    -1.545422419128     0.000000000000

    Psi4 stopped on: Wednesday, 16 July 2025 07:39PM
    Psi4 wall time for execution: 0:00:23.14

*** Psi4 exiting successfully. Buy a developer a beer!
