                               Psi4 1.9.1 release

  ==> Input File <==

--------------------------------------------------------------------------
molecule {
0 3
N   0.00000        0.60000        0.00000
P   0.00000       -0.60000        0.00000
}

set {
basis              cc-pvdz
reference          uks
maxiter            500
geom_maxiter       500
DAMPING_PERCENTAGE 1
guess              SAP
}

optimize('b3lyp')
--------------------------------------------------------------------------

    Molecular point group: c2v
  Charge       = 0
  Multiplicity = 3
  Basis Set: CC-PVDZ
    Blend: CC-PVDZ
  Basis Set: (CC-PVDZ AUX)
    Blend: CC-PVDZ-JKFIT
  @DF-UKS Final Energy:  -395.69417286426608
    Total Energy =                       -395.6941728642661360
 Dipole X            :          0.0000000            0.0000000            0.0000000
 Dipole Y            :          0.0000000            0.0000000            0.0000000
 Dipole Z            :         -0.4867488            0.3413456           -0.1454033
 Magnitude           :                                                    0.1454033
    Molecular point group: c2v
  Basis Set: CC-PVDZ
    Blend: CC-PVDZ
  Basis Set: (CC-PVDZ AUX)
    Blend: CC-PVDZ-JKFIT
  Basis Set: CC-PVDZ
    Blend: CC-PVDZ
  Basis Set: (CC-PVDZ AUX)
    Blend: CC-PVDZ-JKFIT
  @DF-UKS Final Energy:  -395.85037618765813
    Total Energy =                       -395.8503761876580711
  Basis Set: CC-PVDZ
    Blend: CC-PVDZ
  Basis Set: (CC-PVDZ AUX)
    Blend: CC-PVDZ-JKFIT
  Basis Set: CC-PVDZ
    Blend: CC-PVDZ
  @DF-UKS Final Energy:  -395.91261361687305
    Total Energy =                       -395.9126136168730454
  @DF-UKS Final Energy:  -395.92931738973385
    Total Energy =                       -395.9293173897339102
  @DF-UKS Final Energy:  -395.93624819433205
    Total Energy =                       -395.9362481943321086
  @DF-UKS Final Energy:  -395.93776925204139
    Total Energy =                       -395.9377692520413916
  @DF-UKS Final Energy:  -395.93814783008207
    Total Energy =                       -395.9381478300820731
  @DF-UKS Final Energy:  -395.93826891502113
    Total Energy =                       -395.9382689150211263
  Basis Set: (CC-PVDZ AUX)
    Blend: CC-PVDZ-JKFIT
  Basis Set: CC-PVDZ
    Blend: CC-PVDZ
  Basis Set: (CC-PVDZ AUX)
    Blend: CC-PVDZ-JKFIT
  @DF-UKS Final Energy:  -395.93828568715946
    Total Energy =                       -395.9382856871594640
  Basis Set: CC-PVDZ
    Blend: CC-PVDZ
  Basis Set: (CC-PVDZ AUX)
    Blend: CC-PVDZ-JKFIT
  Charge       = 0
  Multiplicity = 3
  Basis Set: CC-PVDZ
    Blend: CC-PVDZ
  Basis Set: (CC-PVDZ AUX)
    Blend: CC-PVDZ-JKFIT

    Orbital Energies [Eh]
    ---------------------

    Alpha Occupied:

       1A1   -77.149664     2A1   -14.404042     3A1    -6.615572
       4A1    -4.781330     1B1    -4.776609     1B2    -4.773536
       5A1    -0.872702     6A1    -0.546883     7A1    -0.392038
       2B2    -0.360564     2B1    -0.345585     3B2    -0.180437

    Alpha Virtual:

       3B1    -0.109988     8A1     0.059429     9A1     0.335897
       4B2     0.396484     4B1     0.397416    10A1     0.428544
       1A2     0.446959    11A1     0.449466     5B2     0.510791
       5B1     0.516305    12A1     0.602375     6B2     0.755712
       6B1     0.759866    13A1     0.953356    14A1     1.197039
       2A2     1.739751    15A1     1.740595     7B1     1.907462
       7B2     1.908581    16A1     2.380549

    Beta Occupied:

       1A1   -77.145962     2A1   -14.377112     3A1    -6.611762
       1B1    -4.776117     4A1    -4.773568     1B2    -4.764252
       5A1    -0.812389     6A1    -0.465836     2B1    -0.319621
       2B2    -0.294574

    Beta Virtual:

       7A1    -0.225929     3B1    -0.084662     3B2    -0.055357
       8A1     0.087549     9A1     0.355516     4B1     0.397683
       4B2     0.418835    10A1     0.462029     1A2     0.471551
      11A1     0.474058     5B1     0.539151     5B2     0.566140
      12A1     0.648038     6B1     0.785181     6B2     0.801490
      13A1     1.011154    14A1     1.238385     2A2     1.789201
      15A1     1.789205     7B1     1.969424     7B2     1.989148
      16A1     2.452181

    Final Occupation by Irrep:
             A1    A2    B1    B2
    DOCC [     6,    0,    2,    2 ]
    SOCC [     1,    0,    0,    1 ]
    NA   [     7,    0,    2,    3 ]
    NB   [     6,    0,    2,    2 ]

  @DF-UKS Final Energy:  -395.93828674286482

   => Energetics <=

    Nuclear Repulsion Energy =             35.3179248499178655
    One-Electron Energy =                -615.6895151768206915
    Two-Electron Energy =                 208.6514080616140916
    DFT Exchange-Correlation Energy =     -24.2181044775760590
    Empirical Dispersion Energy =           0.0000000000000000
    VV10 Nonlocal Energy =                  0.0000000000000000
    Total Energy =                       -395.9382867428647614

  UHF NO Occupations:
  HONO-2 :    2 B1 1.9919296
  HONO-1 :    3 B2 1.0000000
  HONO-0 :    7 A1 1.0000000
  LUNO+0 :    3 B1 0.0080704
  LUNO+1 :    8 A1 0.0017342
  LUNO+2 :    4 B2 0.0016569
  LUNO+3 :    9 A1 0.0003173

Computation Completed

Properties will be evaluated at   0.000000,   0.000000,   0.000000 [a0]

Properties computed using the SCF density matrix

 Multipole Moments:

 ------------------------------------------------------------------------------------
     Multipole            Electronic (a.u.)      Nuclear  (a.u.)        Total (a.u.)
 ------------------------------------------------------------------------------------

 L = 1.  Multiply by 2.5417464519 to convert [e a0] to [Debye]
 Dipole X            :          0.0000000            0.0000000            0.0000000
 Dipole Y            :          0.0000000            0.0000000            0.0000000
 Dipole Z            :         -0.9714860            0.4475157           -0.5239703
 Magnitude           :                                                    0.5239703

 ------------------------------------------------------------------------------------

*** tstop() called on Joses-MacBook-Pro-2.local at Wed Jul 16 19:13:31 2025
Module time:
	user time   =       6.24 seconds =       0.10 minutes
	system time =       3.61 seconds =       0.06 minutes
	total time  =          1 seconds =       0.02 minutes
Total time:
	user time   =      81.24 seconds =       1.35 minutes
	system time =      59.36 seconds =       0.99 minutes
	total time  =         15 seconds =       0.25 minutes

*** tstart() called on Joses-MacBook-Pro-2.local
*** at Wed Jul 16 19:13:31 2025

         ------------------------------------------------------------
                                   SCF GRAD
                          Rob Parrish, Justin Turney,
                       Andy Simmonett, and Alex Sokolov
         ------------------------------------------------------------

  ==> Geometry <==

    Molecular point group: c2v
    Full point group: C_inf_v

    Geometry (in Angstrom), charge = 0, multiplicity = 3:

       Center              X                  Y                   Z               Mass
    ------------   -----------------  -----------------  -----------------  -----------------
         N            0.000000000000     0.000000000000     1.083428635222    14.003074004430
         P            0.000000000000     0.000000000000    -0.489812356610    30.973761998420

  Nuclear repulsion =   35.317924849917866

  ==> Basis Set <==

  Basis Set: CC-PVDZ
    Blend: CC-PVDZ
    Number of shells: 14
    Number of basis functions: 32
    Number of Cartesian functions: 34
    Spherical Harmonics?: true
    Max angular momentum: 2

  ==> DFJKGrad: Density-Fitted SCF Gradients <==

    Gradient:                    1
    J tasked:                  Yes
    K tasked:                  Yes
    wK tasked:                  No
    OpenMP threads:              1
    Integrals threads:           1
    Memory [MiB]:              375
    Schwarz Cutoff:          1E-12
    Fitting Condition:       1E-10

   => Auxiliary Basis Set <=

  Basis Set: (CC-PVDZ AUX)
    Blend: CC-PVDZ-JKFIT
    Number of shells: 60
    Number of basis functions: 182
    Number of Cartesian functions: 211
    Spherical Harmonics?: true
    Max angular momentum: 3

  ==> DFT Potential <==

   => LibXC <=

    Version 6.2.2
    S. Lehtola, C. Steigemann, M. J.T. Oliveira, and M. A.L. Marques.,  SoftwareX 7, 1â€“5 (2018) (10.1016/j.softx.2017.11.002)

   => Composite Functional: B3LYP <=

    B3LYP Hyb-GGA Exchange-Correlation Functional

    P. J. Stephens, F. J. Devlin, C. F. Chabalowski, and M. J. Frisch.,  J. Phys. Chem. 98, 11623 (1994) (10.1021/j100096a001)

    Deriv               =              1
    GGA                 =           TRUE
    Meta                =          FALSE

    Exchange Hybrid     =           TRUE
    MP2 Hybrid          =          FALSE

   => Exchange Functionals <=

    0.0800   Slater exchange
    0.7200         Becke 88

   => Exact (HF) Exchange <=

    0.2000               HF

   => Correlation Functionals <=

    0.1900   Vosko, Wilk & Nusair (VWN5_RPA)
    0.8100   Lee, Yang & Parr

   => LibXC Density Thresholds  <==

    XC_HYB_GGA_XC_B3LYP:  1.00E-15

   => Molecular Quadrature <=

    Radial Scheme          =       TREUTLER
    Pruning Scheme         =           NONE
    Nuclear Scheme         =       TREUTLER

    Blocking Scheme        =         OCTREE
    BS radius alpha        =              1
    Pruning alpha          =              1
    Radial Points          =             75
    Spherical Points       =            302
    Total Points           =          42153
    Total Blocks           =            382
    Max Points             =            253
    Max Functions          =             32
    Weights Tolerance      =       1.00E-15

  -Total Gradient:
     Atom            X                  Y                   Z
    ------   -----------------  -----------------  -----------------
       1        0.000000000000    -0.000000000000    -0.000140563773
       2        0.000000000000    -0.000000000000     0.000121174771

*** tstop() called on Joses-MacBook-Pro-2.local at Wed Jul 16 19:13:31 2025
Module time:
	user time   =       1.41 seconds =       0.02 minutes
	system time =       1.75 seconds =       0.03 minutes
	total time  =          0 seconds =       0.00 minutes
Total time:
	user time   =      82.66 seconds =       1.38 minutes
	system time =      61.11 seconds =       1.02 minutes
	total time  =         15 seconds =       0.25 minutes

    			-----------------------------------------

    			 OPTKING 3.0: for geometry optimizations

    			     By R.A. King, Bethel University

    			        with contributions from

    			    A.V. Copan, J. Cayton, A. Heide

    			-----------------------------------------

	                            ===> Fragment 1 <==

	 Z (Atomic Numbers)          Masses                          Geom
	       7.000000            14.003074          0.00000000  0.00000000  2.04738340
	      15.000000            30.973762          0.00000000  0.00000000 -0.92561121

	 - Coordinate -           - BOHR/RAD -       - ANG/DEG -
	 R(1,2)           =         2.972995           1.573241

	        --- Internal Coordinate Step in ANG or DEG, aJ/ANG or AJ/DEG ---
	-------------------------------------------------------------------------------
	           Coordinate      Previous         Force          Change          New
	           ----------      --------        ------          ------        ------
	               R(1,2)       1.57324        0.00108        0.00014       1.57338
	-------------------------------------------------------------------------------

	                                 ==> Convergence Check <==

	Measures of convergence in internal coordinates in au.

	Criteria marked as inactive (o), active & met (*), and active & unmet ( ).

	----------------------------------------------------------------------------------------------
	   Step    Total Energy     Delta E     Max Force     RMS Force      Max Disp      RMS Disp
	----------------------------------------------------------------------------------------------
	  Convergence Criteria     1.00e-06 *    3.00e-04 *             o    1.20e-03 *             o
	----------------------------------------------------------------------------------------------
	    10    -395.93828674   -1.06e-06      1.31e-04 *    1.31e-04 o    2.71e-04 *    2.71e-04 o  ~
	----------------------------------------------------------------------------------------------

Next Geometry in Ang
	Fragment 1 (Ang)

	    N   0.0000000000   0.0000000000   1.0835003345
	    P   0.0000000000   0.0000000000  -0.4898840559

    Final optimized geometry and variables:
    Molecular point group: c2v
    Full point group: C_inf_v

    Geometry (in Angstrom), charge = 0, multiplicity = 3:

    N            0.000000000000     0.000000000000     1.083428635222
    P            0.000000000000     0.000000000000    -0.489812356610

    Psi4 stopped on: Wednesday, 16 July 2025 07:13PM
    Psi4 wall time for execution: 0:00:15.38

*** Psi4 exiting successfully. Buy a developer a beer!
