                               Psi4 1.9.1 release

  ==> Input File <==

--------------------------------------------------------------------------
molecule {
0 3
Al   0.00000        0.60000        0.00000
Al   0.00000       -0.60000        0.00000
}

set {
basis              cc-pvdz
reference          uks
maxiter            500
geom_maxiter       500
DAMPING_PERCENTAGE 1
guess              SAP
}

optimize('b3lyp')
--------------------------------------------------------------------------

    Molecular point group: d2h
  Charge       = 0
  Multiplicity = 3
  Basis Set: CC-PVDZ
    Blend: CC-PVDZ
  Basis Set: (CC-PVDZ AUX)
    Blend: CC-PVDZ-JKFIT
  @DF-UKS Final Energy:  -483.79485376847629
    Total Energy =                       -483.7948537684762869
 Dipole X            :          0.0000000            0.0000000            0.0000000
 Dipole Y            :          0.0000000            0.0000000            0.0000000
 Dipole Z            :          0.0000000            0.0000000            0.0000000
 Magnitude           :                                                    0.0000000
    Molecular point group: d2h
  Basis Set: CC-PVDZ
    Blend: CC-PVDZ
  Basis Set: (CC-PVDZ AUX)
    Blend: CC-PVDZ-JKFIT
  Basis Set: CC-PVDZ
    Blend: CC-PVDZ
  Basis Set: (CC-PVDZ AUX)
    Blend: CC-PVDZ-JKFIT
  @DF-UKS Final Energy:  -483.80640930214372
    Total Energy =                       -483.8064093021437202
  Basis Set: CC-PVDZ
    Blend: CC-PVDZ
  Basis Set: (CC-PVDZ AUX)
    Blend: CC-PVDZ-JKFIT
  Basis Set: CC-PVDZ
    Blend: CC-PVDZ
  @DF-UKS Final Energy:  -483.82877720461681
    Total Energy =                       -483.8287772046168129
  @DF-UKS Final Energy:  -483.91053311034375
    Total Energy =                       -483.9105331103437493
  @DF-UKS Final Energy:  -484.28643294713549
    Total Energy =                       -484.2864329471354949
  @DF-UKS Final Energy:  -484.50753641046572
    Total Energy =                       -484.5075364104657183
  @DF-UKS Final Energy:  -484.69453613132026
    Total Energy =                       -484.6945361313202625
  @DF-UKS Final Energy:  -484.77519139077089
    Total Energy =                       -484.7751913907708854
  @DF-UKS Final Energy:  -484.79759719754776
    Total Energy =                       -484.7975971975477592
  @DF-UKS Final Energy:  -484.80677743276618
    Total Energy =                       -484.8067774327661823
  @DF-UKS Final Energy:  -484.80923359158334
    Total Energy =                       -484.8092335915833360
  @DF-UKS Final Energy:  -484.80960195877111
    Total Energy =                       -484.8096019587711112
  @DF-UKS Final Energy:  -484.80967279344299
    Total Energy =                       -484.8096727934429850
  Basis Set: (CC-PVDZ AUX)
    Blend: CC-PVDZ-JKFIT
  Basis Set: CC-PVDZ
    Blend: CC-PVDZ
  Basis Set: (CC-PVDZ AUX)
    Blend: CC-PVDZ-JKFIT
  @DF-UKS Final Energy:  -484.80967748417896
    Total Energy =                       -484.8096774841789625
  Basis Set: CC-PVDZ
    Blend: CC-PVDZ
  Basis Set: (CC-PVDZ AUX)
    Blend: CC-PVDZ-JKFIT
  Charge       = 0
  Multiplicity = 3
  Basis Set: CC-PVDZ
    Blend: CC-PVDZ
  Basis Set: (CC-PVDZ AUX)
    Blend: CC-PVDZ-JKFIT

    Orbital Energies [Eh]
    ---------------------

    Alpha Occupied:

       1B2u  -56.073674     1Ag   -56.073674     2B2u   -4.154061
       2Ag    -4.154038     3Ag    -2.707521     3B2u   -2.706646
       1B3u   -2.706428     1B1u   -2.706428     1B1g   -2.706356
       1B3g   -2.706356     4Ag    -0.396643     4B2u   -0.272902
       2B3u   -0.164038     2B1u   -0.164038

    Alpha Virtual:

       5Ag    -0.117074     2B1g   -0.048172     2B3g   -0.048172
       5B2u    0.038496     6Ag     0.121353     3B1u    0.171902
       3B3u    0.171902     7Ag     0.175444     6B2u    0.209376
       8Ag     0.214970     1B2g    0.214970     3B1g    0.237743
       3B3g    0.237743     4B1u    0.237954     4B3u    0.237954
       7B2u    0.300740     1Au     0.300741     8B2u    0.315756
       9Ag     0.416857     4B1g    0.443242     4B3g    0.443242
       9B2u    0.646248

    Beta Occupied:

       1B2u  -56.071789     1Ag   -56.071788     2B2u   -4.151747
       2Ag    -4.151709     3Ag    -2.706481     3B2u   -2.705619
       1B3u   -2.702066     1B1u   -2.702066     1B1g   -2.701995
       1B3g   -2.701995     4Ag    -0.360161     4B2u   -0.253362

    Beta Virtual:

       5Ag    -0.110112     2B3u   -0.089680     2B1u   -0.089680
       2B1g   -0.020680     2B3g   -0.020680     5B2u    0.047140
       6Ag     0.140461     7Ag     0.177929     3B1u    0.195049
       3B3u    0.195049     6B2u    0.214526     3B1g    0.252975
       3B3g    0.252975     8Ag     0.253979     1B2g    0.253980
       4B1u    0.256498     4B3u    0.256498     7B2u    0.326935
       8B2u    0.333491     1Au     0.333492     9Ag     0.431053
       4B1g    0.463315     4B3g    0.463315     9B2u    0.655693

    Final Occupation by Irrep:
             Ag   B1g   B2g   B3g    Au   B1u   B2u   B3u
    DOCC [     4,    1,    0,    1,    0,    1,    4,    1 ]
    SOCC [     0,    0,    0,    0,    0,    1,    0,    1 ]
    NA   [     4,    1,    0,    1,    0,    2,    4,    2 ]
    NB   [     4,    1,    0,    1,    0,    1,    4,    1 ]

  @DF-UKS Final Energy:  -484.80967780347237

   => Energetics <=

    Nuclear Repulsion Energy =             35.4644667068637958
    One-Electron Energy =                -744.1965155238419811
    Two-Electron Energy =                 253.8902477113880423
    DFT Exchange-Correlation Energy =     -29.9678766978822644
    Empirical Dispersion Energy =           0.0000000000000000
    VV10 Nonlocal Energy =                  0.0000000000000000
    Total Energy =                       -484.8096778034723684

  UHF NO Occupations:
  HONO-2 :    4B2u 1.9981399
  HONO-1 :    2B1u 1.0000000
  HONO-0 :    2B3u 1.0000000
  LUNO+0 :    5B2u 0.0018601
  LUNO+1 :    5 Ag 0.0011647
  LUNO+2 :    2B3g 0.0000001
  LUNO+3 :    2B1g 0.0000001

Computation Completed

Properties will be evaluated at   0.000000,   0.000000,   0.000000 [a0]

Properties computed using the SCF density matrix

 Multipole Moments:

 ------------------------------------------------------------------------------------
     Multipole            Electronic (a.u.)      Nuclear  (a.u.)        Total (a.u.)
 ------------------------------------------------------------------------------------

 L = 1.  Multiply by 2.5417464519 to convert [e a0] to [Debye]
 Dipole X            :          0.0000000            0.0000000            0.0000000
 Dipole Y            :          0.0000000            0.0000000            0.0000000
 Dipole Z            :          0.0000000            0.0000000            0.0000000
 Magnitude           :                                                    0.0000000

 ------------------------------------------------------------------------------------

*** tstop() called on Joses-MacBook-Pro-2.local at Wed Jul 16 20:04:52 2025
Module time:
	user time   =       4.87 seconds =       0.08 minutes
	system time =       2.15 seconds =       0.04 minutes
	total time  =          0 seconds =       0.00 minutes
Total time:
	user time   =     163.86 seconds =       2.73 minutes
	system time =      50.20 seconds =       0.84 minutes
	total time  =         20 seconds =       0.33 minutes

*** tstart() called on Joses-MacBook-Pro-2.local
*** at Wed Jul 16 20:04:52 2025

         ------------------------------------------------------------
                                   SCF GRAD
                          Rob Parrish, Justin Turney,
                       Andy Simmonett, and Alex Sokolov
         ------------------------------------------------------------

  ==> Geometry <==

    Molecular point group: d2h
    Full point group: D_inf_h

    Geometry (in Angstrom), charge = 0, multiplicity = 3:

       Center              X                  Y                   Z               Mass
    ------------   -----------------  -----------------  -----------------  -----------------
         AL          -0.000000000000     1.260852860730     0.000000000000    26.981538530000
         AL           0.000000000000    -1.260852860730     0.000000000000    26.981538530000

  Nuclear repulsion =   35.464466706863796

  ==> Basis Set <==

  Basis Set: CC-PVDZ
    Blend: CC-PVDZ
    Number of shells: 16
    Number of basis functions: 36
    Number of Cartesian functions: 38
    Spherical Harmonics?: true
    Max angular momentum: 2

  ==> DFJKGrad: Density-Fitted SCF Gradients <==

    Gradient:                    1
    J tasked:                  Yes
    K tasked:                  Yes
    wK tasked:                  No
    OpenMP threads:              1
    Integrals threads:           1
    Memory [MiB]:              375
    Schwarz Cutoff:          1E-12
    Fitting Condition:       1E-10

   => Auxiliary Basis Set <=

  Basis Set: (CC-PVDZ AUX)
    Blend: CC-PVDZ-JKFIT
    Number of shells: 72
    Number of basis functions: 224
    Number of Cartesian functions: 260
    Spherical Harmonics?: true
    Max angular momentum: 3

  ==> DFT Potential <==

   => LibXC <=

    Version 6.2.2
    S. Lehtola, C. Steigemann, M. J.T. Oliveira, and M. A.L. Marques.,  SoftwareX 7, 1â€“5 (2018) (10.1016/j.softx.2017.11.002)

   => Composite Functional: B3LYP <=

    B3LYP Hyb-GGA Exchange-Correlation Functional

    P. J. Stephens, F. J. Devlin, C. F. Chabalowski, and M. J. Frisch.,  J. Phys. Chem. 98, 11623 (1994) (10.1021/j100096a001)

    Deriv               =              1
    GGA                 =           TRUE
    Meta                =          FALSE

    Exchange Hybrid     =           TRUE
    MP2 Hybrid          =          FALSE

   => Exchange Functionals <=

    0.0800   Slater exchange
    0.7200         Becke 88

   => Exact (HF) Exchange <=

    0.2000               HF

   => Correlation Functionals <=

    0.1900   Vosko, Wilk & Nusair (VWN5_RPA)
    0.8100   Lee, Yang & Parr

   => LibXC Density Thresholds  <==

    XC_HYB_GGA_XC_B3LYP:  1.00E-15

   => Molecular Quadrature <=

    Radial Scheme          =       TREUTLER
    Pruning Scheme         =           NONE
    Nuclear Scheme         =       TREUTLER

    Blocking Scheme        =         OCTREE
    BS radius alpha        =              1
    Pruning alpha          =              1
    Radial Points          =             75
    Spherical Points       =            302
    Total Points           =          42342
    Total Blocks           =            402
    Max Points             =            249
    Max Functions          =             36
    Weights Tolerance      =       1.00E-15

  -Total Gradient:
     Atom            X                  Y                   Z
    ------   -----------------  -----------------  -----------------
       1        0.000000000000    -0.000051095568     0.000000000000
       2       -0.000000000000     0.000051095568    -0.000000000000

*** tstop() called on Joses-MacBook-Pro-2.local at Wed Jul 16 20:04:53 2025
Module time:
	user time   =       2.22 seconds =       0.04 minutes
	system time =       1.14 seconds =       0.02 minutes
	total time  =          1 seconds =       0.02 minutes
Total time:
	user time   =     166.08 seconds =       2.77 minutes
	system time =      51.34 seconds =       0.86 minutes
	total time  =         21 seconds =       0.35 minutes

    			-----------------------------------------

    			 OPTKING 3.0: for geometry optimizations

    			     By R.A. King, Bethel University

    			        with contributions from

    			    A.V. Copan, J. Cayton, A. Heide

    			-----------------------------------------

	                            ===> Fragment 1 <==

	 Z (Atomic Numbers)          Masses                          Geom
	      13.000000            26.981539         -0.00000000  2.38266659  0.00000000
	      13.000000            26.981539          0.00000000 -2.38266659  0.00000000

	 - Coordinate -           - BOHR/RAD -       - ANG/DEG -
	 R(1,2)           =         4.765333           2.521706

	        --- Internal Coordinate Step in ANG or DEG, aJ/ANG or AJ/DEG ---
	-------------------------------------------------------------------------------
	           Coordinate      Previous         Force          Change          New
	           ----------      --------        ------          ------        ------
	               R(1,2)       2.52171        0.00042        0.00045       2.52216
	-------------------------------------------------------------------------------

	                                 ==> Convergence Check <==

	Measures of convergence in internal coordinates in au.

	Criteria marked as inactive (o), active & met (*), and active & unmet ( ).

	----------------------------------------------------------------------------------------------
	   Step    Total Energy     Delta E     Max Force     RMS Force      Max Disp      RMS Disp
	----------------------------------------------------------------------------------------------
	  Convergence Criteria     1.00e-06 *    3.00e-04 *             o    1.20e-03 *             o
	----------------------------------------------------------------------------------------------
	    15    -484.80967780   -3.19e-07 *    5.11e-05 *    5.11e-05 o    8.51e-04 *    8.51e-04 o  ~
	----------------------------------------------------------------------------------------------

Next Geometry in Ang
	Fragment 1 (Ang)

	   Al  -0.0000000000   1.2610779888   0.0000000000
	   Al   0.0000000000  -1.2610779888   0.0000000000

    Final optimized geometry and variables:
    Molecular point group: d2h
    Full point group: D_inf_h

    Geometry (in Angstrom), charge = 0, multiplicity = 3:

    AL          -0.000000000000     1.260852860730     0.000000000000
    AL           0.000000000000    -1.260852860730     0.000000000000

    Psi4 stopped on: Wednesday, 16 July 2025 08:04PM
    Psi4 wall time for execution: 0:00:21.63

*** Psi4 exiting successfully. Buy a developer a beer!
