                               Psi4 1.9.1 release

  ==> Input File <==

--------------------------------------------------------------------------
molecule {
0 3
Li   0.00000        0.60000        0.00000
F   0.00000       -0.60000        0.00000
}

set {
basis              cc-pvdz
reference          uks
maxiter            500
geom_maxiter       500
DAMPING_PERCENTAGE 1
guess              SAP
}

optimize('b3lyp')
--------------------------------------------------------------------------

    Molecular point group: c2v
  Charge       = 0
  Multiplicity = 3
  Basis Set: CC-PVDZ
    Blend: CC-PVDZ
  Basis Set: (CC-PVDZ AUX)
    Blend: CC-PVDZ-JKFIT + DEF2-UNIVERSAL-JKFIT
  @DF-UKS Final Energy:  -107.06565495865875
    Total Energy =                       -107.0656549586587545
 Dipole X            :          0.0000000            0.0000000            0.0000000
 Dipole Y            :          0.0000000            0.0000000            0.0000000
 Dipole Z            :         -0.5944164           -0.5359917           -1.1304081
 Magnitude           :                                                    1.1304081
    Molecular point group: c2v
  Basis Set: CC-PVDZ
    Blend: CC-PVDZ
  Basis Set: (CC-PVDZ AUX)
    Blend: CC-PVDZ-JKFIT + DEF2-UNIVERSAL-JKFIT
  Basis Set: CC-PVDZ
    Blend: CC-PVDZ
  Basis Set: (CC-PVDZ AUX)
    Blend: CC-PVDZ-JKFIT + DEF2-UNIVERSAL-JKFIT
  @DF-UKS Final Energy:  -107.14412861583389
    Total Energy =                       -107.1441286158338926
  Basis Set: CC-PVDZ
    Blend: CC-PVDZ
  Basis Set: (CC-PVDZ AUX)
    Blend: CC-PVDZ-JKFIT + DEF2-UNIVERSAL-JKFIT
  Basis Set: CC-PVDZ
    Blend: CC-PVDZ
  @DF-UKS Final Energy:  -107.17423078135276
    Total Energy =                       -107.1742307813527617
  @DF-UKS Final Energy:  -107.19186439954436
    Total Energy =                       -107.1918643995443574
  @DF-UKS Final Energy:  -107.20142697924969
    Total Energy =                       -107.2014269792496890
  @DF-UKS Final Energy:  -107.20722984635496
    Total Energy =                       -107.2072298463549771
  @DF-UKS Final Energy:  -107.21103514631776
    Total Energy =                       -107.2110351463177551
  @DF-UKS Final Energy:  -107.21375379170705
    Total Energy =                       -107.2137537917070631
  @DF-UKS Final Energy:  -107.21572988113505
    Total Energy =                       -107.2157298811350614
  @DF-UKS Final Energy:  -107.21703809240762
    Total Energy =                       -107.2170380924076198
  @DF-UKS Final Energy:  -107.21706674550865
    Total Energy =                       -107.2170667455086317
  @DF-UKS Final Energy:  -107.21785779155340
    Total Energy =                       -107.2178577915533992
  @DF-UKS Final Energy:  -107.21786668959975
    Total Energy =                       -107.2178666895997594
  @DF-UKS Final Energy:  -107.21823686335561
    Total Energy =                       -107.2182368633556138
  @DF-UKS Final Energy:  -107.21823922333122
    Total Energy =                       -107.2182392233312385
  @DF-UKS Final Energy:  -107.21824155402122
    Total Energy =                       -107.2182415540212190
  @DF-UKS Final Energy:  -107.21824385039334
    Total Energy =                       -107.2182438503933355
  @DF-UKS Final Energy:  -107.21840128341653
    Total Energy =                       -107.2184012834165401
  @DF-UKS Final Energy:  -107.21844449486917
    Total Energy =                       -107.2184444948691464
  @DF-UKS Final Energy:  -107.21846190698297
    Total Energy =                       -107.2184619069829665
  Basis Set: (CC-PVDZ AUX)
    Blend: CC-PVDZ-JKFIT + DEF2-UNIVERSAL-JKFIT
  Basis Set: CC-PVDZ
    Blend: CC-PVDZ
  Basis Set: (CC-PVDZ AUX)
    Blend: CC-PVDZ-JKFIT + DEF2-UNIVERSAL-JKFIT
  @DF-UKS Final Energy:  -107.21846302659361
    Total Energy =                       -107.2184630265936107
  Basis Set: CC-PVDZ
    Blend: CC-PVDZ
  Basis Set: (CC-PVDZ AUX)
    Blend: CC-PVDZ-JKFIT + DEF2-UNIVERSAL-JKFIT
  Charge       = 0
  Multiplicity = 3
  Basis Set: CC-PVDZ
    Blend: CC-PVDZ
  Basis Set: (CC-PVDZ AUX)
    Blend: CC-PVDZ-JKFIT + DEF2-UNIVERSAL-JKFIT

    Orbital Energies [Eh]
    ---------------------

    Alpha Occupied:

       1A1   -24.785659     2A1    -2.033139     3A1    -1.215080
       4A1    -0.542670     1B2    -0.452988     1B1    -0.452988
       5A1    -0.134926

    Alpha Virtual:

       2B1    -0.032417     2B2    -0.032417     6A1    -0.030647
       3B2     0.071030     3B1     0.071030     7A1     0.071221
       8A1     0.085054     4B1     0.217084     4B2     0.217084
       9A1     0.217378     1A2     0.217433    10A1     0.217433
      11A1     1.054360     5B2     1.091432     5B1     1.091432
      12A1     1.480316    13A1     3.435998     6B2     3.457305
       6B1     3.457305     2A2     3.526654    14A1     3.526993

    Beta Occupied:

       1A1   -24.754946     2A1    -2.025835     3A1    -1.124244
       1B2    -0.421597     1B1    -0.421597

    Beta Virtual:

       4A1    -0.250550     5A1    -0.054886     2B1     0.000698
       2B2     0.000698     6A1     0.002373     7A1     0.089002
       3B2     0.089188     3B1     0.089188     8A1     0.104652
       4B1     0.263932     4B2     0.263932     9A1     0.264297
      10A1     0.265683     1A2     0.265692     5B1     1.109306
       5B2     1.109306    11A1     1.164265    12A1     1.527455
       2A2     3.541899    13A1     3.542214     6B2     3.552362
       6B1     3.552362    14A1     3.572378

    Final Occupation by Irrep:
             A1    A2    B1    B2
    DOCC [     3,    0,    1,    1 ]
    SOCC [     2,    0,    0,    0 ]
    NA   [     5,    0,    1,    1 ]
    NB   [     3,    0,    1,    1 ]

  @DF-UKS Final Energy:  -107.21846331800847

   => Energetics <=

    Nuclear Repulsion Energy =              3.5954524513607011
    One-Electron Energy =                -156.1682236067334202
    Two-Electron Energy =                  55.2271896406404679
    DFT Exchange-Correlation Energy =      -9.8728818032762096
    Empirical Dispersion Energy =           0.0000000000000000
    VV10 Nonlocal Energy =                  0.0000000000000000
    Total Energy =                       -107.2184633180084745

  UHF NO Occupations:
  HONO-2 :    3 A1 1.9996833
  HONO-1 :    4 A1 1.0000000
  HONO-0 :    5 A1 1.0000000
  LUNO+0 :    6 A1 0.0003167
  LUNO+1 :    2 B2 0.0000585
  LUNO+2 :    2 B1 0.0000585
  LUNO+3 :    7 A1 0.0000002

Computation Completed

Properties will be evaluated at   0.000000,   0.000000,   0.000000 [a0]

Properties computed using the SCF density matrix

 Multipole Moments:

 ------------------------------------------------------------------------------------
     Multipole            Electronic (a.u.)      Nuclear  (a.u.)        Total (a.u.)
 ------------------------------------------------------------------------------------

 L = 1.  Multiply by 2.5417464519 to convert [e a0] to [Debye]
 Dipole X            :          0.0000000            0.0000000            0.0000000
 Dipole Y            :          0.0000000            0.0000000            0.0000000
 Dipole Z            :          1.7313541           -1.7749584           -0.0436043
 Magnitude           :                                                    0.0436043

 ------------------------------------------------------------------------------------

*** tstop() called on Joses-MacBook-Pro-2.local at Wed Jul 16 18:31:34 2025
Module time:
	user time   =       1.67 seconds =       0.03 minutes
	system time =       2.34 seconds =       0.04 minutes
	total time  =          1 seconds =       0.02 minutes
Total time:
	user time   =      76.22 seconds =       1.27 minutes
	system time =      91.60 seconds =       1.53 minutes
	total time  =         16 seconds =       0.27 minutes

*** tstart() called on Joses-MacBook-Pro-2.local
*** at Wed Jul 16 18:31:34 2025

         ------------------------------------------------------------
                                   SCF GRAD
                          Rob Parrish, Justin Turney,
                       Andy Simmonett, and Alex Sokolov
         ------------------------------------------------------------

  ==> Geometry <==

    Molecular point group: c2v
    Full point group: C_inf_v

    Geometry (in Angstrom), charge = 0, multiplicity = 3:

       Center              X                  Y                   Z               Mass
    ------------   -----------------  -----------------  -----------------  -----------------
         LI           0.000000000000     0.000000000000     2.902114364785     7.016003436600
         F            0.000000000000     0.000000000000    -1.071734512755    18.998403162730

  Nuclear repulsion =    3.595452451360701

  ==> Basis Set <==

  Basis Set: CC-PVDZ
    Blend: CC-PVDZ
    Number of shells: 12
    Number of basis functions: 28
    Number of Cartesian functions: 30
    Spherical Harmonics?: true
    Max angular momentum: 2

  ==> DFJKGrad: Density-Fitted SCF Gradients <==

    Gradient:                    1
    J tasked:                  Yes
    K tasked:                  Yes
    wK tasked:                  No
    OpenMP threads:              1
    Integrals threads:           1
    Memory [MiB]:              375
    Schwarz Cutoff:          1E-12
    Fitting Condition:       1E-10

   => Auxiliary Basis Set <=

  Basis Set: (CC-PVDZ AUX)
    Blend: CC-PVDZ-JKFIT + DEF2-UNIVERSAL-JKFIT
    Number of shells: 41
    Number of basis functions: 121
    Number of Cartesian functions: 141
    Spherical Harmonics?: true
    Max angular momentum: 3

  ==> DFT Potential <==

   => LibXC <=

    Version 6.2.2
    S. Lehtola, C. Steigemann, M. J.T. Oliveira, and M. A.L. Marques.,  SoftwareX 7, 1â€“5 (2018) (10.1016/j.softx.2017.11.002)

   => Composite Functional: B3LYP <=

    B3LYP Hyb-GGA Exchange-Correlation Functional

    P. J. Stephens, F. J. Devlin, C. F. Chabalowski, and M. J. Frisch.,  J. Phys. Chem. 98, 11623 (1994) (10.1021/j100096a001)

    Deriv               =              1
    GGA                 =           TRUE
    Meta                =          FALSE

    Exchange Hybrid     =           TRUE
    MP2 Hybrid          =          FALSE

   => Exchange Functionals <=

    0.0800   Slater exchange
    0.7200         Becke 88

   => Exact (HF) Exchange <=

    0.2000               HF

   => Correlation Functionals <=

    0.1900   Vosko, Wilk & Nusair (VWN5_RPA)
    0.8100   Lee, Yang & Parr

   => LibXC Density Thresholds  <==

    XC_HYB_GGA_XC_B3LYP:  1.00E-15

   => Molecular Quadrature <=

    Radial Scheme          =       TREUTLER
    Pruning Scheme         =           NONE
    Nuclear Scheme         =       TREUTLER

    Blocking Scheme        =         OCTREE
    BS radius alpha        =              1
    Pruning alpha          =              1
    Radial Points          =             75
    Spherical Points       =            302
    Total Points           =          44407
    Total Blocks           =            437
    Max Points             =            254
    Max Functions          =             28
    Weights Tolerance      =       1.00E-15

  -Total Gradient:
     Atom            X                  Y                   Z
    ------   -----------------  -----------------  -----------------
       1        0.000000000000    -0.000000000000    -0.000056273139
       2        0.000000000000     0.000000000000    -0.000055445911

*** tstop() called on Joses-MacBook-Pro-2.local at Wed Jul 16 18:31:34 2025
Module time:
	user time   =       0.38 seconds =       0.01 minutes
	system time =       1.11 seconds =       0.02 minutes
	total time  =          0 seconds =       0.00 minutes
Total time:
	user time   =      76.62 seconds =       1.28 minutes
	system time =      92.71 seconds =       1.55 minutes
	total time  =         16 seconds =       0.27 minutes

    			-----------------------------------------

    			 OPTKING 3.0: for geometry optimizations

    			     By R.A. King, Bethel University

    			        with contributions from

    			    A.V. Copan, J. Cayton, A. Heide

    			-----------------------------------------

	                            ===> Fragment 1 <==

	 Z (Atomic Numbers)          Masses                          Geom
	       3.000000             7.016003          0.00000000  0.00000000  5.48420133
	       9.000000            18.998403          0.00000000  0.00000000 -2.02528471

	 - Coordinate -           - BOHR/RAD -       - ANG/DEG -
	 R(1,2)           =         7.509486           3.973849

	        --- Internal Coordinate Step in ANG or DEG, aJ/ANG or AJ/DEG ---
	-------------------------------------------------------------------------------
	           Coordinate      Previous         Force          Change          New
	           ----------      --------        ------          ------        ------
	               R(1,2)       3.97385        0.00000        0.00063       3.97448
	-------------------------------------------------------------------------------

	                                 ==> Convergence Check <==

	Measures of convergence in internal coordinates in au.

	Criteria marked as inactive (o), active & met (*), and active & unmet ( ).

	----------------------------------------------------------------------------------------------
	   Step    Total Energy     Delta E     Max Force     RMS Force      Max Disp      RMS Disp
	----------------------------------------------------------------------------------------------
	  Convergence Criteria     1.00e-06 *    3.00e-04 *             o    1.20e-03 *             o
	----------------------------------------------------------------------------------------------
	    22    -107.21846332   -2.91e-07 *    4.14e-07 *    4.14e-07 o    1.20e-03 *    1.20e-03 o  ~
	----------------------------------------------------------------------------------------------

Next Geometry in Ang
	Fragment 1 (Ang)

	   Li   0.0000000000   0.0000000000   2.9024318131
	    F   0.0000000000   0.0000000000  -1.0720519611

    Final optimized geometry and variables:
    Molecular point group: c2v
    Full point group: C_inf_v

    Geometry (in Angstrom), charge = 0, multiplicity = 3:

    LI           0.000000000000     0.000000000000     2.902114364785
    F            0.000000000000     0.000000000000    -1.071734512755

    Psi4 stopped on: Wednesday, 16 July 2025 06:31PM
    Psi4 wall time for execution: 0:00:16.46

*** Psi4 exiting successfully. Buy a developer a beer!
