                               Psi4 1.9.1 release

  ==> Input File <==

--------------------------------------------------------------------------
molecule {
0 3
Be   0.00000        0.60000        0.00000
Mg   0.00000       -0.60000        0.00000
}

set {
basis              cc-pvdz
reference          uks
maxiter            500
geom_maxiter       500
DAMPING_PERCENTAGE 1
guess              SAP
}

optimize('b3lyp')
--------------------------------------------------------------------------

    Molecular point group: c2v
  Charge       = 0
  Multiplicity = 3
  Basis Set: CC-PVDZ
    Blend: CC-PVDZ
  Basis Set: (CC-PVDZ AUX)
    Blend: DEF2-UNIVERSAL-JKFIT
  @DF-UKS Final Energy:  -214.29440890321203
    Total Energy =                       -214.2944089032120587
 Dipole X            :          0.0000000            0.0000000            0.0000000
 Dipole Y            :          0.0000000            0.0000000            0.0000000
 Dipole Z            :          0.0357465           -0.8388361           -0.8030896
 Magnitude           :                                                    0.8030896
    Molecular point group: c2v
  Basis Set: CC-PVDZ
    Blend: CC-PVDZ
  Basis Set: (CC-PVDZ AUX)
    Blend: DEF2-UNIVERSAL-JKFIT
  Basis Set: CC-PVDZ
    Blend: CC-PVDZ
  Basis Set: (CC-PVDZ AUX)
    Blend: DEF2-UNIVERSAL-JKFIT
  @DF-UKS Final Energy:  -214.37413326615965
    Total Energy =                       -214.3741332661596175
  Basis Set: CC-PVDZ
    Blend: CC-PVDZ
  Basis Set: (CC-PVDZ AUX)
    Blend: DEF2-UNIVERSAL-JKFIT
  Basis Set: CC-PVDZ
    Blend: CC-PVDZ
  @DF-UKS Final Energy:  -214.46883626722064
    Total Energy =                       -214.4688362672206381
  @DF-UKS Final Energy:  -214.58062738945509
    Total Energy =                       -214.5806273894550884
  @DF-UKS Final Energy:  -214.63166693062388
    Total Energy =                       -214.6316669306238509
  @DF-UKS Final Energy:  -214.64832631820366
    Total Energy =                       -214.6483263182036580
  @DF-UKS Final Energy:  -214.70547415573466
    Total Energy =                       -214.7054741557346631
  @DF-UKS Final Energy:  -214.71686030448134
    Total Energy =                       -214.7168603044813437
  @DF-UKS Final Energy:  -214.71725178074422
    Total Energy =                       -214.7172517807442205
  Basis Set: (CC-PVDZ AUX)
    Blend: DEF2-UNIVERSAL-JKFIT
  Basis Set: CC-PVDZ
    Blend: CC-PVDZ
  Basis Set: (CC-PVDZ AUX)
    Blend: DEF2-UNIVERSAL-JKFIT
  @DF-UKS Final Energy:  -214.71731882499267
    Total Energy =                       -214.7173188249926739
  Basis Set: CC-PVDZ
    Blend: CC-PVDZ
  Basis Set: (CC-PVDZ AUX)
    Blend: DEF2-UNIVERSAL-JKFIT
  Charge       = 0
  Multiplicity = 3
  Basis Set: CC-PVDZ
    Blend: CC-PVDZ
  Basis Set: (CC-PVDZ AUX)
    Blend: DEF2-UNIVERSAL-JKFIT

    Orbital Energies [Eh]
    ---------------------

    Alpha Occupied:

       1A1   -46.849080     2A1    -4.068318     3A1    -3.130470
       1B2    -1.874652     1B1    -1.873438     4A1    -1.873115
       5A1    -0.285173     6A1    -0.190937     2B1    -0.128159

    Alpha Virtual:

       2B2    -0.075439     7A1    -0.074668     3B1    -0.020102
       3B2    -0.008020     8A1     0.041238     9A1     0.093487
       4B1     0.142262     4B2     0.146576    10A1     0.165028
       5B1     0.208659    11A1     0.211649     5B2     0.220417
       1A2     0.288620    12A1     0.290035     6B1     0.301927
       6B2     0.308741    13A1     0.330370     2A2     0.486584
      14A1     0.490943    15A1     0.526336     7B1     0.621527
       7B2     0.629524    16A1     0.801470

    Beta Occupied:

       1A1   -46.847303     2A1    -4.059159     3A1    -3.127412
       1B2    -1.872793     4A1    -1.871055     1B1    -1.869871
       5A1    -0.257873

    Beta Virtual:

       6A1    -0.108419     2B2    -0.063209     2B1    -0.048246
       7A1    -0.040205     3B2     0.012711     3B1     0.024973
       8A1     0.050040     9A1     0.108003     4B2     0.152158
       4B1     0.160223    10A1     0.179097     5B2     0.229510
      11A1     0.239988     5B1     0.242797     1A2     0.314609
      12A1     0.314795     6B2     0.326257     6B1     0.338989
      13A1     0.346481    14A1     0.531251     2A2     0.532189
      15A1     0.549569     7B2     0.652843     7B1     0.669521
      16A1     0.824123

    Final Occupation by Irrep:
             A1    A2    B1    B2
    DOCC [     5,    0,    1,    1 ]
    SOCC [     1,    0,    1,    0 ]
    NA   [     6,    0,    2,    1 ]
    NB   [     5,    0,    1,    1 ]

  @DF-UKS Final Energy:  -214.71731958911769

   => Energetics <=

    Nuclear Repulsion Energy =             10.5970545861261591
    One-Electron Energy =                -319.3285723782603895
    Two-Electron Energy =                 109.5585350270128231
    DFT Exchange-Correlation Energy =     -15.5443368239962734
    Empirical Dispersion Energy =           0.0000000000000000
    VV10 Nonlocal Energy =                  0.0000000000000000
    Total Energy =                       -214.7173195891176931

  UHF NO Occupations:
  HONO-2 :    5 A1 1.9868640
  HONO-1 :    6 A1 1.0000000
  HONO-0 :    2 B1 1.0000000
  LUNO+0 :    7 A1 0.0131360
  LUNO+1 :    8 A1 0.0000005
  LUNO+2 :    2 B2 0.0000005
  LUNO+3 :    3 B1 0.0000004

Computation Completed

Properties will be evaluated at   0.000000,   0.000000,   0.000000 [a0]

Properties computed using the SCF density matrix

 Multipole Moments:

 ------------------------------------------------------------------------------------
     Multipole            Electronic (a.u.)      Nuclear  (a.u.)        Total (a.u.)
 ------------------------------------------------------------------------------------

 L = 1.  Multiply by 2.5417464519 to convert [e a0] to [Debye]
 Dipole X            :          0.0000000            0.0000000            0.0000000
 Dipole Y            :          0.0000000            0.0000000            0.0000000
 Dipole Z            :          1.0225277           -1.6755334           -0.6530057
 Magnitude           :                                                    0.6530057

 ------------------------------------------------------------------------------------

*** tstop() called on Joses-MacBook-Pro-2.local at Wed Jul 16 18:43:28 2025
Module time:
	user time   =       2.79 seconds =       0.05 minutes
	system time =       2.71 seconds =       0.05 minutes
	total time  =          1 seconds =       0.02 minutes
Total time:
	user time   =      60.60 seconds =       1.01 minutes
	system time =      60.47 seconds =       1.01 minutes
	total time  =         12 seconds =       0.20 minutes

*** tstart() called on Joses-MacBook-Pro-2.local
*** at Wed Jul 16 18:43:28 2025

         ------------------------------------------------------------
                                   SCF GRAD
                          Rob Parrish, Justin Turney,
                       Andy Simmonett, and Alex Sokolov
         ------------------------------------------------------------

  ==> Geometry <==

    Molecular point group: c2v
    Full point group: C_inf_v

    Geometry (in Angstrom), charge = 0, multiplicity = 3:

       Center              X                  Y                   Z               Mass
    ------------   -----------------  -----------------  -----------------  -----------------
         BE           0.000000000000     0.000000000000     1.742289268141     9.012183065000
         MG           0.000000000000     0.000000000000    -0.654650929318    23.985041697000

  Nuclear repulsion =   10.597054586126159

  ==> Basis Set <==

  Basis Set: CC-PVDZ
    Blend: CC-PVDZ
    Number of shells: 14
    Number of basis functions: 32
    Number of Cartesian functions: 34
    Spherical Harmonics?: true
    Max angular momentum: 2

  ==> DFJKGrad: Density-Fitted SCF Gradients <==

    Gradient:                    1
    J tasked:                  Yes
    K tasked:                  Yes
    wK tasked:                  No
    OpenMP threads:              1
    Integrals threads:           1
    Memory [MiB]:              375
    Schwarz Cutoff:          1E-12
    Fitting Condition:       1E-10

   => Auxiliary Basis Set <=

  Basis Set: (CC-PVDZ AUX)
    Blend: DEF2-UNIVERSAL-JKFIT
    Number of shells: 51
    Number of basis functions: 163
    Number of Cartesian functions: 197
    Spherical Harmonics?: true
    Max angular momentum: 4

  ==> DFT Potential <==

   => LibXC <=

    Version 6.2.2
    S. Lehtola, C. Steigemann, M. J.T. Oliveira, and M. A.L. Marques.,  SoftwareX 7, 1â€“5 (2018) (10.1016/j.softx.2017.11.002)

   => Composite Functional: B3LYP <=

    B3LYP Hyb-GGA Exchange-Correlation Functional

    P. J. Stephens, F. J. Devlin, C. F. Chabalowski, and M. J. Frisch.,  J. Phys. Chem. 98, 11623 (1994) (10.1021/j100096a001)

    Deriv               =              1
    GGA                 =           TRUE
    Meta                =          FALSE

    Exchange Hybrid     =           TRUE
    MP2 Hybrid          =          FALSE

   => Exchange Functionals <=

    0.0800   Slater exchange
    0.7200         Becke 88

   => Exact (HF) Exchange <=

    0.2000               HF

   => Correlation Functionals <=

    0.1900   Vosko, Wilk & Nusair (VWN5_RPA)
    0.8100   Lee, Yang & Parr

   => LibXC Density Thresholds  <==

    XC_HYB_GGA_XC_B3LYP:  1.00E-15

   => Molecular Quadrature <=

    Radial Scheme          =       TREUTLER
    Pruning Scheme         =           NONE
    Nuclear Scheme         =       TREUTLER

    Blocking Scheme        =         OCTREE
    BS radius alpha        =              1
    Pruning alpha          =              1
    Radial Points          =             75
    Spherical Points       =            302
    Total Points           =          42962
    Total Blocks           =            418
    Max Points             =            254
    Max Functions          =             32
    Weights Tolerance      =       1.00E-15

  -Total Gradient:
     Atom            X                  Y                   Z
    ------   -----------------  -----------------  -----------------
       1        0.000000000000     0.000000000000    -0.000032074975
       2       -0.000000000000    -0.000000000000     0.000026322275

*** tstop() called on Joses-MacBook-Pro-2.local at Wed Jul 16 18:43:28 2025
Module time:
	user time   =       1.20 seconds =       0.02 minutes
	system time =       1.55 seconds =       0.03 minutes
	total time  =          0 seconds =       0.00 minutes
Total time:
	user time   =      61.80 seconds =       1.03 minutes
	system time =      62.02 seconds =       1.03 minutes
	total time  =         12 seconds =       0.20 minutes

    			-----------------------------------------

    			 OPTKING 3.0: for geometry optimizations

    			     By R.A. King, Bethel University

    			        with contributions from

    			    A.V. Copan, J. Cayton, A. Heide

    			-----------------------------------------

	                            ===> Fragment 1 <==

	 Z (Atomic Numbers)          Masses                          Geom
	       4.000000             9.012183          0.00000000  0.00000000  3.29244955
	      12.000000            23.985042          0.00000000  0.00000000 -1.23711096

	 - Coordinate -           - BOHR/RAD -       - ANG/DEG -
	 R(1,2)           =         4.529561           2.396940

	        --- Internal Coordinate Step in ANG or DEG, aJ/ANG or AJ/DEG ---
	-------------------------------------------------------------------------------
	           Coordinate      Previous         Force          Change          New
	           ----------      --------        ------          ------        ------
	               R(1,2)       2.39694        0.00024        0.00030       2.39724
	-------------------------------------------------------------------------------

	                                 ==> Convergence Check <==

	Measures of convergence in internal coordinates in au.

	Criteria marked as inactive (o), active & met (*), and active & unmet ( ).

	----------------------------------------------------------------------------------------------
	   Step    Total Energy     Delta E     Max Force     RMS Force      Max Disp      RMS Disp
	----------------------------------------------------------------------------------------------
	  Convergence Criteria     1.00e-06 *    3.00e-04 *             o    1.20e-03 *             o
	----------------------------------------------------------------------------------------------
	    11    -214.71731959   -7.64e-07 *    2.92e-05 *    2.92e-05 o    5.66e-04 *    5.66e-04 o  ~
	----------------------------------------------------------------------------------------------

Next Geometry in Ang
	Fragment 1 (Ang)

	   Be   0.0000000000   0.0000000000   1.7424391085
	   Mg   0.0000000000   0.0000000000  -0.6548007696

    Final optimized geometry and variables:
    Molecular point group: c2v
    Full point group: C_inf_v

    Geometry (in Angstrom), charge = 0, multiplicity = 3:

    BE           0.000000000000     0.000000000000     1.742289268141
    MG           0.000000000000     0.000000000000    -0.654650929318

    Psi4 stopped on: Wednesday, 16 July 2025 06:43PM
    Psi4 wall time for execution: 0:00:12.76

*** Psi4 exiting successfully. Buy a developer a beer!
