                               Psi4 1.9.1 release

  ==> Input File <==

--------------------------------------------------------------------------
molecule {
0 3
Si   0.00000        0.60000        0.00000
S   0.00000       -0.60000        0.00000
}

set {
basis              cc-pvdz
reference          uks
maxiter            500
geom_maxiter       500
DAMPING_PERCENTAGE 1
guess              SAP
}

optimize('b3lyp')
--------------------------------------------------------------------------

    Molecular point group: c2v
  Charge       = 0
  Multiplicity = 3
  Basis Set: CC-PVDZ
    Blend: CC-PVDZ
  Basis Set: (CC-PVDZ AUX)
    Blend: CC-PVDZ-JKFIT
  @DF-UKS Final Energy:  -686.43415016653898
    Total Energy =                       -686.4341501665389842
 Dipole X            :          0.0000000            0.0000000            0.0000000
 Dipole Y            :          0.0000000            0.0000000            0.0000000
 Dipole Z            :         -0.1809653           -0.0008257           -0.1817910
 Magnitude           :                                                    0.1817910
    Molecular point group: c2v
  Basis Set: CC-PVDZ
    Blend: CC-PVDZ
  Basis Set: (CC-PVDZ AUX)
    Blend: CC-PVDZ-JKFIT
  Basis Set: CC-PVDZ
    Blend: CC-PVDZ
  Basis Set: (CC-PVDZ AUX)
    Blend: CC-PVDZ-JKFIT
  @DF-UKS Final Energy:  -686.46705997804145
    Total Energy =                       -686.4670599780413340
  Basis Set: CC-PVDZ
    Blend: CC-PVDZ
  Basis Set: (CC-PVDZ AUX)
    Blend: CC-PVDZ-JKFIT
  Basis Set: CC-PVDZ
    Blend: CC-PVDZ
  @DF-UKS Final Energy:  -686.52915708206706
    Total Energy =                       -686.5291570820670586
  @DF-UKS Final Energy:  -686.73994167931778
    Total Energy =                       -686.7399416793178943
  @DF-UKS Final Energy:  -687.29728216342801
    Total Energy =                       -687.2972821634278944
  @DF-UKS Final Energy:  -687.47089880717783
    Total Energy =                       -687.4708988071778322
  @DF-UKS Final Energy:  -687.56328122750620
    Total Energy =                       -687.5632812275061951
  @DF-UKS Final Energy:  -687.59727357390659
    Total Energy =                       -687.5972735739065911
  @DF-UKS Final Energy:  -687.60643496796774
    Total Energy =                       -687.6064349679677434
  @DF-UKS Final Energy:  -687.61026756693923
    Total Energy =                       -687.6102675669392283
  @DF-UKS Final Energy:  -687.61111971419621
    Total Energy =                       -687.6111197141962066
  @DF-UKS Final Energy:  -687.61133516191194
    Total Energy =                       -687.6113351619119385
  @DF-UKS Final Energy:  -687.61140535840877
    Total Energy =                       -687.6114053584086605
  Basis Set: (CC-PVDZ AUX)
    Blend: CC-PVDZ-JKFIT
  Basis Set: CC-PVDZ
    Blend: CC-PVDZ
  Basis Set: (CC-PVDZ AUX)
    Blend: CC-PVDZ-JKFIT
  @DF-UKS Final Energy:  -687.61141549218303
    Total Energy =                       -687.6114154921830277
  Basis Set: CC-PVDZ
    Blend: CC-PVDZ
  Basis Set: (CC-PVDZ AUX)
    Blend: CC-PVDZ-JKFIT
  Charge       = 0
  Multiplicity = 3
  Basis Set: CC-PVDZ
    Blend: CC-PVDZ
  Basis Set: (CC-PVDZ AUX)
    Blend: CC-PVDZ-JKFIT

    Orbital Energies [Eh]
    ---------------------

    Alpha Occupied:

       1A1   -88.890860     2A1   -66.205612     3A1    -7.952310
       4A1    -5.920873     1B2    -5.910106     1B1    -5.908041
       5A1    -5.348006     6A1    -3.708534     2B2    -3.707557
       2B1    -3.704431     7A1    -0.724129     8A1    -0.477558
       9A1    -0.330118     3B1    -0.298025     3B2    -0.292382
       4B1    -0.171661

    Alpha Virtual:

       4B2    -0.114006    10A1     0.016361    11A1     0.205003
      12A1     0.253923     5B1     0.270388     5B2     0.271768
       6B1     0.316486     1A2     0.318779     6B2     0.321661
      13A1     0.321779    14A1     0.368703     7B2     0.517145
       7B1     0.519292     2A2     0.617870    15A1     0.618184
      16A1     0.623287    17A1     0.692952     8B2     0.763020
       8B1     0.763276    18A1     1.109463

    Beta Occupied:

       1A1   -88.887179     2A1   -66.200210     3A1    -7.948612
       4A1    -5.911132     1B2    -5.908308     1B1    -5.902737
       5A1    -5.341486     2B2    -3.703666     6A1    -3.699788
       2B1    -3.692347     7A1    -0.694814     8A1    -0.418915
       3B2    -0.284945     3B1    -0.269300

    Beta Virtual:

       9A1    -0.218346     4B2    -0.090695     4B1    -0.064698
      10A1     0.046982    11A1     0.221512     5B2     0.281487
      12A1     0.287920     5B1     0.299993     6B2     0.352705
      13A1     0.361806     1A2     0.362785     6B1     0.374892
      14A1     0.399885     7B2     0.521206     7B1     0.531742
      15A1     0.631397     2A2     0.631619    16A1     0.650239
      17A1     0.717135     8B2     0.786230     8B1     0.801936
      18A1     1.131675

    Final Occupation by Irrep:
             A1    A2    B1    B2
    DOCC [     8,    0,    3,    3 ]
    SOCC [     1,    0,    1,    0 ]
    NA   [     9,    0,    4,    3 ]
    NB   [     8,    0,    3,    3 ]

  @DF-UKS Final Energy:  -687.61141615999190

   => Energetics <=

    Nuclear Repulsion Energy =             58.0853122375939108
    One-Electron Energy =               -1066.2937454287364289
    Two-Electron Energy =                 358.0889756787054807
    DFT Exchange-Correlation Energy =     -37.4919586475549309
    Empirical Dispersion Energy =           0.0000000000000000
    VV10 Nonlocal Energy =                  0.0000000000000000
    Total Energy =                       -687.6114161599920180

  UHF NO Occupations:
  HONO-2 :    8 A1 1.9982045
  HONO-1 :    4 B1 1.0000000
  HONO-0 :    9 A1 1.0000000
  LUNO+0 :   10 A1 0.0017955
  LUNO+1 :    4 B2 0.0005976
  LUNO+2 :    5 B1 0.0005930
  LUNO+3 :   11 A1 0.0002319

Computation Completed

Properties will be evaluated at   0.000000,   0.000000,   0.000000 [a0]

Properties computed using the SCF density matrix

 Multipole Moments:

 ------------------------------------------------------------------------------------
     Multipole            Electronic (a.u.)      Nuclear  (a.u.)        Total (a.u.)
 ------------------------------------------------------------------------------------

 L = 1.  Multiply by 2.5417464519 to convert [e a0] to [Debye]
 Dipole X            :          0.0000000            0.0000000            0.0000000
 Dipole Y            :          0.0000000            0.0000000            0.0000000
 Dipole Z            :          0.7479949           -0.0014042            0.7465907
 Magnitude           :                                                    0.7465907

 ------------------------------------------------------------------------------------

*** tstop() called on Joses-MacBook-Pro-2.local at Wed Jul 16 20:16:30 2025
Module time:
	user time   =       7.25 seconds =       0.12 minutes
	system time =       2.05 seconds =       0.03 minutes
	total time  =          1 seconds =       0.02 minutes
Total time:
	user time   =     418.26 seconds =       6.97 minutes
	system time =      61.49 seconds =       1.02 minutes
	total time  =         48 seconds =       0.80 minutes

*** tstart() called on Joses-MacBook-Pro-2.local
*** at Wed Jul 16 20:16:30 2025

         ------------------------------------------------------------
                                   SCF GRAD
                          Rob Parrish, Justin Turney,
                       Andy Simmonett, and Alex Sokolov
         ------------------------------------------------------------

  ==> Geometry <==

    Molecular point group: c2v
    Full point group: C_inf_v

    Geometry (in Angstrom), charge = 0, multiplicity = 3:

       Center              X                  Y                   Z               Mass
    ------------   -----------------  -----------------  -----------------  -----------------
         SI           0.000000000000     0.000000000000     1.088357733241    27.976926534650
         S            0.000000000000     0.000000000000    -0.952359457109    31.972071174400

  Nuclear repulsion =   58.085312237593911

  ==> Basis Set <==

  Basis Set: CC-PVDZ
    Blend: CC-PVDZ
    Number of shells: 16
    Number of basis functions: 36
    Number of Cartesian functions: 38
    Spherical Harmonics?: true
    Max angular momentum: 2

  ==> DFJKGrad: Density-Fitted SCF Gradients <==

    Gradient:                    1
    J tasked:                  Yes
    K tasked:                  Yes
    wK tasked:                  No
    OpenMP threads:              1
    Integrals threads:           1
    Memory [MiB]:              375
    Schwarz Cutoff:          1E-12
    Fitting Condition:       1E-10

   => Auxiliary Basis Set <=

  Basis Set: (CC-PVDZ AUX)
    Blend: CC-PVDZ-JKFIT
    Number of shells: 72
    Number of basis functions: 224
    Number of Cartesian functions: 260
    Spherical Harmonics?: true
    Max angular momentum: 3

  ==> DFT Potential <==

   => LibXC <=

    Version 6.2.2
    S. Lehtola, C. Steigemann, M. J.T. Oliveira, and M. A.L. Marques.,  SoftwareX 7, 1â€“5 (2018) (10.1016/j.softx.2017.11.002)

   => Composite Functional: B3LYP <=

    B3LYP Hyb-GGA Exchange-Correlation Functional

    P. J. Stephens, F. J. Devlin, C. F. Chabalowski, and M. J. Frisch.,  J. Phys. Chem. 98, 11623 (1994) (10.1021/j100096a001)

    Deriv               =              1
    GGA                 =           TRUE
    Meta                =          FALSE

    Exchange Hybrid     =           TRUE
    MP2 Hybrid          =          FALSE

   => Exchange Functionals <=

    0.0800   Slater exchange
    0.7200         Becke 88

   => Exact (HF) Exchange <=

    0.2000               HF

   => Correlation Functionals <=

    0.1900   Vosko, Wilk & Nusair (VWN5_RPA)
    0.8100   Lee, Yang & Parr

   => LibXC Density Thresholds  <==

    XC_HYB_GGA_XC_B3LYP:  1.00E-15

   => Molecular Quadrature <=

    Radial Scheme          =       TREUTLER
    Pruning Scheme         =           NONE
    Nuclear Scheme         =       TREUTLER

    Blocking Scheme        =         OCTREE
    BS radius alpha        =              1
    Pruning alpha          =              1
    Radial Points          =             75
    Spherical Points       =            302
    Total Points           =          41591
    Total Blocks           =            383
    Max Points             =            255
    Max Functions          =             36
    Weights Tolerance      =       1.00E-15

  -Total Gradient:
     Atom            X                  Y                   Z
    ------   -----------------  -----------------  -----------------
       1        0.000000000000    -0.000000000000    -0.000061581203
       2       -0.000000000000    -0.000000000000     0.000078846451

*** tstop() called on Joses-MacBook-Pro-2.local at Wed Jul 16 20:16:30 2025
Module time:
	user time   =       2.40 seconds =       0.04 minutes
	system time =       1.04 seconds =       0.02 minutes
	total time  =          0 seconds =       0.00 minutes
Total time:
	user time   =     420.66 seconds =       7.01 minutes
	system time =      62.53 seconds =       1.04 minutes
	total time  =         48 seconds =       0.80 minutes

    			-----------------------------------------

    			 OPTKING 3.0: for geometry optimizations

    			     By R.A. King, Bethel University

    			        with contributions from

    			    A.V. Copan, J. Cayton, A. Heide

    			-----------------------------------------

	                            ===> Fragment 1 <==

	 Z (Atomic Numbers)          Masses                          Geom
	      14.000000            27.976927          0.00000000  0.00000000  2.05669804
	      16.000000            31.972071          0.00000000  0.00000000 -1.79969855

	 - Coordinate -           - BOHR/RAD -       - ANG/DEG -
	 R(1,2)           =         3.856397           2.040717

	        --- Internal Coordinate Step in ANG or DEG, aJ/ANG or AJ/DEG ---
	-------------------------------------------------------------------------------
	           Coordinate      Previous         Force          Change          New
	           ----------      --------        ------          ------        ------
	               R(1,2)       2.04072        0.00058        0.00018       2.04090
	-------------------------------------------------------------------------------

	                                 ==> Convergence Check <==

	Measures of convergence in internal coordinates in au.

	Criteria marked as inactive (o), active & met (*), and active & unmet ( ).

	----------------------------------------------------------------------------------------------
	   Step    Total Energy     Delta E     Max Force     RMS Force      Max Disp      RMS Disp
	----------------------------------------------------------------------------------------------
	  Convergence Criteria     1.00e-06 *    3.00e-04 *             o    1.20e-03 *             o
	----------------------------------------------------------------------------------------------
	    15    -687.61141616   -6.68e-07 *    7.02e-05 *    7.02e-05 o    3.47e-04 *    3.47e-04 o  ~
	----------------------------------------------------------------------------------------------

Next Geometry in Ang
	Fragment 1 (Ang)

	   Si   0.0000000000   0.0000000000   1.0884496494
	    S   0.0000000000   0.0000000000  -0.9524513732

    Final optimized geometry and variables:
    Molecular point group: c2v
    Full point group: C_inf_v

    Geometry (in Angstrom), charge = 0, multiplicity = 3:

    SI           0.000000000000     0.000000000000     1.088357733241
    S            0.000000000000     0.000000000000    -0.952359457109

    Psi4 stopped on: Wednesday, 16 July 2025 08:16PM
    Psi4 wall time for execution: 0:00:49.25

*** Psi4 exiting successfully. Buy a developer a beer!
