                               Psi4 1.9.1 release

  ==> Input File <==

--------------------------------------------------------------------------
molecule {
0 3
C   0.00000        0.60000        0.00000
Ne   0.00000       -0.60000        0.00000
}

set {
basis              cc-pvdz
reference          uks
maxiter            500
geom_maxiter       500
DAMPING_PERCENTAGE 1
guess              SAP
}

optimize('b3lyp')
--------------------------------------------------------------------------

    Molecular point group: c2v
  Charge       = 0
  Multiplicity = 3
  Basis Set: CC-PVDZ
    Blend: CC-PVDZ
  Basis Set: (CC-PVDZ AUX)
    Blend: CC-PVDZ-JKFIT
  @DF-UKS Final Energy:  -166.57161912324744
    Total Energy =                       -166.5716191232474443
 Dipole X            :          0.0000000            0.0000000            0.0000000
 Dipole Y            :          0.0000000            0.0000000            0.0000000
 Dipole Z            :         -1.4493229           -0.0032151           -1.4525380
 Magnitude           :                                                    1.4525380
    Molecular point group: c2v
  Basis Set: CC-PVDZ
    Blend: CC-PVDZ
  Basis Set: (CC-PVDZ AUX)
    Blend: CC-PVDZ-JKFIT
  Basis Set: CC-PVDZ
    Blend: CC-PVDZ
  Basis Set: (CC-PVDZ AUX)
    Blend: CC-PVDZ-JKFIT
  @DF-UKS Final Energy:  -166.66827749464787
    Total Energy =                       -166.6682774946478389
  Basis Set: CC-PVDZ
    Blend: CC-PVDZ
  Basis Set: (CC-PVDZ AUX)
    Blend: CC-PVDZ-JKFIT
  Basis Set: CC-PVDZ
    Blend: CC-PVDZ
  @DF-UKS Final Energy:  -166.71377327681446
    Total Energy =                       -166.7137732768144645
  @DF-UKS Final Energy:  -166.74126693793281
    Total Energy =                       -166.7412669379328065
  @DF-UKS Final Energy:  -166.75429565650390
    Total Energy =                       -166.7542956565038992
  @DF-UKS Final Energy:  -166.76047327454194
    Total Energy =                       -166.7604732745419369
  @DF-UKS Final Energy:  -166.76325974056823
    Total Energy =                       -166.7632597405682020
  @DF-UKS Final Energy:  -166.76437866905238
    Total Energy =                       -166.7643786690523768
  @DF-UKS Final Energy:  -166.76472417382377
    Total Energy =                       -166.7647241738237653
  @DF-UKS Final Energy:  -166.76478167117725
    Total Energy =                       -166.7647816711772464
  @DF-UKS Final Energy:  -166.76479257592683
    Total Energy =                       -166.7647925759268617
  Basis Set: (CC-PVDZ AUX)
    Blend: CC-PVDZ-JKFIT
  Basis Set: CC-PVDZ
    Blend: CC-PVDZ
  Basis Set: (CC-PVDZ AUX)
    Blend: CC-PVDZ-JKFIT
  @DF-UKS Final Energy:  -166.76479513634069
    Total Energy =                       -166.7647951363406946
  Basis Set: CC-PVDZ
    Blend: CC-PVDZ
  Basis Set: (CC-PVDZ AUX)
    Blend: CC-PVDZ-JKFIT
  Charge       = 0
  Multiplicity = 3
  Basis Set: CC-PVDZ
    Blend: CC-PVDZ
  Basis Set: (CC-PVDZ AUX)
    Blend: CC-PVDZ-JKFIT

    Orbital Energies [Eh]
    ---------------------

    Alpha Occupied:

       1A1   -30.988406     2A1   -10.301718     3A1    -1.451311
       4A1    -0.591328     1B2    -0.558519     1B1    -0.558519
       5A1    -0.549464     2B1    -0.255772     2B2    -0.255772

    Alpha Virtual:

       6A1    -0.136253     3B2     0.452253     3B1     0.452253
       7A1     0.497945     8A1     0.551302     9A1     1.088923
      10A1     1.117723     1A2     1.117724     4B1     1.119901
       4B2     1.119901     5B1     1.358790     5B2     1.358790
      11A1     1.482525    12A1     1.939561     6B2     4.705579
       6B1     4.705579     2A2     4.706878    13A1     4.706892
      14A1     4.709144

    Beta Occupied:

       1A1   -30.988372     2A1   -10.273967     3A1    -1.451282
       4A1    -0.567296     1B2    -0.558301     1B1    -0.558301
       5A1    -0.463517

    Beta Virtual:

       6A1    -0.104517     2B1    -0.063278     2B2    -0.063278
       7A1     0.515788     3B2     0.530503     3B1     0.530503
       8A1     0.603678     9A1     1.124908     4B1     1.187049
       4B2     1.187049    10A1     1.232893     1A2     1.232895
       5B1     1.361501     5B2     1.361501    11A1     1.488957
      12A1     1.943147     6B2     4.705558     6B1     4.705558
       2A2     4.707041    13A1     4.707054    14A1     4.709087

    Final Occupation by Irrep:
             A1    A2    B1    B2
    DOCC [     5,    0,    1,    1 ]
    SOCC [     0,    0,    1,    1 ]
    NA   [     5,    0,    2,    2 ]
    NB   [     5,    0,    1,    1 ]

  @DF-UKS Final Energy:  -166.76479533987688

   => Energetics <=

    Nuclear Repulsion Energy =             12.8113974509285349
    One-Electron Energy =                -258.4914354906463814
    Two-Electron Energy =                  93.2532137308352134
    DFT Exchange-Correlation Energy =     -14.3379710309942627
    Empirical Dispersion Energy =           0.0000000000000000
    VV10 Nonlocal Energy =                  0.0000000000000000
    Total Energy =                       -166.7647953398769118

  UHF NO Occupations:
  HONO-2 :    5 A1 1.9987580
  HONO-1 :    2 B1 1.0000000
  HONO-0 :    2 B2 1.0000000
  LUNO+0 :    6 A1 0.0012420
  LUNO+1 :    7 A1 0.0000108
  LUNO+2 :    3 B2 0.0000001
  LUNO+3 :    3 B1 0.0000001

Computation Completed

Properties will be evaluated at   0.000000,   0.000000,   0.000000 [a0]

Properties computed using the SCF density matrix

 Multipole Moments:

 ------------------------------------------------------------------------------------
     Multipole            Electronic (a.u.)      Nuclear  (a.u.)        Total (a.u.)
 ------------------------------------------------------------------------------------

 L = 1.  Multiply by 2.5417464519 to convert [e a0] to [Debye]
 Dipole X            :          0.0000000            0.0000000            0.0000000
 Dipole Y            :          0.0000000            0.0000000            0.0000000
 Dipole Z            :         -0.1162313           -0.0066400           -0.1228713
 Magnitude           :                                                    0.1228713

 ------------------------------------------------------------------------------------

*** tstop() called on Joses-MacBook-Pro-2.local at Wed Jul 16 19:00:51 2025
Module time:
	user time   =       2.39 seconds =       0.04 minutes
	system time =       2.74 seconds =       0.05 minutes
	total time  =          1 seconds =       0.02 minutes
Total time:
	user time   =      53.90 seconds =       0.90 minutes
	system time =      60.59 seconds =       1.01 minutes
	total time  =         11 seconds =       0.18 minutes

*** tstart() called on Joses-MacBook-Pro-2.local
*** at Wed Jul 16 19:00:51 2025

         ------------------------------------------------------------
                                   SCF GRAD
                          Rob Parrish, Justin Turney,
                       Andy Simmonett, and Alex Sokolov
         ------------------------------------------------------------

  ==> Geometry <==

    Molecular point group: c2v
    Full point group: C_inf_v

    Geometry (in Angstrom), charge = 0, multiplicity = 3:

       Center              X                  Y                   Z               Mass
    ------------   -----------------  -----------------  -----------------  -----------------
         C            0.000000000000     0.000000000000     1.548725029365    12.000000000000
         NE           0.000000000000     0.000000000000    -0.929586393086    19.992440176200

  Nuclear repulsion =   12.811397450928535

  ==> Basis Set <==

  Basis Set: CC-PVDZ
    Blend: CC-PVDZ
    Number of shells: 12
    Number of basis functions: 28
    Number of Cartesian functions: 30
    Spherical Harmonics?: true
    Max angular momentum: 2

  ==> DFJKGrad: Density-Fitted SCF Gradients <==

    Gradient:                    1
    J tasked:                  Yes
    K tasked:                  Yes
    wK tasked:                  No
    OpenMP threads:              1
    Integrals threads:           1
    Memory [MiB]:              375
    Schwarz Cutoff:          1E-12
    Fitting Condition:       1E-10

   => Auxiliary Basis Set <=

  Basis Set: (CC-PVDZ AUX)
    Blend: CC-PVDZ-JKFIT
    Number of shells: 48
    Number of basis functions: 140
    Number of Cartesian functions: 162
    Spherical Harmonics?: true
    Max angular momentum: 3

  ==> DFT Potential <==

   => LibXC <=

    Version 6.2.2
    S. Lehtola, C. Steigemann, M. J.T. Oliveira, and M. A.L. Marques.,  SoftwareX 7, 1â€“5 (2018) (10.1016/j.softx.2017.11.002)

   => Composite Functional: B3LYP <=

    B3LYP Hyb-GGA Exchange-Correlation Functional

    P. J. Stephens, F. J. Devlin, C. F. Chabalowski, and M. J. Frisch.,  J. Phys. Chem. 98, 11623 (1994) (10.1021/j100096a001)

    Deriv               =              1
    GGA                 =           TRUE
    Meta                =          FALSE

    Exchange Hybrid     =           TRUE
    MP2 Hybrid          =          FALSE

   => Exchange Functionals <=

    0.0800   Slater exchange
    0.7200         Becke 88

   => Exact (HF) Exchange <=

    0.2000               HF

   => Correlation Functionals <=

    0.1900   Vosko, Wilk & Nusair (VWN5_RPA)
    0.8100   Lee, Yang & Parr

   => LibXC Density Thresholds  <==

    XC_HYB_GGA_XC_B3LYP:  1.00E-15

   => Molecular Quadrature <=

    Radial Scheme          =       TREUTLER
    Pruning Scheme         =           NONE
    Nuclear Scheme         =       TREUTLER

    Blocking Scheme        =         OCTREE
    BS radius alpha        =              1
    Pruning alpha          =              1
    Radial Points          =             75
    Spherical Points       =            302
    Total Points           =          43385
    Total Blocks           =            386
    Max Points             =            254
    Max Functions          =             28
    Weights Tolerance      =       1.00E-15

  -Total Gradient:
     Atom            X                  Y                   Z
    ------   -----------------  -----------------  -----------------
       1        0.000000000000     0.000000000000    -0.000011337150
       2        0.000000000000     0.000000000000     0.000023856692

*** tstop() called on Joses-MacBook-Pro-2.local at Wed Jul 16 19:00:51 2025
Module time:
	user time   =       0.70 seconds =       0.01 minutes
	system time =       0.93 seconds =       0.02 minutes
	total time  =          0 seconds =       0.00 minutes
Total time:
	user time   =      54.61 seconds =       0.91 minutes
	system time =      61.52 seconds =       1.03 minutes
	total time  =         11 seconds =       0.18 minutes

    			-----------------------------------------

    			 OPTKING 3.0: for geometry optimizations

    			     By R.A. King, Bethel University

    			        with contributions from

    			    A.V. Copan, J. Cayton, A. Heide

    			-----------------------------------------

	                            ===> Fragment 1 <==

	 Z (Atomic Numbers)          Masses                          Geom
	       6.000000            12.000000          0.00000000  0.00000000  2.92666615
	      10.000000            19.992440          0.00000000  0.00000000 -1.75666369

	 - Coordinate -           - BOHR/RAD -       - ANG/DEG -
	 R(1,2)           =         4.683330           2.478311

	        --- Internal Coordinate Step in ANG or DEG, aJ/ANG or AJ/DEG ---
	-------------------------------------------------------------------------------
	           Coordinate      Previous         Force          Change          New
	           ----------      --------        ------          ------        ------
	               R(1,2)       2.47831        0.00014        0.00121       2.47952
	-------------------------------------------------------------------------------

	                                 ==> Convergence Check <==

	Measures of convergence in internal coordinates in au.

	Criteria marked as inactive (o), active & met (*), and active & unmet ( ).

	----------------------------------------------------------------------------------------------
	   Step    Total Energy     Delta E     Max Force     RMS Force      Max Disp      RMS Disp
	----------------------------------------------------------------------------------------------
	  Convergence Criteria     1.00e-06 *    3.00e-04 *             o    1.20e-03 *             o
	----------------------------------------------------------------------------------------------
	    13    -166.76479534   -2.04e-07 *    1.76e-05 *    1.76e-05 o    2.29e-03      2.29e-03 o  ~
	----------------------------------------------------------------------------------------------

Next Geometry in Ang
	Fragment 1 (Ang)

	    C   0.0000000000   0.0000000000   1.5493313148
	   Ne   0.0000000000   0.0000000000  -0.9301926785

    Final optimized geometry and variables:
    Molecular point group: c2v
    Full point group: C_inf_v

    Geometry (in Angstrom), charge = 0, multiplicity = 3:

    C            0.000000000000     0.000000000000     1.548725029365
    NE           0.000000000000     0.000000000000    -0.929586393086

    Psi4 stopped on: Wednesday, 16 July 2025 07:00PM
    Psi4 wall time for execution: 0:00:11.50

*** Psi4 exiting successfully. Buy a developer a beer!
