                               Psi4 1.9.1 release

  ==> Input File <==

--------------------------------------------------------------------------
molecule {
0 3
N   0.00000        0.60000        0.00000
Cl   0.00000       -0.60000        0.00000
}

set {
basis              cc-pvdz
reference          uks
maxiter            500
geom_maxiter       500
DAMPING_PERCENTAGE 1
guess              SAP
}

optimize('b3lyp')
--------------------------------------------------------------------------

    Molecular point group: c2v
  Charge       = 0
  Multiplicity = 3
  Basis Set: CC-PVDZ
    Blend: CC-PVDZ
  Basis Set: (CC-PVDZ AUX)
    Blend: CC-PVDZ-JKFIT
  @DF-UKS Final Energy:  -514.58990340905086
    Total Energy =                       -514.5899034090508621
 Dipole X            :          0.0000000            0.0000000            0.0000000
 Dipole Y            :          0.0000000            0.0000000            0.0000000
 Dipole Z            :         -1.1647093            0.3116229           -0.8530864
 Magnitude           :                                                    0.8530864
    Molecular point group: c2v
  Basis Set: CC-PVDZ
    Blend: CC-PVDZ
  Basis Set: (CC-PVDZ AUX)
    Blend: CC-PVDZ-JKFIT
  Basis Set: CC-PVDZ
    Blend: CC-PVDZ
  Basis Set: (CC-PVDZ AUX)
    Blend: CC-PVDZ-JKFIT
  @DF-UKS Final Energy:  -514.73935112474965
    Total Energy =                       -514.7393511247496463
  Basis Set: CC-PVDZ
    Blend: CC-PVDZ
  Basis Set: (CC-PVDZ AUX)
    Blend: CC-PVDZ-JKFIT
  Basis Set: CC-PVDZ
    Blend: CC-PVDZ
  @DF-UKS Final Energy:  -514.80935652691664
    Total Energy =                       -514.8093565269166447
  @DF-UKS Final Energy:  -514.83206387627126
    Total Energy =                       -514.8320638762712633
  @DF-UKS Final Energy:  -514.84399756866446
    Total Energy =                       -514.8439975686644630
  @DF-UKS Final Energy:  -514.84770796255134
    Total Energy =                       -514.8477079625513397
  @DF-UKS Final Energy:  -514.84938884331041
    Total Energy =                       -514.8493888433104075
  @DF-UKS Final Energy:  -514.84976348933913
    Total Energy =                       -514.8497634893391250
  @DF-UKS Final Energy:  -514.84986627526973
    Total Energy =                       -514.8498662752697328
  Basis Set: (CC-PVDZ AUX)
    Blend: CC-PVDZ-JKFIT
  Basis Set: CC-PVDZ
    Blend: CC-PVDZ
  Basis Set: (CC-PVDZ AUX)
    Blend: CC-PVDZ-JKFIT
  @DF-UKS Final Energy:  -514.84988283336668
    Total Energy =                       -514.8498828333666779
  Basis Set: CC-PVDZ
    Blend: CC-PVDZ
  Basis Set: (CC-PVDZ AUX)
    Blend: CC-PVDZ-JKFIT
  Charge       = 0
  Multiplicity = 3
  Basis Set: CC-PVDZ
    Blend: CC-PVDZ
  Basis Set: (CC-PVDZ AUX)
    Blend: CC-PVDZ-JKFIT

    Orbital Energies [Eh]
    ---------------------

    Alpha Occupied:

       1A1  -101.604044     2A1   -14.438289     3A1    -9.521608
       4A1    -7.282995     1B1    -7.275711     1B2    -7.275711
       5A1    -0.975491     6A1    -0.727175     7A1    -0.432645
       2B1    -0.431892     2B2    -0.431892     3B2    -0.287099
       3B1    -0.287099

    Alpha Virtual:

       8A1    -0.011574     9A1     0.475747     4B1     0.516689
       4B2     0.516689    10A1     0.562891     5B1     0.608646
       5B2     0.608646     1A2     0.676100    11A1     0.676100
      12A1     0.691977     6B1     0.774645     6B2     0.774645
      13A1     0.985464    14A1     1.162517    15A1     1.678179
       2A2     1.678180     7B2     1.835108     7B1     1.835108
      16A1     2.314063

    Beta Occupied:

       1A1  -101.602032     2A1   -14.402326     3A1    -9.519672
       4A1    -7.282821     1B1    -7.271405     1B2    -7.271405
       5A1    -0.934957     6A1    -0.653268     7A1    -0.395061
       2B1    -0.382129     2B2    -0.382129

    Beta Virtual:

       3B2    -0.103535     3B1    -0.103535     8A1     0.017705
       9A1     0.482417     4B1     0.523451     4B2     0.523451
      10A1     0.568522     5B2     0.658729     5B1     0.658729
       1A2     0.693713    11A1     0.693713    12A1     0.722083
       6B1     0.828569     6B2     0.828569    13A1     1.017021
      14A1     1.198113     2A2     1.803136    15A1     1.803143
       7B2     1.902324     7B1     1.902324    16A1     2.365152

    Final Occupation by Irrep:
             A1    A2    B1    B2
    DOCC [     7,    0,    2,    2 ]
    SOCC [     0,    0,    1,    1 ]
    NA   [     7,    0,    3,    3 ]
    NB   [     7,    0,    2,    2 ]

  @DF-UKS Final Energy:  -514.84988395477217

   => Energetics <=

    Nuclear Repulsion Energy =             37.8501878881646547
    One-Electron Energy =                -784.2040504690896796
    Two-Electron Energy =                 259.7619691091223331
    DFT Exchange-Correlation Energy =     -28.2579904829694328
    Empirical Dispersion Energy =           0.0000000000000000
    VV10 Nonlocal Energy =                  0.0000000000000000
    Total Energy =                       -514.8498839547721673

  UHF NO Occupations:
  HONO-2 :    7 A1 1.9982875
  HONO-1 :    3 B1 1.0000000
  HONO-0 :    3 B2 1.0000000
  LUNO+0 :    8 A1 0.0017125
  LUNO+1 :    4 B1 0.0005819
  LUNO+2 :    4 B2 0.0005819
  LUNO+3 :    9 A1 0.0004573

Computation Completed

Properties will be evaluated at   0.000000,   0.000000,   0.000000 [a0]

Properties computed using the SCF density matrix

 Multipole Moments:

 ------------------------------------------------------------------------------------
     Multipole            Electronic (a.u.)      Nuclear  (a.u.)        Total (a.u.)
 ------------------------------------------------------------------------------------

 L = 1.  Multiply by 2.5417464519 to convert [e a0] to [Debye]
 Dipole X            :          0.0000000            0.0000000            0.0000000
 Dipole Y            :          0.0000000            0.0000000            0.0000000
 Dipole Z            :         -0.8121052            0.4320441           -0.3800611
 Magnitude           :                                                    0.3800611

 ------------------------------------------------------------------------------------

*** tstop() called on Joses-MacBook-Pro-2.local at Wed Jul 16 19:15:15 2025
Module time:
	user time   =       3.84 seconds =       0.06 minutes
	system time =       4.13 seconds =       0.07 minutes
	total time  =          1 seconds =       0.02 minutes
Total time:
	user time   =      75.29 seconds =       1.25 minutes
	system time =      67.93 seconds =       1.13 minutes
	total time  =         15 seconds =       0.25 minutes

*** tstart() called on Joses-MacBook-Pro-2.local
*** at Wed Jul 16 19:15:15 2025

         ------------------------------------------------------------
                                   SCF GRAD
                          Rob Parrish, Justin Turney,
                       Andy Simmonett, and Alex Sokolov
         ------------------------------------------------------------

  ==> Geometry <==

    Molecular point group: c2v
    Full point group: C_inf_v

    Geometry (in Angstrom), charge = 0, multiplicity = 3:

       Center              X                  Y                   Z               Mass
    ------------   -----------------  -----------------  -----------------  -----------------
         N            0.000000000000     0.000000000000     1.187994000157    14.003074004430
         CL           0.000000000000     0.000000000000    -0.475725299091    34.968852682000

  Nuclear repulsion =   37.850187888164655

  ==> Basis Set <==

  Basis Set: CC-PVDZ
    Blend: CC-PVDZ
    Number of shells: 14
    Number of basis functions: 32
    Number of Cartesian functions: 34
    Spherical Harmonics?: true
    Max angular momentum: 2

  ==> DFJKGrad: Density-Fitted SCF Gradients <==

    Gradient:                    1
    J tasked:                  Yes
    K tasked:                  Yes
    wK tasked:                  No
    OpenMP threads:              1
    Integrals threads:           1
    Memory [MiB]:              375
    Schwarz Cutoff:          1E-12
    Fitting Condition:       1E-10

   => Auxiliary Basis Set <=

  Basis Set: (CC-PVDZ AUX)
    Blend: CC-PVDZ-JKFIT
    Number of shells: 60
    Number of basis functions: 182
    Number of Cartesian functions: 211
    Spherical Harmonics?: true
    Max angular momentum: 3

  ==> DFT Potential <==

   => LibXC <=

    Version 6.2.2
    S. Lehtola, C. Steigemann, M. J.T. Oliveira, and M. A.L. Marques.,  SoftwareX 7, 1â€“5 (2018) (10.1016/j.softx.2017.11.002)

   => Composite Functional: B3LYP <=

    B3LYP Hyb-GGA Exchange-Correlation Functional

    P. J. Stephens, F. J. Devlin, C. F. Chabalowski, and M. J. Frisch.,  J. Phys. Chem. 98, 11623 (1994) (10.1021/j100096a001)

    Deriv               =              1
    GGA                 =           TRUE
    Meta                =          FALSE

    Exchange Hybrid     =           TRUE
    MP2 Hybrid          =          FALSE

   => Exchange Functionals <=

    0.0800   Slater exchange
    0.7200         Becke 88

   => Exact (HF) Exchange <=

    0.2000               HF

   => Correlation Functionals <=

    0.1900   Vosko, Wilk & Nusair (VWN5_RPA)
    0.8100   Lee, Yang & Parr

   => LibXC Density Thresholds  <==

    XC_HYB_GGA_XC_B3LYP:  1.00E-15

   => Molecular Quadrature <=

    Radial Scheme          =       TREUTLER
    Pruning Scheme         =           NONE
    Nuclear Scheme         =       TREUTLER

    Blocking Scheme        =         OCTREE
    BS radius alpha        =              1
    Pruning alpha          =              1
    Radial Points          =             75
    Spherical Points       =            302
    Total Points           =          41095
    Total Blocks           =            366
    Max Points             =            253
    Max Functions          =             32
    Weights Tolerance      =       1.00E-15

  -Total Gradient:
     Atom            X                  Y                   Z
    ------   -----------------  -----------------  -----------------
       1       -0.000000000000     0.000000000000    -0.000135020095
       2        0.000000000000     0.000000000000     0.000119452410

*** tstop() called on Joses-MacBook-Pro-2.local at Wed Jul 16 19:15:15 2025
Module time:
	user time   =       1.31 seconds =       0.02 minutes
	system time =       1.38 seconds =       0.02 minutes
	total time  =          0 seconds =       0.00 minutes
Total time:
	user time   =      76.62 seconds =       1.28 minutes
	system time =      69.31 seconds =       1.16 minutes
	total time  =         15 seconds =       0.25 minutes

    			-----------------------------------------

    			 OPTKING 3.0: for geometry optimizations

    			     By R.A. King, Bethel University

    			        with contributions from

    			    A.V. Copan, J. Cayton, A. Heide

    			-----------------------------------------

	                            ===> Fragment 1 <==

	 Z (Atomic Numbers)          Masses                          Geom
	       7.000000            14.003074          0.00000000  0.00000000  2.24498330
	      17.000000            34.968853          0.00000000  0.00000000 -0.89899053

	 - Coordinate -           - BOHR/RAD -       - ANG/DEG -
	 R(1,2)           =         3.143974           1.663719

	        --- Internal Coordinate Step in ANG or DEG, aJ/ANG or AJ/DEG ---
	-------------------------------------------------------------------------------
	           Coordinate      Previous         Force          Change          New
	           ----------      --------        ------          ------        ------
	               R(1,2)       1.66372        0.00105        0.00025       1.66397
	-------------------------------------------------------------------------------

	                                 ==> Convergence Check <==

	Measures of convergence in internal coordinates in au.

	Criteria marked as inactive (o), active & met (*), and active & unmet ( ).

	----------------------------------------------------------------------------------------------
	   Step    Total Energy     Delta E     Max Force     RMS Force      Max Disp      RMS Disp
	----------------------------------------------------------------------------------------------
	  Convergence Criteria     1.00e-06 *    3.00e-04 *             o    1.20e-03 *             o
	----------------------------------------------------------------------------------------------
	    11    -514.84988395   -1.12e-06      1.27e-04 *    1.27e-04 o    4.75e-04 *    4.75e-04 o  ~
	----------------------------------------------------------------------------------------------

Next Geometry in Ang
	Fragment 1 (Ang)

	    N   0.0000000000   0.0000000000   1.1881197977
	   Cl   0.0000000000   0.0000000000  -0.4758510966

    Final optimized geometry and variables:
    Molecular point group: c2v
    Full point group: C_inf_v

    Geometry (in Angstrom), charge = 0, multiplicity = 3:

    N            0.000000000000     0.000000000000     1.187994000157
    CL           0.000000000000     0.000000000000    -0.475725299091

    Psi4 stopped on: Wednesday, 16 July 2025 07:15PM
    Psi4 wall time for execution: 0:00:15.56

*** Psi4 exiting successfully. Buy a developer a beer!
