                               Psi4 1.9.1 release

  ==> Input File <==

--------------------------------------------------------------------------
molecule {
0 3
H   0.00000        0.60000        0.00000
Cl   0.00000       -0.60000        0.00000
}

set {
basis              cc-pvdz
reference          uks
maxiter            500
geom_maxiter       500
DAMPING_PERCENTAGE 1
guess              SAP
}

optimize('b3lyp')
--------------------------------------------------------------------------

    Molecular point group: c2v
  Charge       = 0
  Multiplicity = 3
  Basis Set: CC-PVDZ
    Blend: CC-PVDZ
  Basis Set: (CC-PVDZ AUX)
    Blend: CC-PVDZ-JKFIT
  @DF-UKS Final Energy:  -460.51128131177956
    Total Energy =                       -460.5112813117795554
 Dipole X            :          0.0000000            0.0000000            0.0000000
 Dipole Y            :          0.0000000            0.0000000            0.0000000
 Dipole Z            :         -2.0363386            1.1242226           -0.9121160
 Magnitude           :                                                    0.9121160
    Molecular point group: c2v
  Basis Set: CC-PVDZ
    Blend: CC-PVDZ
  Basis Set: (CC-PVDZ AUX)
    Blend: CC-PVDZ-JKFIT
  Basis Set: CC-PVDZ
    Blend: CC-PVDZ
  Basis Set: (CC-PVDZ AUX)
    Blend: CC-PVDZ-JKFIT
  @DF-UKS Final Energy:  -460.59396132896308
    Total Energy =                       -460.5939613289630756
  Basis Set: CC-PVDZ
    Blend: CC-PVDZ
  Basis Set: (CC-PVDZ AUX)
    Blend: CC-PVDZ-JKFIT
  Basis Set: CC-PVDZ
    Blend: CC-PVDZ
  @DF-UKS Final Energy:  -460.62144085935108
    Total Energy =                       -460.6214408593510825
  @DF-UKS Final Energy:  -460.63998565234192
    Total Energy =                       -460.6399856523420340
  @DF-UKS Final Energy:  -460.64929279773668
    Total Energy =                       -460.6492927977366207
  @DF-UKS Final Energy:  -460.65430274272609
    Total Energy =                       -460.6543027427260881
  @DF-UKS Final Energy:  -460.65703746040589
    Total Energy =                       -460.6570374604058884
  @DF-UKS Final Energy:  -460.65851139614017
    Total Energy =                       -460.6585113961401703
  @DF-UKS Final Energy:  -460.65925365778611
    Total Energy =                       -460.6592536577861097
  @DF-UKS Final Energy:  -460.65959497925121
    Total Energy =                       -460.6595949792512101
  @DF-UKS Final Energy:  -460.65973612612083
    Total Energy =                       -460.6597361261208903
  @DF-UKS Final Energy:  -460.65978736591472
    Total Energy =                       -460.6597873659147240
  @DF-UKS Final Energy:  -460.65980314161652
    Total Energy =                       -460.6598031416165213
  Basis Set: (CC-PVDZ AUX)
    Blend: CC-PVDZ-JKFIT
  Basis Set: CC-PVDZ
    Blend: CC-PVDZ
  Basis Set: (CC-PVDZ AUX)
    Blend: CC-PVDZ-JKFIT
  @DF-UKS Final Energy:  -460.65980611511452
    Total Energy =                       -460.6598061151145203
  Basis Set: CC-PVDZ
    Blend: CC-PVDZ
  Basis Set: (CC-PVDZ AUX)
    Blend: CC-PVDZ-JKFIT
  Charge       = 0
  Multiplicity = 3
  Basis Set: CC-PVDZ
    Blend: CC-PVDZ
  Basis Set: (CC-PVDZ AUX)
    Blend: CC-PVDZ-JKFIT

    Orbital Energies [Eh]
    ---------------------

    Alpha Occupied:

       1A1  -101.592182     2A1    -9.506239     1B1    -7.280032
       3A1    -7.256539     1B2    -7.256399     4A1    -0.843602
       2B1    -0.405486     5A1    -0.352691     2B2    -0.350016
       6A1    -0.312898

    Alpha Virtual:

       7A1     0.399120     3B1     0.496154     3B2     0.529579
       8A1     0.550314     9A1     0.604186    10A1     0.654694
       4B1     0.666578     1A2     0.666784     4B2     0.710708
      11A1     0.713771     5B1     1.213834     5B2     1.213984
      12A1     1.219359

    Beta Occupied:

       1A1  -101.585386     2A1    -9.499525     1B1    -7.258060
       1B2    -7.252365     3A1    -7.252337     4A1    -0.789880
       5A1    -0.334368     2B2    -0.333993

    Beta Virtual:

       2B1    -0.243457     6A1    -0.059983     7A1     0.509182
       3B2     0.536736     3B1     0.542010     8A1     0.577485
       9A1     0.663722     4B2     0.719392     1A2     0.724562
       4B1     0.724676    10A1     0.725146    11A1     0.737357
       5B1     1.408441     5B2     1.408592    12A1     1.409831

    Final Occupation by Irrep:
             A1    A2    B1    B2
    DOCC [     5,    0,    1,    2 ]
    SOCC [     1,    0,    1,    0 ]
    NA   [     6,    0,    2,    2 ]
    NB   [     5,    0,    1,    2 ]

  @DF-UKS Final Energy:  -460.65980679486427

   => Energetics <=

    Nuclear Repulsion Energy =              2.6410724168992723
    One-Electron Energy =                -640.8114302346029945
    Two-Electron Energy =                 200.4785133056846291
    DFT Exchange-Correlation Energy =     -22.9679622828451606
    Empirical Dispersion Energy =           0.0000000000000000
    VV10 Nonlocal Energy =                  0.0000000000000000
    Total Energy =                       -460.6598067948642665

  UHF NO Occupations:
  HONO-2 :    5 A1 1.9991406
  HONO-1 :    2 B1 1.0000000
  HONO-0 :    6 A1 1.0000000
  LUNO+0 :    7 A1 0.0008594
  LUNO+1 :    8 A1 0.0000682
  LUNO+2 :    3 B2 0.0000279
  LUNO+3 :    9 A1 0.0000000

Computation Completed

Properties will be evaluated at   0.000000,   0.000000,   0.000000 [a0]

Properties computed using the SCF density matrix

 Multipole Moments:

 ------------------------------------------------------------------------------------
     Multipole            Electronic (a.u.)      Nuclear  (a.u.)        Total (a.u.)
 ------------------------------------------------------------------------------------

 L = 1.  Multiply by 2.5417464519 to convert [e a0] to [Debye]
 Dipole X            :          0.0000000            0.0000000            0.0000000
 Dipole Y            :          0.0000000            0.0000000            0.0000000
 Dipole Z            :         -3.2134722            3.1911029           -0.0223693
 Magnitude           :                                                    0.0223693

 ------------------------------------------------------------------------------------

*** tstop() called on Joses-MacBook-Pro-2.local at Wed Jul 16 18:17:48 2025
Module time:
	user time   =       2.38 seconds =       0.04 minutes
	system time =       2.24 seconds =       0.04 minutes
	total time  =          1 seconds =       0.02 minutes
Total time:
	user time   =      57.20 seconds =       0.95 minutes
	system time =      64.73 seconds =       1.08 minutes
	total time  =         12 seconds =       0.20 minutes

*** tstart() called on Joses-MacBook-Pro-2.local
*** at Wed Jul 16 18:17:48 2025

         ------------------------------------------------------------
                                   SCF GRAD
                          Rob Parrish, Justin Turney,
                       Andy Simmonett, and Alex Sokolov
         ------------------------------------------------------------

  ==> Geometry <==

    Molecular point group: c2v
    Full point group: C_inf_v

    Geometry (in Angstrom), charge = 0, multiplicity = 3:

       Center              X                  Y                   Z               Mass
    ------------   -----------------  -----------------  -----------------  -----------------
         H            0.000000000000     0.000000000000     3.310778089465     1.007825032230
         CL           0.000000000000     0.000000000000    -0.095418773532    34.968852682000

  Nuclear repulsion =    2.641072416899272

  ==> Basis Set <==

  Basis Set: CC-PVDZ
    Blend: CC-PVDZ
    Number of shells: 11
    Number of basis functions: 23
    Number of Cartesian functions: 24
    Spherical Harmonics?: true
    Max angular momentum: 2

  ==> DFJKGrad: Density-Fitted SCF Gradients <==

    Gradient:                    1
    J tasked:                  Yes
    K tasked:                  Yes
    wK tasked:                  No
    OpenMP threads:              1
    Integrals threads:           1
    Memory [MiB]:              375
    Schwarz Cutoff:          1E-12
    Fitting Condition:       1E-10

   => Auxiliary Basis Set <=

  Basis Set: (CC-PVDZ AUX)
    Blend: CC-PVDZ-JKFIT
    Number of shells: 45
    Number of basis functions: 135
    Number of Cartesian functions: 155
    Spherical Harmonics?: true
    Max angular momentum: 3

  ==> DFT Potential <==

   => LibXC <=

    Version 6.2.2
    S. Lehtola, C. Steigemann, M. J.T. Oliveira, and M. A.L. Marques.,  SoftwareX 7, 1â€“5 (2018) (10.1016/j.softx.2017.11.002)

   => Composite Functional: B3LYP <=

    B3LYP Hyb-GGA Exchange-Correlation Functional

    P. J. Stephens, F. J. Devlin, C. F. Chabalowski, and M. J. Frisch.,  J. Phys. Chem. 98, 11623 (1994) (10.1021/j100096a001)

    Deriv               =              1
    GGA                 =           TRUE
    Meta                =          FALSE

    Exchange Hybrid     =           TRUE
    MP2 Hybrid          =          FALSE

   => Exchange Functionals <=

    0.0800   Slater exchange
    0.7200         Becke 88

   => Exact (HF) Exchange <=

    0.2000               HF

   => Correlation Functionals <=

    0.1900   Vosko, Wilk & Nusair (VWN5_RPA)
    0.8100   Lee, Yang & Parr

   => LibXC Density Thresholds  <==

    XC_HYB_GGA_XC_B3LYP:  1.00E-15

   => Molecular Quadrature <=

    Radial Scheme          =       TREUTLER
    Pruning Scheme         =           NONE
    Nuclear Scheme         =       TREUTLER

    Blocking Scheme        =         OCTREE
    BS radius alpha        =              1
    Pruning alpha          =              1
    Radial Points          =             75
    Spherical Points       =            302
    Total Points           =          42571
    Total Blocks           =            388
    Max Points             =            255
    Max Functions          =             23
    Weights Tolerance      =       1.00E-15

  -Total Gradient:
     Atom            X                  Y                   Z
    ------   -----------------  -----------------  -----------------
       1       -0.000000000000    -0.000000000000    -0.000010203998
       2       -0.000000000000     0.000000000000     0.000012625211

*** tstop() called on Joses-MacBook-Pro-2.local at Wed Jul 16 18:17:48 2025
Module time:
	user time   =       0.43 seconds =       0.01 minutes
	system time =       1.24 seconds =       0.02 minutes
	total time  =          0 seconds =       0.00 minutes
Total time:
	user time   =      57.63 seconds =       0.96 minutes
	system time =      65.97 seconds =       1.10 minutes
	total time  =         12 seconds =       0.20 minutes

    			-----------------------------------------

    			 OPTKING 3.0: for geometry optimizations

    			     By R.A. King, Bethel University

    			        with contributions from

    			    A.V. Copan, J. Cayton, A. Heide

    			-----------------------------------------

	                            ===> Fragment 1 <==

	 Z (Atomic Numbers)          Masses                          Geom
	       1.000000             1.007825          0.00000000  0.00000000  6.25646385
	      17.000000            34.968853          0.00000000  0.00000000 -0.18031535

	 - Coordinate -           - BOHR/RAD -       - ANG/DEG -
	 R(1,2)           =         6.436779           3.406197

	        --- Internal Coordinate Step in ANG or DEG, aJ/ANG or AJ/DEG ---
	-------------------------------------------------------------------------------
	           Coordinate      Previous         Force          Change          New
	           ----------      --------        ------          ------        ------
	               R(1,2)       3.40620        0.00009        0.01376       3.41995
	-------------------------------------------------------------------------------

	                                 ==> Convergence Check <==

	Measures of convergence in internal coordinates in au.

	Criteria marked as inactive (o), active & met (*), and active & unmet ( ).

	----------------------------------------------------------------------------------------------
	   Step    Total Energy     Delta E     Max Force     RMS Force      Max Disp      RMS Disp
	----------------------------------------------------------------------------------------------
	  Convergence Criteria     1.00e-06 *    3.00e-04 *             o    1.20e-03 *             o
	----------------------------------------------------------------------------------------------
	    15    -460.65980679   -6.80e-07 *    1.14e-05 *    1.14e-05 o    2.60e-02      2.60e-02 o  ~
	----------------------------------------------------------------------------------------------

Next Geometry in Ang
	Fragment 1 (Ang)

	    H   0.0000000000   0.0000000000   3.3176568761
	   Cl   0.0000000000   0.0000000000  -0.1022975602

    Final optimized geometry and variables:
    Molecular point group: c2v
    Full point group: C_inf_v

    Geometry (in Angstrom), charge = 0, multiplicity = 3:

    H            0.000000000000     0.000000000000     3.310778089465
    CL           0.000000000000     0.000000000000    -0.095418773532

    Psi4 stopped on: Wednesday, 16 July 2025 06:17PM
    Psi4 wall time for execution: 0:00:12.25

*** Psi4 exiting successfully. Buy a developer a beer!
