                               Psi4 1.9.1 release

  ==> Input File <==

--------------------------------------------------------------------------
molecule {
0 3
Be   0.00000        0.60000        0.00000
Si   0.00000       -0.60000        0.00000
}

set {
basis              cc-pvdz
reference          uks
maxiter            500
geom_maxiter       500
DAMPING_PERCENTAGE 1
guess              SAP
}

optimize('b3lyp')
--------------------------------------------------------------------------

    Molecular point group: c2v
  Charge       = 0
  Multiplicity = 3
  Basis Set: CC-PVDZ
    Blend: CC-PVDZ
  Basis Set: (CC-PVDZ AUX)
    Blend: CC-PVDZ-JKFIT + DEF2-UNIVERSAL-JKFIT
  @DF-UKS Final Energy:  -303.61260329029574
    Total Energy =                       -303.6126032902957377
 Dipole X            :          0.0000000            0.0000000            0.0000000
 Dipole Y            :          0.0000000            0.0000000            0.0000000
 Dipole Z            :          1.0118806           -0.8744053            0.1374753
 Magnitude           :                                                    0.1374753
    Molecular point group: c2v
  Basis Set: CC-PVDZ
    Blend: CC-PVDZ
  Basis Set: (CC-PVDZ AUX)
    Blend: CC-PVDZ-JKFIT + DEF2-UNIVERSAL-JKFIT
  Basis Set: CC-PVDZ
    Blend: CC-PVDZ
  Basis Set: (CC-PVDZ AUX)
    Blend: CC-PVDZ-JKFIT + DEF2-UNIVERSAL-JKFIT
  @DF-UKS Final Energy:  -303.77505259656431
    Total Energy =                       -303.7750525965643078
  Basis Set: CC-PVDZ
    Blend: CC-PVDZ
  Basis Set: (CC-PVDZ AUX)
    Blend: CC-PVDZ-JKFIT + DEF2-UNIVERSAL-JKFIT
  Basis Set: CC-PVDZ
    Blend: CC-PVDZ
  @DF-UKS Final Energy:  -303.91617371295490
    Total Energy =                       -303.9161737129548442
  @DF-UKS Final Energy:  -303.99737741799584
    Total Energy =                       -303.9973774179957786
  @DF-UKS Final Energy:  -304.03004406118833
    Total Energy =                       -304.0300440611883346
  @DF-UKS Final Energy:  -304.09630599621738
    Total Energy =                       -304.0963059962173816
  @DF-UKS Final Energy:  -304.10986337106084
    Total Energy =                       -304.1098633710607828
  @DF-UKS Final Energy:  -304.11180716538689
    Total Energy =                       -304.1118071653868355
  @DF-UKS Final Energy:  -304.11181803655114
    Total Energy =                       -304.1118180365511421
  Basis Set: (CC-PVDZ AUX)
    Blend: CC-PVDZ-JKFIT + DEF2-UNIVERSAL-JKFIT
  Basis Set: CC-PVDZ
    Blend: CC-PVDZ
  Basis Set: (CC-PVDZ AUX)
    Blend: CC-PVDZ-JKFIT + DEF2-UNIVERSAL-JKFIT
  @DF-UKS Final Energy:  -304.11182015596830
    Total Energy =                       -304.1118201559682461
  Basis Set: CC-PVDZ
    Blend: CC-PVDZ
  Basis Set: (CC-PVDZ AUX)
    Blend: CC-PVDZ-JKFIT + DEF2-UNIVERSAL-JKFIT
  Charge       = 0
  Multiplicity = 3
  Basis Set: CC-PVDZ
    Blend: CC-PVDZ
  Basis Set: (CC-PVDZ AUX)
    Blend: CC-PVDZ-JKFIT + DEF2-UNIVERSAL-JKFIT

    Orbital Energies [Eh]
    ---------------------

    Alpha Occupied:

       1A1   -66.144494     2A1    -5.287533     3A1    -4.096851
       1B2    -3.647180     1B1    -3.647180     4A1    -3.644844
       5A1    -0.472165     6A1    -0.257394     2B2    -0.196722
       2B1    -0.196722

    Alpha Virtual:

       7A1    -0.118194     3B1    -0.033289     3B2    -0.033289
       8A1     0.072588     9A1     0.153849     4B2     0.173607
       4B1     0.173607    10A1     0.183695    11A1     0.313680
       5B2     0.317257     5B1     0.317257    12A1     0.332146
       1A2     0.332146     6B2     0.369019     6B1     0.369019
      13A1     0.443209    14A1     0.493054     2A2     0.493054
      15A1     0.651275     7B1     0.681250     7B2     0.681250
      16A1     0.862735

    Beta Occupied:

       1A1   -66.139614     2A1    -5.281993     3A1    -4.096699
       4A1    -3.640360     1B2    -3.637460     1B1    -3.637460
       5A1    -0.413525     6A1    -0.234203

    Beta Virtual:

       7A1    -0.120853     2B2    -0.103365     2B1    -0.103365
       3B1    -0.006949     3B2    -0.006949     8A1     0.080820
       9A1     0.174919    10A1     0.182922     4B2     0.184940
       4B1     0.184940    11A1     0.325492     5B2     0.346164
       5B1     0.346164    12A1     0.388810     1A2     0.388810
       6B2     0.399248     6B1     0.399248    13A1     0.461767
      14A1     0.519343     2A2     0.519343    15A1     0.668606
       7B1     0.699135     7B2     0.699135    16A1     0.875559

    Final Occupation by Irrep:
             A1    A2    B1    B2
    DOCC [     6,    0,    1,    1 ]
    SOCC [     0,    0,    1,    1 ]
    NA   [     6,    0,    2,    2 ]
    NB   [     6,    0,    1,    1 ]

  @DF-UKS Final Energy:  -304.11182057449582

   => Energetics <=

    Nuclear Repulsion Energy =             13.9607568897842622
    One-Electron Energy =                -447.8639684655919950
    Two-Electron Energy =                 148.8550367440234368
    DFT Exchange-Correlation Energy =     -19.0636457427115467
    Empirical Dispersion Energy =           0.0000000000000000
    VV10 Nonlocal Energy =                  0.0000000000000000
    Total Energy =                       -304.1118205744958800

  UHF NO Occupations:
  HONO-2 :    6 A1 1.9690899
  HONO-1 :    2 B1 1.0000000
  HONO-0 :    2 B2 1.0000000
  LUNO+0 :    7 A1 0.0309101
  LUNO+1 :    8 A1 0.0006531
  LUNO+2 :    9 A1 0.0000001
  LUNO+3 :    3 B2 0.0000000

Computation Completed

Properties will be evaluated at   0.000000,   0.000000,   0.000000 [a0]

Properties computed using the SCF density matrix

 Multipole Moments:

 ------------------------------------------------------------------------------------
     Multipole            Electronic (a.u.)      Nuclear  (a.u.)        Total (a.u.)
 ------------------------------------------------------------------------------------

 L = 1.  Multiply by 2.5417464519 to convert [e a0] to [Debye]
 Dipole X            :          0.0000000            0.0000000            0.0000000
 Dipole Y            :          0.0000000            0.0000000            0.0000000
 Dipole Z            :          2.2775800           -1.5467200            0.7308600
 Magnitude           :                                                    0.7308600

 ------------------------------------------------------------------------------------

*** tstop() called on Joses-MacBook-Pro-2.local at Wed Jul 16 18:44:46 2025
Module time:
	user time   =       6.24 seconds =       0.10 minutes
	system time =       2.84 seconds =       0.05 minutes
	total time  =          1 seconds =       0.02 minutes
Total time:
	user time   =      74.99 seconds =       1.25 minutes
	system time =      66.19 seconds =       1.10 minutes
	total time  =         15 seconds =       0.25 minutes

*** tstart() called on Joses-MacBook-Pro-2.local
*** at Wed Jul 16 18:44:46 2025

         ------------------------------------------------------------
                                   SCF GRAD
                          Rob Parrish, Justin Turney,
                       Andy Simmonett, and Alex Sokolov
         ------------------------------------------------------------

  ==> Geometry <==

    Molecular point group: c2v
    Full point group: C_inf_v

    Geometry (in Angstrom), charge = 0, multiplicity = 3:

       Center              X                  Y                   Z               Mass
    ------------   -----------------  -----------------  -----------------  -----------------
         BE           0.000000000000     0.000000000000     1.605485252587     9.012183065000
         SI           0.000000000000     0.000000000000    -0.517173571105    27.976926534650

  Nuclear repulsion =   13.960756889784262

  ==> Basis Set <==

  Basis Set: CC-PVDZ
    Blend: CC-PVDZ
    Number of shells: 14
    Number of basis functions: 32
    Number of Cartesian functions: 34
    Spherical Harmonics?: true
    Max angular momentum: 2

  ==> DFJKGrad: Density-Fitted SCF Gradients <==

    Gradient:                    1
    J tasked:                  Yes
    K tasked:                  Yes
    wK tasked:                  No
    OpenMP threads:              1
    Integrals threads:           1
    Memory [MiB]:              375
    Schwarz Cutoff:          1E-12
    Fitting Condition:       1E-10

   => Auxiliary Basis Set <=

  Basis Set: (CC-PVDZ AUX)
    Blend: CC-PVDZ-JKFIT + DEF2-UNIVERSAL-JKFIT
    Number of shells: 53
    Number of basis functions: 163
    Number of Cartesian functions: 190
    Spherical Harmonics?: true
    Max angular momentum: 3

  ==> DFT Potential <==

   => LibXC <=

    Version 6.2.2
    S. Lehtola, C. Steigemann, M. J.T. Oliveira, and M. A.L. Marques.,  SoftwareX 7, 1â€“5 (2018) (10.1016/j.softx.2017.11.002)

   => Composite Functional: B3LYP <=

    B3LYP Hyb-GGA Exchange-Correlation Functional

    P. J. Stephens, F. J. Devlin, C. F. Chabalowski, and M. J. Frisch.,  J. Phys. Chem. 98, 11623 (1994) (10.1021/j100096a001)

    Deriv               =              1
    GGA                 =           TRUE
    Meta                =          FALSE

    Exchange Hybrid     =           TRUE
    MP2 Hybrid          =          FALSE

   => Exchange Functionals <=

    0.0800   Slater exchange
    0.7200         Becke 88

   => Exact (HF) Exchange <=

    0.2000               HF

   => Correlation Functionals <=

    0.1900   Vosko, Wilk & Nusair (VWN5_RPA)
    0.8100   Lee, Yang & Parr

   => LibXC Density Thresholds  <==

    XC_HYB_GGA_XC_B3LYP:  1.00E-15

   => Molecular Quadrature <=

    Radial Scheme          =       TREUTLER
    Pruning Scheme         =           NONE
    Nuclear Scheme         =       TREUTLER

    Blocking Scheme        =         OCTREE
    BS radius alpha        =              1
    Pruning alpha          =              1
    Radial Points          =             75
    Spherical Points       =            302
    Total Points           =          42487
    Total Blocks           =            392
    Max Points             =            256
    Max Functions          =             32
    Weights Tolerance      =       1.00E-15

  -Total Gradient:
     Atom            X                  Y                   Z
    ------   -----------------  -----------------  -----------------
       1        0.000000000000     0.000000000000    -0.000134216117
       2        0.000000000000     0.000000000000     0.000129231603

*** tstop() called on Joses-MacBook-Pro-2.local at Wed Jul 16 18:44:46 2025
Module time:
	user time   =       0.79 seconds =       0.01 minutes
	system time =       1.86 seconds =       0.03 minutes
	total time  =          0 seconds =       0.00 minutes
Total time:
	user time   =      75.78 seconds =       1.26 minutes
	system time =      68.06 seconds =       1.13 minutes
	total time  =         15 seconds =       0.25 minutes

    			-----------------------------------------

    			 OPTKING 3.0: for geometry optimizations

    			     By R.A. King, Bethel University

    			        with contributions from

    			    A.V. Copan, J. Cayton, A. Heide

    			-----------------------------------------

	                            ===> Fragment 1 <==

	 Z (Atomic Numbers)          Masses                          Geom
	       4.000000             9.012183          0.00000000  0.00000000  3.03392743
	      14.000000            27.976927          0.00000000  0.00000000 -0.97731641

	 - Coordinate -           - BOHR/RAD -       - ANG/DEG -
	 R(1,2)           =         4.011244           2.122659

	        --- Internal Coordinate Step in ANG or DEG, aJ/ANG or AJ/DEG ---
	-------------------------------------------------------------------------------
	           Coordinate      Previous         Force          Change          New
	           ----------      --------        ------          ------        ------
	               R(1,2)       2.12266        0.00109        0.00066       2.12331
	-------------------------------------------------------------------------------

	                                 ==> Convergence Check <==

	Measures of convergence in internal coordinates in au.

	Criteria marked as inactive (o), active & met (*), and active & unmet ( ).

	----------------------------------------------------------------------------------------------
	   Step    Total Energy     Delta E     Max Force     RMS Force      Max Disp      RMS Disp
	----------------------------------------------------------------------------------------------
	  Convergence Criteria     1.00e-06 *    3.00e-04 *             o    1.20e-03 *             o
	----------------------------------------------------------------------------------------------
	    11    -304.11182057   -4.19e-07 *    1.32e-04 *    1.32e-04 o    1.24e-03      1.24e-03 o  ~
	----------------------------------------------------------------------------------------------

Next Geometry in Ang
	Fragment 1 (Ang)

	   Be   0.0000000000   0.0000000000   1.6058127847
	   Si   0.0000000000   0.0000000000  -0.5175011032

    Final optimized geometry and variables:
    Molecular point group: c2v
    Full point group: C_inf_v

    Geometry (in Angstrom), charge = 0, multiplicity = 3:

    BE           0.000000000000     0.000000000000     1.605485252587
    SI           0.000000000000     0.000000000000    -0.517173571105

    Psi4 stopped on: Wednesday, 16 July 2025 06:44PM
    Psi4 wall time for execution: 0:00:15.47

*** Psi4 exiting successfully. Buy a developer a beer!
