                               Psi4 1.9.1 release

  ==> Input File <==

--------------------------------------------------------------------------
molecule {
0 3
Li   0.00000        0.60000        0.00000
Al   0.00000       -0.60000        0.00000
}

set {
basis              cc-pvdz
reference          uks
maxiter            500
geom_maxiter       500
DAMPING_PERCENTAGE 1
guess              SAP
}

optimize('b3lyp')
--------------------------------------------------------------------------

    Molecular point group: c2v
  Charge       = 0
  Multiplicity = 3
  Basis Set: CC-PVDZ
    Blend: CC-PVDZ
  Basis Set: (CC-PVDZ AUX)
    Blend: CC-PVDZ-JKFIT + DEF2-UNIVERSAL-JKFIT
  @DF-UKS Final Energy:  -249.53372773723129
    Total Energy =                       -249.5337277372312883
 Dipole X            :          0.0000000            0.0000000            0.0000000
 Dipole Y            :          0.0000000            0.0000000            0.0000000
 Dipole Z            :          1.0768843           -0.6845814            0.3923029
 Magnitude           :                                                    0.3923029
    Molecular point group: c2v
  Basis Set: CC-PVDZ
    Blend: CC-PVDZ
  Basis Set: (CC-PVDZ AUX)
    Blend: CC-PVDZ-JKFIT + DEF2-UNIVERSAL-JKFIT
  Basis Set: CC-PVDZ
    Blend: CC-PVDZ
  Basis Set: (CC-PVDZ AUX)
    Blend: CC-PVDZ-JKFIT + DEF2-UNIVERSAL-JKFIT
  @DF-UKS Final Energy:  -249.59635223991893
    Total Energy =                       -249.5963522399189287
  Basis Set: CC-PVDZ
    Blend: CC-PVDZ
  Basis Set: (CC-PVDZ AUX)
    Blend: CC-PVDZ-JKFIT + DEF2-UNIVERSAL-JKFIT
  Basis Set: CC-PVDZ
    Blend: CC-PVDZ
  @DF-UKS Final Energy:  -249.67373248164407
    Total Energy =                       -249.6737324816440662
  @DF-UKS Final Energy:  -249.77703744019749
    Total Energy =                       -249.7770374401974891
  @DF-UKS Final Energy:  -249.83369634739375
    Total Energy =                       -249.8336963473937828
  @DF-UKS Final Energy:  -249.85897642410077
    Total Energy =                       -249.8589764241007742
  @DF-UKS Final Energy:  -249.86842765794219
    Total Energy =                       -249.8684276579422203
  @DF-UKS Final Energy:  -249.87114140416128
    Total Energy =                       -249.8711414041612784
  @DF-UKS Final Energy:  -249.87160627698890
    Total Energy =                       -249.8716062769888993
  @DF-UKS Final Energy:  -249.87163581501812
    Total Energy =                       -249.8716358150181236
  Basis Set: (CC-PVDZ AUX)
    Blend: CC-PVDZ-JKFIT + DEF2-UNIVERSAL-JKFIT
  Basis Set: CC-PVDZ
    Blend: CC-PVDZ
  Basis Set: (CC-PVDZ AUX)
    Blend: CC-PVDZ-JKFIT + DEF2-UNIVERSAL-JKFIT
  @DF-UKS Final Energy:  -249.87163778051851
    Total Energy =                       -249.8716377805185118
  Basis Set: CC-PVDZ
    Blend: CC-PVDZ
  Basis Set: (CC-PVDZ AUX)
    Blend: CC-PVDZ-JKFIT + DEF2-UNIVERSAL-JKFIT
  Charge       = 0
  Multiplicity = 3
  Basis Set: CC-PVDZ
    Blend: CC-PVDZ
  Basis Set: (CC-PVDZ AUX)
    Blend: CC-PVDZ-JKFIT + DEF2-UNIVERSAL-JKFIT

    Orbital Energies [Eh]
    ---------------------

    Alpha Occupied:

       1A1   -56.039674     2A1    -4.120846     3A1    -2.675602
       1B2    -2.672675     1B1    -2.672675     4A1    -2.072259
       5A1    -0.319884     2B2    -0.126909     2B1    -0.126909

    Alpha Virtual:

       6A1    -0.105158     7A1    -0.050036     3B2    -0.003723
       3B1    -0.003723     8A1     0.023797     4B1     0.058634
       4B2     0.058634     9A1     0.073506    10A1     0.154973
      11A1     0.189885     1A2     0.189885     5B1     0.214467
       5B2     0.214467    12A1     0.214539     6B1     0.266414
       6B2     0.266414    13A1     0.283182    14A1     0.313554
       2A2     0.313555    15A1     0.447126     7B2     0.453700
       7B1     0.453700    16A1     0.755396

    Beta Occupied:

       1A1   -56.037001     2A1    -4.117632     3A1    -2.674112
       1B2    -2.666482     1B1    -2.666482     4A1    -2.071319
       5A1    -0.279425

    Beta Virtual:

       6A1    -0.090311     2B2    -0.051877     2B1    -0.051877
       7A1    -0.044477     3B2     0.017591     3B1     0.017591
       8A1     0.031481     4B1     0.069035     4B2     0.069035
       9A1     0.072431    10A1     0.168278    11A1     0.219230
       1A2     0.221248    12A1     0.221249     5B1     0.233975
       5B2     0.233975     6B1     0.290989     6B2     0.290989
      13A1     0.297080    14A1     0.355576     2A2     0.355577
      15A1     0.459544     7B2     0.474624     7B1     0.474624
      16A1     0.761650

    Final Occupation by Irrep:
             A1    A2    B1    B2
    DOCC [     5,    0,    1,    1 ]
    SOCC [     0,    0,    1,    1 ]
    NA   [     5,    0,    2,    2 ]
    NB   [     5,    0,    1,    1 ]

  @DF-UKS Final Energy:  -249.87163792106341

   => Energetics <=

    Nuclear Repulsion Energy =              8.6580259465709020
    One-Electron Energy =                -363.9401119909867930
    Two-Electron Energy =                 121.9021112107574965
    DFT Exchange-Correlation Energy =     -16.4916630874050121
    Empirical Dispersion Energy =           0.0000000000000000
    VV10 Nonlocal Energy =                  0.0000000000000000
    Total Energy =                       -249.8716379210634386

  UHF NO Occupations:
  HONO-2 :    5 A1 1.9981775
  HONO-1 :    2 B1 1.0000000
  HONO-0 :    2 B2 1.0000000
  LUNO+0 :    6 A1 0.0018225
  LUNO+1 :    7 A1 0.0000001
  LUNO+2 :    8 A1 0.0000000
  LUNO+3 :    3 B1 0.0000000

Computation Completed

Properties will be evaluated at   0.000000,   0.000000,   0.000000 [a0]

Properties computed using the SCF density matrix

 Multipole Moments:

 ------------------------------------------------------------------------------------
     Multipole            Electronic (a.u.)      Nuclear  (a.u.)        Total (a.u.)
 ------------------------------------------------------------------------------------

 L = 1.  Multiply by 2.5417464519 to convert [e a0] to [Debye]
 Dipole X            :          0.0000000            0.0000000            0.0000000
 Dipole Y            :          0.0000000            0.0000000            0.0000000
 Dipole Z            :          2.7882764           -1.3598490            1.4284274
 Magnitude           :                                                    1.4284274

 ------------------------------------------------------------------------------------

*** tstop() called on Joses-MacBook-Pro-2.local at Wed Jul 16 18:34:04 2025
Module time:
	user time   =       2.66 seconds =       0.04 minutes
	system time =       4.20 seconds =       0.07 minutes
	total time  =          1 seconds =       0.02 minutes
Total time:
	user time   =      54.83 seconds =       0.91 minutes
	system time =      69.29 seconds =       1.15 minutes
	total time  =         12 seconds =       0.20 minutes

*** tstart() called on Joses-MacBook-Pro-2.local
*** at Wed Jul 16 18:34:04 2025

         ------------------------------------------------------------
                                   SCF GRAD
                          Rob Parrish, Justin Turney,
                       Andy Simmonett, and Alex Sokolov
         ------------------------------------------------------------

  ==> Geometry <==

    Molecular point group: c2v
    Full point group: C_inf_v

    Geometry (in Angstrom), charge = 0, multiplicity = 3:

       Center              X                  Y                   Z               Mass
    ------------   -----------------  -----------------  -----------------  -----------------
         LI           0.000000000000     0.000000000000     1.891760044023     7.016003436600
         AL           0.000000000000     0.000000000000    -0.491913941651    26.981538530000

  Nuclear repulsion =    8.658025946570902

  ==> Basis Set <==

  Basis Set: CC-PVDZ
    Blend: CC-PVDZ
    Number of shells: 14
    Number of basis functions: 32
    Number of Cartesian functions: 34
    Spherical Harmonics?: true
    Max angular momentum: 2

  ==> DFJKGrad: Density-Fitted SCF Gradients <==

    Gradient:                    1
    J tasked:                  Yes
    K tasked:                  Yes
    wK tasked:                  No
    OpenMP threads:              1
    Integrals threads:           1
    Memory [MiB]:              375
    Schwarz Cutoff:          1E-12
    Fitting Condition:       1E-10

   => Auxiliary Basis Set <=

  Basis Set: (CC-PVDZ AUX)
    Blend: CC-PVDZ-JKFIT + DEF2-UNIVERSAL-JKFIT
    Number of shells: 53
    Number of basis functions: 163
    Number of Cartesian functions: 190
    Spherical Harmonics?: true
    Max angular momentum: 3

  ==> DFT Potential <==

   => LibXC <=

    Version 6.2.2
    S. Lehtola, C. Steigemann, M. J.T. Oliveira, and M. A.L. Marques.,  SoftwareX 7, 1â€“5 (2018) (10.1016/j.softx.2017.11.002)

   => Composite Functional: B3LYP <=

    B3LYP Hyb-GGA Exchange-Correlation Functional

    P. J. Stephens, F. J. Devlin, C. F. Chabalowski, and M. J. Frisch.,  J. Phys. Chem. 98, 11623 (1994) (10.1021/j100096a001)

    Deriv               =              1
    GGA                 =           TRUE
    Meta                =          FALSE

    Exchange Hybrid     =           TRUE
    MP2 Hybrid          =          FALSE

   => Exchange Functionals <=

    0.0800   Slater exchange
    0.7200         Becke 88

   => Exact (HF) Exchange <=

    0.2000               HF

   => Correlation Functionals <=

    0.1900   Vosko, Wilk & Nusair (VWN5_RPA)
    0.8100   Lee, Yang & Parr

   => LibXC Density Thresholds  <==

    XC_HYB_GGA_XC_B3LYP:  1.00E-15

   => Molecular Quadrature <=

    Radial Scheme          =       TREUTLER
    Pruning Scheme         =           NONE
    Nuclear Scheme         =       TREUTLER

    Blocking Scheme        =         OCTREE
    BS radius alpha        =              1
    Pruning alpha          =              1
    Radial Points          =             75
    Spherical Points       =            302
    Total Points           =          44301
    Total Blocks           =            447
    Max Points             =            254
    Max Functions          =             32
    Weights Tolerance      =       1.00E-15

  -Total Gradient:
     Atom            X                  Y                   Z
    ------   -----------------  -----------------  -----------------
       1        0.000000000000     0.000000000000    -0.000027866460
       2       -0.000000000000     0.000000000000     0.000025629512

*** tstop() called on Joses-MacBook-Pro-2.local at Wed Jul 16 18:34:04 2025
Module time:
	user time   =       0.72 seconds =       0.01 minutes
	system time =       1.74 seconds =       0.03 minutes
	total time  =          0 seconds =       0.00 minutes
Total time:
	user time   =      55.55 seconds =       0.93 minutes
	system time =      71.03 seconds =       1.18 minutes
	total time  =         12 seconds =       0.20 minutes

    			-----------------------------------------

    			 OPTKING 3.0: for geometry optimizations

    			     By R.A. King, Bethel University

    			        with contributions from

    			    A.V. Copan, J. Cayton, A. Heide

    			-----------------------------------------

	                            ===> Fragment 1 <==

	 Z (Atomic Numbers)          Masses                          Geom
	       3.000000             7.016003          0.00000000  0.00000000  3.57490838
	      13.000000            26.981539          0.00000000  0.00000000 -0.92958263

	 - Coordinate -           - BOHR/RAD -       - ANG/DEG -
	 R(1,2)           =         4.504491           2.383674

	        --- Internal Coordinate Step in ANG or DEG, aJ/ANG or AJ/DEG ---
	-------------------------------------------------------------------------------
	           Coordinate      Previous         Force          Change          New
	           ----------      --------        ------          ------        ------
	               R(1,2)       2.38367        0.00022        0.00034       2.38401
	-------------------------------------------------------------------------------

	                                 ==> Convergence Check <==

	Measures of convergence in internal coordinates in au.

	Criteria marked as inactive (o), active & met (*), and active & unmet ( ).

	----------------------------------------------------------------------------------------------
	   Step    Total Energy     Delta E     Max Force     RMS Force      Max Disp      RMS Disp
	----------------------------------------------------------------------------------------------
	  Convergence Criteria     1.00e-06 *    3.00e-04 *             o    1.20e-03 *             o
	----------------------------------------------------------------------------------------------
	    12    -249.87163792   -1.41e-07 *    2.67e-05 *    2.67e-05 o    6.40e-04 *    6.40e-04 o  ~
	----------------------------------------------------------------------------------------------

Next Geometry in Ang
	Fragment 1 (Ang)

	   Li   0.0000000000   0.0000000000   1.8919293893
	   Al   0.0000000000   0.0000000000  -0.4920832870

    Final optimized geometry and variables:
    Molecular point group: c2v
    Full point group: C_inf_v

    Geometry (in Angstrom), charge = 0, multiplicity = 3:

    LI           0.000000000000     0.000000000000     1.891760044023
    AL           0.000000000000     0.000000000000    -0.491913941651

    Psi4 stopped on: Wednesday, 16 July 2025 06:34PM
    Psi4 wall time for execution: 0:00:12.84

*** Psi4 exiting successfully. Buy a developer a beer!
