                               Psi4 1.9.1 release

  ==> Input File <==

--------------------------------------------------------------------------
molecule {
0 3
Be   0.00000        0.60000        0.00000
Ne   0.00000       -0.60000        0.00000
}

set {
basis              cc-pvdz
reference          uks
maxiter            500
geom_maxiter       500
DAMPING_PERCENTAGE 1
guess              SAP
}

optimize('b3lyp')
--------------------------------------------------------------------------

    Molecular point group: c2v
  Charge       = 0
  Multiplicity = 3
  Basis Set: CC-PVDZ
    Blend: CC-PVDZ
  Basis Set: (CC-PVDZ AUX)
    Blend: CC-PVDZ-JKFIT + DEF2-UNIVERSAL-JKFIT
  @DF-UKS Final Energy:  -143.35568881193001
    Total Energy =                       -143.3556888119300083
 Dipole X            :          0.0000000            0.0000000            0.0000000
 Dipole Y            :          0.0000000            0.0000000            0.0000000
 Dipole Z            :         -0.2824032           -0.7937203           -1.0761235
 Magnitude           :                                                    1.0761235
    Molecular point group: c2v
  Basis Set: CC-PVDZ
    Blend: CC-PVDZ
  Basis Set: (CC-PVDZ AUX)
    Blend: CC-PVDZ-JKFIT + DEF2-UNIVERSAL-JKFIT
  Basis Set: CC-PVDZ
    Blend: CC-PVDZ
  Basis Set: (CC-PVDZ AUX)
    Blend: CC-PVDZ-JKFIT + DEF2-UNIVERSAL-JKFIT
  @DF-UKS Final Energy:  -143.43653361664440
    Total Energy =                       -143.4365336166443967
  Basis Set: CC-PVDZ
    Blend: CC-PVDZ
  Basis Set: (CC-PVDZ AUX)
    Blend: CC-PVDZ-JKFIT + DEF2-UNIVERSAL-JKFIT
  Basis Set: CC-PVDZ
    Blend: CC-PVDZ
  @DF-UKS Final Energy:  -143.46242135901230
    Total Energy =                       -143.4624213590122963
  @DF-UKS Final Energy:  -143.47805928636126
    Total Energy =                       -143.4780592863612299
  @DF-UKS Final Energy:  -143.48412150168343
    Total Energy =                       -143.4841215016834326
  @DF-UKS Final Energy:  -143.48816086530169
    Total Energy =                       -143.4881608653016940
  @DF-UKS Final Energy:  -143.49084473456512
    Total Energy =                       -143.4908447345651155
  @DF-UKS Final Energy:  -143.49232921262444
    Total Energy =                       -143.4923292126244121
  @DF-UKS Final Energy:  -143.49313009492522
    Total Energy =                       -143.4931300949251920
  @DF-UKS Final Energy:  -143.49352596166011
    Total Energy =                       -143.4935259616601400
  @DF-UKS Final Energy:  -143.49368616408665
    Total Energy =                       -143.4936861640866539
  @DF-UKS Final Energy:  -143.49373652929378
    Total Energy =                       -143.4937365292937841
  @DF-UKS Final Energy:  -143.49374549670299
    Total Energy =                       -143.4937454967029851
  Basis Set: (CC-PVDZ AUX)
    Blend: CC-PVDZ-JKFIT + DEF2-UNIVERSAL-JKFIT
  Basis Set: CC-PVDZ
    Blend: CC-PVDZ
  Basis Set: (CC-PVDZ AUX)
    Blend: CC-PVDZ-JKFIT + DEF2-UNIVERSAL-JKFIT
  @DF-UKS Final Energy:  -143.49374700858382
    Total Energy =                       -143.4937470085838243
  Basis Set: CC-PVDZ
    Blend: CC-PVDZ
  Basis Set: (CC-PVDZ AUX)
    Blend: CC-PVDZ-JKFIT + DEF2-UNIVERSAL-JKFIT
  Charge       = 0
  Multiplicity = 3
  Basis Set: CC-PVDZ
    Blend: CC-PVDZ
  Basis Set: (CC-PVDZ AUX)
    Blend: CC-PVDZ-JKFIT + DEF2-UNIVERSAL-JKFIT

    Orbital Energies [Eh]
    ---------------------

    Alpha Occupied:

       1A1   -31.016274     2A1    -4.108015     3A1    -1.478163
       4A1    -0.593515     1B2    -0.584328     1B1    -0.583840
       5A1    -0.257940     2B1    -0.133393

    Alpha Virtual:

       2B2    -0.062175     6A1    -0.043076     3B1     0.169072
       7A1     0.182981     3B2     0.188068     8A1     0.188552
       4B1     0.444931     1A2     0.445652     9A1     0.454149
       4B2     0.462392    10A1     0.495821     5B2     1.358938
       5B1     1.360210    11A1     1.428844    12A1     2.053127
       6B2     4.680026     6B1     4.680567    13A1     4.681414
       2A2     4.681447    14A1     4.687956

    Beta Occupied:

       1A1   -31.015374     2A1    -4.089486     3A1    -1.476510
       4A1    -0.590354     1B2    -0.583693     1B1    -0.582369

    Beta Virtual:

       5A1    -0.111183     2B2    -0.005421     6A1     0.008468
       2B1     0.022489     7A1     0.207726     3B2     0.212823
       8A1     0.228886     3B1     0.239597     4B2     0.520407
       9A1     0.541864     4B1     0.548023     1A2     0.559220
      10A1     0.573603     5B2     1.360683     5B1     1.363474
      11A1     1.432633    12A1     2.058735     6B2     4.681414
      13A1     4.682187     2A2     4.682235     6B1     4.682297
      14A1     4.689846

    Final Occupation by Irrep:
             A1    A2    B1    B2
    DOCC [     4,    0,    1,    1 ]
    SOCC [     1,    0,    1,    0 ]
    NA   [     5,    0,    2,    1 ]
    NB   [     4,    0,    1,    1 ]

  @DF-UKS Final Energy:  -143.49374721453185

   => Energetics <=

    Nuclear Repulsion Energy =              8.8157644046818469
    One-Electron Energy =                -218.6614753330090366
    Two-Electron Energy =                  78.7117752972573754
    DFT Exchange-Correlation Energy =     -12.3598115834620295
    Empirical Dispersion Energy =           0.0000000000000000
    VV10 Nonlocal Energy =                  0.0000000000000000
    Total Energy =                       -143.4937472145318225

  UHF NO Occupations:
  HONO-2 :    4 A1 1.9999815
  HONO-1 :    5 A1 1.0000000
  HONO-0 :    2 B1 1.0000000
  LUNO+0 :    6 A1 0.0000185
  LUNO+1 :    2 B2 0.0000023
  LUNO+2 :    3 B1 0.0000015
  LUNO+3 :    7 A1 0.0000005

Computation Completed

Properties will be evaluated at   0.000000,   0.000000,   0.000000 [a0]

Properties computed using the SCF density matrix

 Multipole Moments:

 ------------------------------------------------------------------------------------
     Multipole            Electronic (a.u.)      Nuclear  (a.u.)        Total (a.u.)
 ------------------------------------------------------------------------------------

 L = 1.  Multiply by 2.5417464519 to convert [e a0] to [Debye]
 Dipole X            :          0.0000000            0.0000000            0.0000000
 Dipole Y            :          0.0000000            0.0000000            0.0000000
 Dipole Z            :          1.2792186           -1.5881349           -0.3089163
 Magnitude           :                                                    0.3089163

 ------------------------------------------------------------------------------------

*** tstop() called on Joses-MacBook-Pro-2.local at Wed Jul 16 18:42:08 2025
Module time:
	user time   =       3.12 seconds =       0.05 minutes
	system time =       2.26 seconds =       0.04 minutes
	total time  =          1 seconds =       0.02 minutes
Total time:
	user time   =      55.53 seconds =       0.93 minutes
	system time =      65.12 seconds =       1.09 minutes
	total time  =         12 seconds =       0.20 minutes

*** tstart() called on Joses-MacBook-Pro-2.local
*** at Wed Jul 16 18:42:08 2025

         ------------------------------------------------------------
                                   SCF GRAD
                          Rob Parrish, Justin Turney,
                       Andy Simmonett, and Alex Sokolov
         ------------------------------------------------------------

  ==> Geometry <==

    Molecular point group: c2v
    Full point group: C_inf_v

    Geometry (in Angstrom), charge = 0, multiplicity = 3:

       Center              X                  Y                   Z               Mass
    ------------   -----------------  -----------------  -----------------  -----------------
         BE           0.000000000000     0.000000000000     1.655006581863     9.012183065000
         NE           0.000000000000     0.000000000000    -0.746043112200    19.992440176200

  Nuclear repulsion =    8.815764404681847

  ==> Basis Set <==

  Basis Set: CC-PVDZ
    Blend: CC-PVDZ
    Number of shells: 12
    Number of basis functions: 28
    Number of Cartesian functions: 30
    Spherical Harmonics?: true
    Max angular momentum: 2

  ==> DFJKGrad: Density-Fitted SCF Gradients <==

    Gradient:                    1
    J tasked:                  Yes
    K tasked:                  Yes
    wK tasked:                  No
    OpenMP threads:              1
    Integrals threads:           1
    Memory [MiB]:              375
    Schwarz Cutoff:          1E-12
    Fitting Condition:       1E-10

   => Auxiliary Basis Set <=

  Basis Set: (CC-PVDZ AUX)
    Blend: CC-PVDZ-JKFIT + DEF2-UNIVERSAL-JKFIT
    Number of shells: 41
    Number of basis functions: 121
    Number of Cartesian functions: 141
    Spherical Harmonics?: true
    Max angular momentum: 3

  ==> DFT Potential <==

   => LibXC <=

    Version 6.2.2
    S. Lehtola, C. Steigemann, M. J.T. Oliveira, and M. A.L. Marques.,  SoftwareX 7, 1â€“5 (2018) (10.1016/j.softx.2017.11.002)

   => Composite Functional: B3LYP <=

    B3LYP Hyb-GGA Exchange-Correlation Functional

    P. J. Stephens, F. J. Devlin, C. F. Chabalowski, and M. J. Frisch.,  J. Phys. Chem. 98, 11623 (1994) (10.1021/j100096a001)

    Deriv               =              1
    GGA                 =           TRUE
    Meta                =          FALSE

    Exchange Hybrid     =           TRUE
    MP2 Hybrid          =          FALSE

   => Exchange Functionals <=

    0.0800   Slater exchange
    0.7200         Becke 88

   => Exact (HF) Exchange <=

    0.2000               HF

   => Correlation Functionals <=

    0.1900   Vosko, Wilk & Nusair (VWN5_RPA)
    0.8100   Lee, Yang & Parr

   => LibXC Density Thresholds  <==

    XC_HYB_GGA_XC_B3LYP:  1.00E-15

   => Molecular Quadrature <=

    Radial Scheme          =       TREUTLER
    Pruning Scheme         =           NONE
    Nuclear Scheme         =       TREUTLER

    Blocking Scheme        =         OCTREE
    BS radius alpha        =              1
    Pruning alpha          =              1
    Radial Points          =             75
    Spherical Points       =            302
    Total Points           =          43627
    Total Blocks           =            397
    Max Points             =            255
    Max Functions          =             28
    Weights Tolerance      =       1.00E-15

  -Total Gradient:
     Atom            X                  Y                   Z
    ------   -----------------  -----------------  -----------------
       1        0.000000000000     0.000000000000    -0.000020087948
       2        0.000000000000    -0.000000000000     0.000014242150

*** tstop() called on Joses-MacBook-Pro-2.local at Wed Jul 16 18:42:08 2025
Module time:
	user time   =       0.53 seconds =       0.01 minutes
	system time =       1.06 seconds =       0.02 minutes
	total time  =          0 seconds =       0.00 minutes
Total time:
	user time   =      56.07 seconds =       0.93 minutes
	system time =      66.18 seconds =       1.10 minutes
	total time  =         12 seconds =       0.20 minutes

    			-----------------------------------------

    			 OPTKING 3.0: for geometry optimizations

    			     By R.A. King, Bethel University

    			        with contributions from

    			    A.V. Copan, J. Cayton, A. Heide

    			-----------------------------------------

	                            ===> Fragment 1 <==

	 Z (Atomic Numbers)          Masses                          Geom
	       4.000000             9.012183          0.00000000  0.00000000  3.12750918
	      10.000000            19.992440          0.00000000  0.00000000 -1.40981716

	 - Coordinate -           - BOHR/RAD -       - ANG/DEG -
	 R(1,2)           =         4.537326           2.401050

	        --- Internal Coordinate Step in ANG or DEG, aJ/ANG or AJ/DEG ---
	-------------------------------------------------------------------------------
	           Coordinate      Previous         Force          Change          New
	           ----------      --------        ------          ------        ------
	               R(1,2)       2.40105        0.00014        0.00232       2.40337
	-------------------------------------------------------------------------------

	                                 ==> Convergence Check <==

	Measures of convergence in internal coordinates in au.

	Criteria marked as inactive (o), active & met (*), and active & unmet ( ).

	----------------------------------------------------------------------------------------------
	   Step    Total Energy     Delta E     Max Force     RMS Force      Max Disp      RMS Disp
	----------------------------------------------------------------------------------------------
	  Convergence Criteria     1.00e-06 *    3.00e-04 *             o    1.20e-03 *             o
	----------------------------------------------------------------------------------------------
	    15    -143.49374721   -2.06e-07 *    1.72e-05 *    1.72e-05 o    4.39e-03      4.39e-03 o  ~
	----------------------------------------------------------------------------------------------

Next Geometry in Ang
	Fragment 1 (Ang)

	   Be   0.0000000000   0.0000000000   1.6561678841
	   Ne   0.0000000000   0.0000000000  -0.7472044144

    Final optimized geometry and variables:
    Molecular point group: c2v
    Full point group: C_inf_v

    Geometry (in Angstrom), charge = 0, multiplicity = 3:

    BE           0.000000000000     0.000000000000     1.655006581863
    NE           0.000000000000     0.000000000000    -0.746043112200

    Psi4 stopped on: Wednesday, 16 July 2025 06:42PM
    Psi4 wall time for execution: 0:00:12.12

*** Psi4 exiting successfully. Buy a developer a beer!
