                               Psi4 1.9.1 release

  ==> Input File <==

--------------------------------------------------------------------------
molecule {
0 3
Cl   0.00000        0.60000        0.00000
Cl   0.00000       -0.60000        0.00000
}

set {
basis              cc-pvdz
reference          uks
maxiter            500
geom_maxiter       500
DAMPING_PERCENTAGE 1
guess              SAP
}

optimize('b3lyp')
--------------------------------------------------------------------------

    Molecular point group: d2h
  Charge       = 0
  Multiplicity = 3
  Basis Set: CC-PVDZ
    Blend: CC-PVDZ
  Basis Set: (CC-PVDZ AUX)
    Blend: CC-PVDZ-JKFIT
  @DF-UKS Final Energy:  -918.79775644454446
    Total Energy =                       -918.7977564445444614
 Dipole X            :          0.0000000            0.0000000            0.0000000
 Dipole Y            :          0.0000000            0.0000000            0.0000000
 Dipole Z            :          0.0000000            0.0000000            0.0000000
 Magnitude           :                                                    0.0000000
    Molecular point group: d2h
  Basis Set: CC-PVDZ
    Blend: CC-PVDZ
  Basis Set: (CC-PVDZ AUX)
    Blend: CC-PVDZ-JKFIT
  Basis Set: CC-PVDZ
    Blend: CC-PVDZ
  Basis Set: (CC-PVDZ AUX)
    Blend: CC-PVDZ-JKFIT
  @DF-UKS Final Energy:  -918.84856350311645
    Total Energy =                       -918.8485635031164520
  Basis Set: CC-PVDZ
    Blend: CC-PVDZ
  Basis Set: (CC-PVDZ AUX)
    Blend: CC-PVDZ-JKFIT
  Basis Set: CC-PVDZ
    Blend: CC-PVDZ
  @DF-UKS Final Energy:  -918.94166671232495
    Total Energy =                       -918.9416667123249454
  @DF-UKS Final Energy:  -919.23587763928413
    Total Energy =                       -919.2358776392841264
  @DF-UKS Final Energy:  -919.78659502006576
    Total Energy =                       -919.7865950200658745
  @DF-UKS Final Energy:  -920.00679419117853
    Total Energy =                       -920.0067941911785283
  @DF-UKS Final Energy:  -920.16384612107788
    Total Energy =                       -920.1638461210777677
  @DF-UKS Final Energy:  -920.26075919330515
    Total Energy =                       -920.2607591933049207
  @DF-UKS Final Energy:  -920.31004146594103
    Total Energy =                       -920.3100414659409125
  @DF-UKS Final Energy:  -920.33045578010012
    Total Energy =                       -920.3304557801001238
  @DF-UKS Final Energy:  -920.33757688150877
    Total Energy =                       -920.3375768815088804
  @DF-UKS Final Energy:  -920.33910609877717
    Total Energy =                       -920.3391060987770516
  @DF-UKS Final Energy:  -920.33955856641433
    Total Energy =                       -920.3395585664144392
  @DF-UKS Final Energy:  -920.33961941647885
    Total Energy =                       -920.3396194164788540
  @DF-UKS Final Energy:  -920.33962816120652
    Total Energy =                       -920.3396281612066332
  Basis Set: (CC-PVDZ AUX)
    Blend: CC-PVDZ-JKFIT
  Basis Set: CC-PVDZ
    Blend: CC-PVDZ
  Basis Set: (CC-PVDZ AUX)
    Blend: CC-PVDZ-JKFIT
  @DF-UKS Final Energy:  -920.33962955607956
    Total Energy =                       -920.3396295560795579
  Basis Set: CC-PVDZ
    Blend: CC-PVDZ
  Basis Set: (CC-PVDZ AUX)
    Blend: CC-PVDZ-JKFIT
  Charge       = 0
  Multiplicity = 3
  Basis Set: CC-PVDZ
    Blend: CC-PVDZ
  Basis Set: (CC-PVDZ AUX)
    Blend: CC-PVDZ-JKFIT

    Orbital Energies [Eh]
    ---------------------

    Alpha Occupied:

       1B2u -101.598190     1Ag  -101.598190     2B2u   -9.512025
       2Ag    -9.511967     3Ag    -7.274530     3B2u   -7.274523
       1B1g   -7.274451     1B3u   -7.274448     1B3g   -7.261659
       1B1u   -7.261656     4Ag    -0.879849     4B2u   -0.827490
       5Ag    -0.448424     2B3u   -0.404163     2B1u   -0.375406
       2B1g   -0.366215     2B3g   -0.335862     5B2u   -0.302181

    Alpha Virtual:

       3B3u    0.462691     6B2u    0.473641     3B1u    0.482418
       6Ag     0.518003     3B1g    0.533808     3B3g    0.552791
       7Ag     0.593592     8Ag     0.612238     4B3u    0.631906
       7B2u    0.633951     4B1u    0.654660     1B2g    0.678140
       9Ag     0.680249     1Au     0.687314     8B2u    0.688955
       4B1g    0.739975     4B3g    0.763227     9B2u    1.144888

    Beta Occupied:

       1Ag  -101.590367     1B2u -101.590367     2B2u   -9.504336
       2Ag    -9.504299     1B1g   -7.260095     1B3u   -7.260095
       3Ag    -7.259481     3B2u   -7.259470     1B3g   -7.256969
       1B1u   -7.256968     4Ag    -0.829217     4B2u   -0.771057
       5Ag    -0.386478     2B1u   -0.358664     2B3u   -0.335920
       2B3g   -0.317952

    Beta Virtual:

       2B1g   -0.253740     5B2u   -0.183963     3B1u    0.490350
       3B3u    0.491942     6B2u    0.502752     6Ag     0.543911
       3B3g    0.566975     3B1g    0.568595     7Ag     0.638099
       8Ag     0.640903     7B2u    0.674566     4B1u    0.687533
       4B3u    0.688948     1B2g    0.712570     9Ag     0.713788
       1Au     0.722710     8B2u    0.723907     4B3g    0.792693
       4B1g    0.794863     9B2u    1.176650

    Final Occupation by Irrep:
             Ag   B1g   B2g   B3g    Au   B1u   B2u   B3u
    DOCC [     5,    1,    0,    2,    0,    2,    4,    2 ]
    SOCC [     0,    1,    0,    0,    0,    0,    1,    0 ]
    NA   [     5,    2,    0,    2,    0,    2,    5,    2 ]
    NB   [     5,    1,    0,    2,    0,    2,    4,    2 ]

  @DF-UKS Final Energy:  -920.33962960021779

   => Energetics <=

    Nuclear Repulsion Energy =             62.1183474230552193
    One-Electron Energy =               -1394.1051471113460138
    Two-Electron Energy =                 457.0839084071016600
    DFT Exchange-Correlation Energy =     -45.4367383190286631
    Empirical Dispersion Energy =           0.0000000000000000
    VV10 Nonlocal Energy =                  0.0000000000000000
    Total Energy =                       -920.3396296002177905

  UHF NO Occupations:
  HONO-2 :    2B3u 1.9992987
  HONO-1 :    5B2u 1.0000000
  HONO-0 :    2B1g 1.0000000
  LUNO+0 :    3B3u 0.0007013
  LUNO+1 :    6 Ag 0.0006451
  LUNO+2 :    6B2u 0.0002416
  LUNO+3 :    7 Ag 0.0002153

Computation Completed

Properties will be evaluated at   0.000000,   0.000000,   0.000000 [a0]

Properties computed using the SCF density matrix

 Multipole Moments:

 ------------------------------------------------------------------------------------
     Multipole            Electronic (a.u.)      Nuclear  (a.u.)        Total (a.u.)
 ------------------------------------------------------------------------------------

 L = 1.  Multiply by 2.5417464519 to convert [e a0] to [Debye]
 Dipole X            :          0.0000000            0.0000000            0.0000000
 Dipole Y            :          0.0000000            0.0000000            0.0000000
 Dipole Z            :          0.0000000            0.0000000            0.0000000
 Magnitude           :                                                    0.0000000

 ------------------------------------------------------------------------------------

*** tstop() called on Joses-MacBook-Pro-2.local at Wed Jul 16 20:32:36 2025
Module time:
	user time   =       5.55 seconds =       0.09 minutes
	system time =       2.16 seconds =       0.04 minutes
	total time  =          1 seconds =       0.02 minutes
Total time:
	user time   =     166.86 seconds =       2.78 minutes
	system time =      58.85 seconds =       0.98 minutes
	total time  =         21 seconds =       0.35 minutes

*** tstart() called on Joses-MacBook-Pro-2.local
*** at Wed Jul 16 20:32:36 2025

         ------------------------------------------------------------
                                   SCF GRAD
                          Rob Parrish, Justin Turney,
                       Andy Simmonett, and Alex Sokolov
         ------------------------------------------------------------

  ==> Geometry <==

    Molecular point group: d2h
    Full point group: D_inf_h

    Geometry (in Angstrom), charge = 0, multiplicity = 3:

       Center              X                  Y                   Z               Mass
    ------------   -----------------  -----------------  -----------------  -----------------
         CL          -0.000000000000     1.230974585030     0.000000000000    34.968852682000
         CL           0.000000000000    -1.230974585030     0.000000000000    34.968852682000

  Nuclear repulsion =   62.118347423055219

  ==> Basis Set <==

  Basis Set: CC-PVDZ
    Blend: CC-PVDZ
    Number of shells: 16
    Number of basis functions: 36
    Number of Cartesian functions: 38
    Spherical Harmonics?: true
    Max angular momentum: 2

  ==> DFJKGrad: Density-Fitted SCF Gradients <==

    Gradient:                    1
    J tasked:                  Yes
    K tasked:                  Yes
    wK tasked:                  No
    OpenMP threads:              1
    Integrals threads:           1
    Memory [MiB]:              375
    Schwarz Cutoff:          1E-12
    Fitting Condition:       1E-10

   => Auxiliary Basis Set <=

  Basis Set: (CC-PVDZ AUX)
    Blend: CC-PVDZ-JKFIT
    Number of shells: 72
    Number of basis functions: 224
    Number of Cartesian functions: 260
    Spherical Harmonics?: true
    Max angular momentum: 3

  ==> DFT Potential <==

   => LibXC <=

    Version 6.2.2
    S. Lehtola, C. Steigemann, M. J.T. Oliveira, and M. A.L. Marques.,  SoftwareX 7, 1â€“5 (2018) (10.1016/j.softx.2017.11.002)

   => Composite Functional: B3LYP <=

    B3LYP Hyb-GGA Exchange-Correlation Functional

    P. J. Stephens, F. J. Devlin, C. F. Chabalowski, and M. J. Frisch.,  J. Phys. Chem. 98, 11623 (1994) (10.1021/j100096a001)

    Deriv               =              1
    GGA                 =           TRUE
    Meta                =          FALSE

    Exchange Hybrid     =           TRUE
    MP2 Hybrid          =          FALSE

   => Exchange Functionals <=

    0.0800   Slater exchange
    0.7200         Becke 88

   => Exact (HF) Exchange <=

    0.2000               HF

   => Correlation Functionals <=

    0.1900   Vosko, Wilk & Nusair (VWN5_RPA)
    0.8100   Lee, Yang & Parr

   => LibXC Density Thresholds  <==

    XC_HYB_GGA_XC_B3LYP:  1.00E-15

   => Molecular Quadrature <=

    Radial Scheme          =       TREUTLER
    Pruning Scheme         =           NONE
    Nuclear Scheme         =       TREUTLER

    Blocking Scheme        =         OCTREE
    BS radius alpha        =              1
    Pruning alpha          =              1
    Radial Points          =             75
    Spherical Points       =            302
    Total Points           =          39724
    Total Blocks           =            368
    Max Points             =            256
    Max Functions          =             36
    Weights Tolerance      =       1.00E-15

  -Total Gradient:
     Atom            X                  Y                   Z
    ------   -----------------  -----------------  -----------------
       1        0.000000000000    -0.000012759003    -0.000000000000
       2       -0.000000000000     0.000012759003     0.000000000000

*** tstop() called on Joses-MacBook-Pro-2.local at Wed Jul 16 20:32:36 2025
Module time:
	user time   =       2.15 seconds =       0.04 minutes
	system time =       1.49 seconds =       0.02 minutes
	total time  =          0 seconds =       0.00 minutes
Total time:
	user time   =     169.02 seconds =       2.82 minutes
	system time =      60.34 seconds =       1.01 minutes
	total time  =         21 seconds =       0.35 minutes

    			-----------------------------------------

    			 OPTKING 3.0: for geometry optimizations

    			     By R.A. King, Bethel University

    			        with contributions from

    			    A.V. Copan, J. Cayton, A. Heide

    			-----------------------------------------

	                            ===> Fragment 1 <==

	 Z (Atomic Numbers)          Masses                          Geom
	      17.000000            34.968853         -0.00000000  2.32620483  0.00000000
	      17.000000            34.968853          0.00000000 -2.32620483  0.00000000

	 - Coordinate -           - BOHR/RAD -       - ANG/DEG -
	 R(1,2)           =         4.652410           2.461949

	        --- Internal Coordinate Step in ANG or DEG, aJ/ANG or AJ/DEG ---
	-------------------------------------------------------------------------------
	           Coordinate      Previous         Force          Change          New
	           ----------      --------        ------          ------        ------
	               R(1,2)       2.46195        0.00011        0.00010       2.46205
	-------------------------------------------------------------------------------

	                                 ==> Convergence Check <==

	Measures of convergence in internal coordinates in au.

	Criteria marked as inactive (o), active & met (*), and active & unmet ( ).

	----------------------------------------------------------------------------------------------
	   Step    Total Energy     Delta E     Max Force     RMS Force      Max Disp      RMS Disp
	----------------------------------------------------------------------------------------------
	  Convergence Criteria     1.00e-06 *    3.00e-04 *             o    1.20e-03 *             o
	----------------------------------------------------------------------------------------------
	    17    -920.33962960   -4.41e-08 *    1.28e-05 *    1.28e-05 o    1.92e-04 *    1.92e-04 o  ~
	----------------------------------------------------------------------------------------------

Next Geometry in Ang
	Fragment 1 (Ang)

	   Cl  -0.0000000000   1.2310254640   0.0000000000
	   Cl   0.0000000000  -1.2310254640   0.0000000000

    Final optimized geometry and variables:
    Molecular point group: d2h
    Full point group: D_inf_h

    Geometry (in Angstrom), charge = 0, multiplicity = 3:

    CL          -0.000000000000     1.230974585030     0.000000000000
    CL           0.000000000000    -1.230974585030     0.000000000000

    Psi4 stopped on: Wednesday, 16 July 2025 08:32PM
    Psi4 wall time for execution: 0:00:22.26

*** Psi4 exiting successfully. Buy a developer a beer!
