                               Psi4 1.9.1 release

  ==> Input File <==

--------------------------------------------------------------------------
molecule {
0 3
Na   0.00000        0.60000        0.00000
Al   0.00000       -0.60000        0.00000
}

set {
basis              cc-pvdz
reference          uks
maxiter            500
geom_maxiter       500
DAMPING_PERCENTAGE 1
guess              SAP
}

optimize('b3lyp')
--------------------------------------------------------------------------

    Molecular point group: c2v
  Charge       = 0
  Multiplicity = 3
  Basis Set: CC-PVDZ
    Blend: CC-PVDZ
  Basis Set: (CC-PVDZ AUX)
    Blend: CC-PVDZ-JKFIT + DEF2-UNIVERSAL-JKFIT
  @DF-UKS Final Energy:  -403.99012025931688
    Total Energy =                       -403.9901202593168819
 Dipole X            :          0.0000000            0.0000000            0.0000000
 Dipole Y            :          0.0000000            0.0000000            0.0000000
 Dipole Z            :          1.3877397           -0.0939390            1.2938007
 Magnitude           :                                                    1.2938007
    Molecular point group: c2v
  Basis Set: CC-PVDZ
    Blend: CC-PVDZ
  Basis Set: (CC-PVDZ AUX)
    Blend: CC-PVDZ-JKFIT + DEF2-UNIVERSAL-JKFIT
  Basis Set: CC-PVDZ
    Blend: CC-PVDZ
  Basis Set: (CC-PVDZ AUX)
    Blend: CC-PVDZ-JKFIT + DEF2-UNIVERSAL-JKFIT
  @DF-UKS Final Energy:  -403.99707642093313
    Total Energy =                       -403.9970764209332401
  Basis Set: CC-PVDZ
    Blend: CC-PVDZ
  Basis Set: (CC-PVDZ AUX)
    Blend: CC-PVDZ-JKFIT + DEF2-UNIVERSAL-JKFIT
  Basis Set: CC-PVDZ
    Blend: CC-PVDZ
  @DF-UKS Final Energy:  -404.01053973916737
    Total Energy =                       -404.0105397391674273
  @DF-UKS Final Energy:  -404.05976237228219
    Total Energy =                       -404.0597623722821936
  @DF-UKS Final Energy:  -404.29286152486992
    Total Energy =                       -404.2928615248699202
  @DF-UKS Final Energy:  -404.43115400669387
    Total Energy =                       -404.4311540066938733
  @DF-UKS Final Energy:  -404.53411598666179
    Total Energy =                       -404.5341159866618455
  @DF-UKS Final Energy:  -404.59890344666366
    Total Energy =                       -404.5989034466636554
  @DF-UKS Final Energy:  -404.63286976299429
    Total Energy =                       -404.6328697629942894
  @DF-UKS Final Energy:  -404.64760216763341
    Total Energy =                       -404.6476021676333517
  @DF-UKS Final Energy:  -404.65283979150490
    Total Energy =                       -404.6528397915048458
  @DF-UKS Final Energy:  -404.65418487983692
    Total Energy =                       -404.6541848798368619
  @DF-UKS Final Energy:  -404.65434869048244
    Total Energy =                       -404.6543486904824363
  Basis Set: (CC-PVDZ AUX)
    Blend: CC-PVDZ-JKFIT + DEF2-UNIVERSAL-JKFIT
  Basis Set: CC-PVDZ
    Blend: CC-PVDZ
  Basis Set: (CC-PVDZ AUX)
    Blend: CC-PVDZ-JKFIT + DEF2-UNIVERSAL-JKFIT
  @DF-UKS Final Energy:  -404.65437137146591
    Total Energy =                       -404.6543713714659134
  Basis Set: CC-PVDZ
    Blend: CC-PVDZ
  Basis Set: (CC-PVDZ AUX)
    Blend: CC-PVDZ-JKFIT + DEF2-UNIVERSAL-JKFIT
  Charge       = 0
  Multiplicity = 3
  Basis Set: CC-PVDZ
    Blend: CC-PVDZ
  Basis Set: (CC-PVDZ AUX)
    Blend: CC-PVDZ-JKFIT + DEF2-UNIVERSAL-JKFIT

    Orbital Energies [Eh]
    ---------------------

    Alpha Occupied:

       1A1   -56.024249     2A1   -38.545358     3A1    -4.105800
       4A1    -2.660533     1B1    -2.657657     1B2    -2.657657
       5A1    -2.288765     6A1    -1.220956     2B2    -1.219685
       2B1    -1.219685     7A1    -0.303512     3B2    -0.111819
       3B1    -0.111819

    Alpha Virtual:

       8A1    -0.105417     9A1    -0.043845     4B2    -0.007283
       4B1    -0.007283    10A1     0.014443    11A1     0.043534
       5B1     0.063495     5B2     0.063495    12A1     0.131916
      13A1     0.140329     1A2     0.140329     6B1     0.165856
       6B2     0.165856    14A1     0.181038     7B2     0.260112
       7B1     0.260112    15A1     0.280430     2A2     0.303099
      16A1     0.303100    17A1     0.379840     8B2     0.405990
       8B1     0.405990    18A1     0.578953

    Beta Occupied:

       1A1   -56.021470     2A1   -38.545062     3A1    -4.102420
       4A1    -2.658971     1B1    -2.651298     1B2    -2.651298
       5A1    -2.288297     6A1    -1.220893     2B2    -1.218900
       2B1    -1.218900     7A1    -0.262949

    Beta Virtual:

       8A1    -0.099207     3B2    -0.040645     3B1    -0.040645
       9A1    -0.039359     4B2     0.010669     4B1     0.010669
      10A1     0.021027    11A1     0.044011     5B1     0.069202
       5B2     0.069202    12A1     0.135391    13A1     0.154508
       1A2     0.154508     6B1     0.176984     6B2     0.176984
      14A1     0.186117     7B2     0.287323     7B1     0.287323
      15A1     0.297567    16A1     0.351795     2A2     0.351797
      17A1     0.390447     8B2     0.427745     8B1     0.427745
      18A1     0.587197

    Final Occupation by Irrep:
             A1    A2    B1    B2
    DOCC [     7,    0,    2,    2 ]
    SOCC [     0,    0,    1,    1 ]
    NA   [     7,    0,    3,    3 ]
    NB   [     7,    0,    2,    2 ]

  @DF-UKS Final Energy:  -404.65437228815597

   => Energetics <=

    Nuclear Repulsion Energy =             28.1488039651645501
    One-Electron Energy =                -620.6170332482079175
    Two-Electron Energy =                 214.4548515916697511
    DFT Exchange-Correlation Energy =     -26.6409945967824022
    Empirical Dispersion Energy =           0.0000000000000000
    VV10 Nonlocal Energy =                  0.0000000000000000
    Total Energy =                       -404.6543722881559688

  UHF NO Occupations:
  HONO-2 :    7 A1 1.9980669
  HONO-1 :    3 B2 1.0000000
  HONO-0 :    3 B1 1.0000000
  LUNO+0 :    8 A1 0.0019331
  LUNO+1 :    4 B2 0.0000002
  LUNO+2 :    4 B1 0.0000002
  LUNO+3 :    9 A1 0.0000001

Computation Completed

Properties will be evaluated at   0.000000,   0.000000,   0.000000 [a0]

Properties computed using the SCF density matrix

 Multipole Moments:

 ------------------------------------------------------------------------------------
     Multipole            Electronic (a.u.)      Nuclear  (a.u.)        Total (a.u.)
 ------------------------------------------------------------------------------------

 L = 1.  Multiply by 2.5417464519 to convert [e a0] to [Debye]
 Dipole X            :          0.0000000            0.0000000            0.0000000
 Dipole Y            :          0.0000000            0.0000000            0.0000000
 Dipole Z            :          2.6210736           -0.2104466            2.4106270
 Magnitude           :                                                    2.4106270

 ------------------------------------------------------------------------------------

*** tstop() called on Joses-MacBook-Pro-2.local at Wed Jul 16 19:41:59 2025
Module time:
	user time   =       8.32 seconds =       0.14 minutes
	system time =       2.12 seconds =       0.04 minutes
	total time  =          0 seconds =       0.00 minutes
Total time:
	user time   =     179.37 seconds =       2.99 minutes
	system time =      50.78 seconds =       0.85 minutes
	total time  =         21 seconds =       0.35 minutes

*** tstart() called on Joses-MacBook-Pro-2.local
*** at Wed Jul 16 19:41:59 2025

         ------------------------------------------------------------
                                   SCF GRAD
                          Rob Parrish, Justin Turney,
                       Andy Simmonett, and Alex Sokolov
         ------------------------------------------------------------

  ==> Geometry <==

    Molecular point group: c2v
    Full point group: C_inf_v

    Geometry (in Angstrom), charge = 0, multiplicity = 3:

       Center              X                  Y                   Z               Mass
    ------------   -----------------  -----------------  -----------------  -----------------
         NA           0.000000000000     0.000000000000     1.451520648655    22.989769282000
         AL           0.000000000000     0.000000000000    -1.236776204720    26.981538530000

  Nuclear repulsion =   28.148803965164550

  ==> Basis Set <==

  Basis Set: CC-PVDZ
    Blend: CC-PVDZ
    Number of shells: 16
    Number of basis functions: 36
    Number of Cartesian functions: 38
    Spherical Harmonics?: true
    Max angular momentum: 2

  ==> DFJKGrad: Density-Fitted SCF Gradients <==

    Gradient:                    1
    J tasked:                  Yes
    K tasked:                  Yes
    wK tasked:                  No
    OpenMP threads:              1
    Integrals threads:           1
    Memory [MiB]:              375
    Schwarz Cutoff:          1E-12
    Fitting Condition:       1E-10

   => Auxiliary Basis Set <=

  Basis Set: (CC-PVDZ AUX)
    Blend: CC-PVDZ-JKFIT + DEF2-UNIVERSAL-JKFIT
    Number of shells: 70
    Number of basis functions: 224
    Number of Cartesian functions: 267
    Spherical Harmonics?: true
    Max angular momentum: 4

  ==> DFT Potential <==

   => LibXC <=

    Version 6.2.2
    S. Lehtola, C. Steigemann, M. J.T. Oliveira, and M. A.L. Marques.,  SoftwareX 7, 1â€“5 (2018) (10.1016/j.softx.2017.11.002)

   => Composite Functional: B3LYP <=

    B3LYP Hyb-GGA Exchange-Correlation Functional

    P. J. Stephens, F. J. Devlin, C. F. Chabalowski, and M. J. Frisch.,  J. Phys. Chem. 98, 11623 (1994) (10.1021/j100096a001)

    Deriv               =              1
    GGA                 =           TRUE
    Meta                =          FALSE

    Exchange Hybrid     =           TRUE
    MP2 Hybrid          =          FALSE

   => Exchange Functionals <=

    0.0800   Slater exchange
    0.7200         Becke 88

   => Exact (HF) Exchange <=

    0.2000               HF

   => Correlation Functionals <=

    0.1900   Vosko, Wilk & Nusair (VWN5_RPA)
    0.8100   Lee, Yang & Parr

   => LibXC Density Thresholds  <==

    XC_HYB_GGA_XC_B3LYP:  1.00E-15

   => Molecular Quadrature <=

    Radial Scheme          =       TREUTLER
    Pruning Scheme         =           NONE
    Nuclear Scheme         =       TREUTLER

    Blocking Scheme        =         OCTREE
    BS radius alpha        =              1
    Pruning alpha          =              1
    Radial Points          =             75
    Spherical Points       =            302
    Total Points           =          43839
    Total Blocks           =            455
    Max Points             =            256
    Max Functions          =             36
    Weights Tolerance      =       1.00E-15

  -Total Gradient:
     Atom            X                  Y                   Z
    ------   -----------------  -----------------  -----------------
       1        0.000000000000     0.000000000000    -0.000040982543
       2       -0.000000000000     0.000000000000     0.000058492709

*** tstop() called on Joses-MacBook-Pro-2.local at Wed Jul 16 19:42:00 2025
Module time:
	user time   =       2.80 seconds =       0.05 minutes
	system time =       0.96 seconds =       0.02 minutes
	total time  =          1 seconds =       0.02 minutes
Total time:
	user time   =     182.17 seconds =       3.04 minutes
	system time =      51.75 seconds =       0.86 minutes
	total time  =         22 seconds =       0.37 minutes

    			-----------------------------------------

    			 OPTKING 3.0: for geometry optimizations

    			     By R.A. King, Bethel University

    			        with contributions from

    			    A.V. Copan, J. Cayton, A. Heide

    			-----------------------------------------

	                            ===> Fragment 1 <==

	 Z (Atomic Numbers)          Masses                          Geom
	      11.000000            22.989769          0.00000000  0.00000000  2.74297649
	      13.000000            26.981539          0.00000000  0.00000000 -2.33716831

	 - Coordinate -           - BOHR/RAD -       - ANG/DEG -
	 R(1,2)           =         5.080145           2.688297

	        --- Internal Coordinate Step in ANG or DEG, aJ/ANG or AJ/DEG ---
	-------------------------------------------------------------------------------
	           Coordinate      Previous         Force          Change          New
	           ----------      --------        ------          ------        ------
	               R(1,2)       2.68830        0.00041        0.00075       2.68904
	-------------------------------------------------------------------------------

	                                 ==> Convergence Check <==

	Measures of convergence in internal coordinates in au.

	Criteria marked as inactive (o), active & met (*), and active & unmet ( ).

	----------------------------------------------------------------------------------------------
	   Step    Total Energy     Delta E     Max Force     RMS Force      Max Disp      RMS Disp
	----------------------------------------------------------------------------------------------
	  Convergence Criteria     1.00e-06 *    3.00e-04 *             o    1.20e-03 *             o
	----------------------------------------------------------------------------------------------
	    15    -404.65437229   -9.17e-07 *    4.97e-05 *    4.97e-05 o    1.41e-03      1.41e-03 o  ~
	----------------------------------------------------------------------------------------------

Next Geometry in Ang
	Fragment 1 (Ang)

	   Na   0.0000000000   0.0000000000   1.4518941909
	   Al   0.0000000000   0.0000000000  -1.2371497469

    Final optimized geometry and variables:
    Molecular point group: c2v
    Full point group: C_inf_v

    Geometry (in Angstrom), charge = 0, multiplicity = 3:

    NA           0.000000000000     0.000000000000     1.451520648655
    AL           0.000000000000     0.000000000000    -1.236776204720

    Psi4 stopped on: Wednesday, 16 July 2025 07:42PM
    Psi4 wall time for execution: 0:00:22.66

*** Psi4 exiting successfully. Buy a developer a beer!
