                               Psi4 1.9.1 release

  ==> Input File <==

--------------------------------------------------------------------------
molecule {
0 3
Si   0.00000        0.60000        0.00000
Ar   0.00000       -0.60000        0.00000
}

set {
basis              cc-pvdz
reference          uks
maxiter            500
geom_maxiter       500
DAMPING_PERCENTAGE 1
guess              SAP
}

optimize('b3lyp')
--------------------------------------------------------------------------

    Molecular point group: c2v
  Charge       = 0
  Multiplicity = 3
  Basis Set: CC-PVDZ
    Blend: CC-PVDZ
  Basis Set: (CC-PVDZ AUX)
    Blend: CC-PVDZ-JKFIT
  @DF-UKS Final Energy:  -815.50820632961370
    Total Energy =                       -815.5082063296138131
 Dipole X            :          0.0000000            0.0000000            0.0000000
 Dipole Y            :          0.0000000            0.0000000            0.0000000
 Dipole Z            :         -4.1800435            1.8654469           -2.3145967
 Magnitude           :                                                    2.3145967
    Molecular point group: c2v
  Basis Set: CC-PVDZ
    Blend: CC-PVDZ
  Basis Set: (CC-PVDZ AUX)
    Blend: CC-PVDZ-JKFIT
  Basis Set: CC-PVDZ
    Blend: CC-PVDZ
  Basis Set: (CC-PVDZ AUX)
    Blend: CC-PVDZ-JKFIT
  @DF-UKS Final Energy:  -815.54961115065066
    Total Energy =                       -815.5496111506506622
  Basis Set: CC-PVDZ
    Blend: CC-PVDZ
  Basis Set: (CC-PVDZ AUX)
    Blend: CC-PVDZ-JKFIT
  Basis Set: CC-PVDZ
    Blend: CC-PVDZ
  @DF-UKS Final Energy:  -815.62641804062548
    Total Energy =                       -815.6264180406253672
  @DF-UKS Final Energy:  -815.87641899920834
    Total Energy =                       -815.8764189992083402
  @DF-UKS Final Energy:  -816.41286572133617
    Total Energy =                       -816.4128657213361748
  @DF-UKS Final Energy:  -816.61279704475453
    Total Energy =                       -816.6127970447545295
  @DF-UKS Final Energy:  -816.74849853030094
    Total Energy =                       -816.7484985303009353
  @DF-UKS Final Energy:  -816.83077158998776
    Total Energy =                       -816.8307715899876484
  @DF-UKS Final Energy:  -816.87775343565272
    Total Energy =                       -816.8777534356527212
  @DF-UKS Final Energy:  -816.90375322421528
    Total Energy =                       -816.9037532242152793
  @DF-UKS Final Energy:  -816.91785276461189
    Total Energy =                       -816.9178527646118937
  @DF-UKS Final Energy:  -816.92518193057003
    Total Energy =                       -816.9251819305700337
  @DF-UKS Final Energy:  -816.92883948285260
    Total Energy =                       -816.9288394828525952
  @DF-UKS Final Energy:  -816.93057301430929
    Total Energy =                       -816.9305730143092887
  @DF-UKS Final Energy:  -816.93133261473065
    Total Energy =                       -816.9313326147306498
  @DF-UKS Final Energy:  -816.93162609637795
    Total Energy =                       -816.9316260963779541
  @DF-UKS Final Energy:  -816.93171891802172
    Total Energy =                       -816.9317189180217156
  @DF-UKS Final Energy:  -816.93173566357109
    Total Energy =                       -816.9317356635709757
  Basis Set: (CC-PVDZ AUX)
    Blend: CC-PVDZ-JKFIT
  Basis Set: CC-PVDZ
    Blend: CC-PVDZ
  Basis Set: (CC-PVDZ AUX)
    Blend: CC-PVDZ-JKFIT
  @DF-UKS Final Energy:  -816.93173931036392
    Total Energy =                       -816.9317393103639233
  Basis Set: CC-PVDZ
    Blend: CC-PVDZ
  Basis Set: (CC-PVDZ AUX)
    Blend: CC-PVDZ-JKFIT
  Charge       = 0
  Multiplicity = 3
  Basis Set: CC-PVDZ
    Blend: CC-PVDZ
  Basis Set: (CC-PVDZ AUX)
    Blend: CC-PVDZ-JKFIT

    Orbital Energies [Eh]
    ---------------------

    Alpha Occupied:

       1A1  -115.116067     2A1   -66.167056     3A1   -11.152152
       4A1    -8.702336     1B1    -8.701849     1B2    -8.701849
       5A1    -5.308765     6A1    -3.670534     2B1    -3.666575
       2B2    -3.666575     7A1    -0.979997     8A1    -0.458713
       3B2    -0.436247     3B1    -0.436247     9A1    -0.431285
       4B2    -0.187710     4B1    -0.187710

    Alpha Virtual:

      10A1    -0.117858    11A1     0.243005     5B1     0.302251
       5B2     0.302251    12A1     0.321265    13A1     0.339682
      14A1     0.341840     1A2     0.341842     6B1     0.345128
       6B2     0.345128     7B1     0.581414     7B2     0.581414
      15A1     0.627403    16A1     0.789423     8B2     0.821236
       8B1     0.821236    17A1     0.821575     2A2     0.821603
      18A1     0.872797

    Beta Occupied:

       1A1  -115.116042     2A1   -66.161192     3A1   -11.152129
       4A1    -8.702336     1B1    -8.701796     1B2    -8.701796
       5A1    -5.302225     6A1    -3.667265     2B1    -3.653934
       2B2    -3.653934     7A1    -0.979917     8A1    -0.443855
       3B2    -0.436136     3B1    -0.436136     9A1    -0.381316

    Beta Virtual:

      10A1    -0.099808     4B1    -0.072118     4B2    -0.072118
      11A1     0.266922    12A1     0.329097     5B1     0.340931
       5B2     0.340931    13A1     0.365849     6B2     0.390436
       6B1     0.390436    14A1     0.420839     1A2     0.420843
       7B1     0.582496     7B2     0.582496    15A1     0.628485
      16A1     0.790280     8B2     0.821369     8B1     0.821369
      17A1     0.821715     2A2     0.821743    18A1     0.875989

    Final Occupation by Irrep:
             A1    A2    B1    B2
    DOCC [     9,    0,    3,    3 ]
    SOCC [     0,    0,    1,    1 ]
    NA   [     9,    0,    4,    4 ]
    NB   [     9,    0,    3,    3 ]

  @DF-UKS Final Energy:  -816.93174031005617

   => Energetics <=

    Nuclear Repulsion Energy =             39.1605518864954476
    One-Electron Energy =               -1207.0979498584597422
    Two-Electron Energy =                 392.6669976137654885
    DFT Exchange-Correlation Energy =     -41.6613399518572436
    Empirical Dispersion Energy =           0.0000000000000000
    VV10 Nonlocal Energy =                  0.0000000000000000
    Total Energy =                       -816.9317403100561705

  UHF NO Occupations:
  HONO-2 :    9 A1 1.9984161
  HONO-1 :    4 B1 1.0000000
  HONO-0 :    4 B2 1.0000000
  LUNO+0 :   10 A1 0.0015839
  LUNO+1 :   11 A1 0.0000052
  LUNO+2 :    5 B1 0.0000002
  LUNO+3 :    5 B2 0.0000002

Computation Completed

Properties will be evaluated at   0.000000,   0.000000,   0.000000 [a0]

Properties computed using the SCF density matrix

 Multipole Moments:

 ------------------------------------------------------------------------------------
     Multipole            Electronic (a.u.)      Nuclear  (a.u.)        Total (a.u.)
 ------------------------------------------------------------------------------------

 L = 1.  Multiply by 2.5417464519 to convert [e a0] to [Debye]
 Dipole X            :          0.0000000            0.0000000            0.0000000
 Dipole Y            :          0.0000000            0.0000000            0.0000000
 Dipole Z            :         -5.4383063            5.2936413           -0.1446651
 Magnitude           :                                                    0.1446651

 ------------------------------------------------------------------------------------

*** tstop() called on Joses-MacBook-Pro-2.local at Wed Jul 16 20:20:01 2025
Module time:
	user time   =      12.66 seconds =       0.21 minutes
	system time =       2.30 seconds =       0.04 minutes
	total time  =          2 seconds =       0.03 minutes
Total time:
	user time   =     252.77 seconds =       4.21 minutes
	system time =      69.71 seconds =       1.16 minutes
	total time  =         31 seconds =       0.52 minutes

*** tstart() called on Joses-MacBook-Pro-2.local
*** at Wed Jul 16 20:20:01 2025

         ------------------------------------------------------------
                                   SCF GRAD
                          Rob Parrish, Justin Turney,
                       Andy Simmonett, and Alex Sokolov
         ------------------------------------------------------------

  ==> Geometry <==

    Molecular point group: c2v
    Full point group: C_inf_v

    Geometry (in Angstrom), charge = 0, multiplicity = 3:

       Center              X                  Y                   Z               Mass
    ------------   -----------------  -----------------  -----------------  -----------------
         SI           0.000000000000     0.000000000000     2.003010008697    27.976926534650
         AR           0.000000000000     0.000000000000    -1.402270322268    39.962383123700

  Nuclear repulsion =   39.160551886495448

  ==> Basis Set <==

  Basis Set: CC-PVDZ
    Blend: CC-PVDZ
    Number of shells: 16
    Number of basis functions: 36
    Number of Cartesian functions: 38
    Spherical Harmonics?: true
    Max angular momentum: 2

  ==> DFJKGrad: Density-Fitted SCF Gradients <==

    Gradient:                    1
    J tasked:                  Yes
    K tasked:                  Yes
    wK tasked:                  No
    OpenMP threads:              1
    Integrals threads:           1
    Memory [MiB]:              375
    Schwarz Cutoff:          1E-12
    Fitting Condition:       1E-10

   => Auxiliary Basis Set <=

  Basis Set: (CC-PVDZ AUX)
    Blend: CC-PVDZ-JKFIT
    Number of shells: 72
    Number of basis functions: 224
    Number of Cartesian functions: 260
    Spherical Harmonics?: true
    Max angular momentum: 3

  ==> DFT Potential <==

   => LibXC <=

    Version 6.2.2
    S. Lehtola, C. Steigemann, M. J.T. Oliveira, and M. A.L. Marques.,  SoftwareX 7, 1â€“5 (2018) (10.1016/j.softx.2017.11.002)

   => Composite Functional: B3LYP <=

    B3LYP Hyb-GGA Exchange-Correlation Functional

    P. J. Stephens, F. J. Devlin, C. F. Chabalowski, and M. J. Frisch.,  J. Phys. Chem. 98, 11623 (1994) (10.1021/j100096a001)

    Deriv               =              1
    GGA                 =           TRUE
    Meta                =          FALSE

    Exchange Hybrid     =           TRUE
    MP2 Hybrid          =          FALSE

   => Exchange Functionals <=

    0.0800   Slater exchange
    0.7200         Becke 88

   => Exact (HF) Exchange <=

    0.2000               HF

   => Correlation Functionals <=

    0.1900   Vosko, Wilk & Nusair (VWN5_RPA)
    0.8100   Lee, Yang & Parr

   => LibXC Density Thresholds  <==

    XC_HYB_GGA_XC_B3LYP:  1.00E-15

   => Molecular Quadrature <=

    Radial Scheme          =       TREUTLER
    Pruning Scheme         =           NONE
    Nuclear Scheme         =       TREUTLER

    Blocking Scheme        =         OCTREE
    BS radius alpha        =              1
    Pruning alpha          =              1
    Radial Points          =             75
    Spherical Points       =            302
    Total Points           =          41723
    Total Blocks           =            396
    Max Points             =            252
    Max Functions          =             36
    Weights Tolerance      =       1.00E-15

  -Total Gradient:
     Atom            X                  Y                   Z
    ------   -----------------  -----------------  -----------------
       1        0.000000000000     0.000000000000    -0.000021531202
       2        0.000000000000     0.000000000000     0.000023922532

*** tstop() called on Joses-MacBook-Pro-2.local at Wed Jul 16 20:20:01 2025
Module time:
	user time   =       3.79 seconds =       0.06 minutes
	system time =       1.50 seconds =       0.03 minutes
	total time  =          0 seconds =       0.00 minutes
Total time:
	user time   =     256.56 seconds =       4.28 minutes
	system time =      71.22 seconds =       1.19 minutes
	total time  =         31 seconds =       0.52 minutes

    			-----------------------------------------

    			 OPTKING 3.0: for geometry optimizations

    			     By R.A. King, Bethel University

    			        with contributions from

    			    A.V. Copan, J. Cayton, A. Heide

    			-----------------------------------------

	                            ===> Fragment 1 <==

	 Z (Atomic Numbers)          Masses                          Geom
	      14.000000            27.976927          0.00000000  0.00000000  3.78514034
	      18.000000            39.962383          0.00000000  0.00000000 -2.64990686

	 - Coordinate -           - BOHR/RAD -       - ANG/DEG -
	 R(1,2)           =         6.435047           3.405280

	        --- Internal Coordinate Step in ANG or DEG, aJ/ANG or AJ/DEG ---
	-------------------------------------------------------------------------------
	           Coordinate      Previous         Force          Change          New
	           ----------      --------        ------          ------        ------
	               R(1,2)       3.40528        0.00019        0.00512       3.41040
	-------------------------------------------------------------------------------

	                                 ==> Convergence Check <==

	Measures of convergence in internal coordinates in au.

	Criteria marked as inactive (o), active & met (*), and active & unmet ( ).

	----------------------------------------------------------------------------------------------
	   Step    Total Energy     Delta E     Max Force     RMS Force      Max Disp      RMS Disp
	----------------------------------------------------------------------------------------------
	  Convergence Criteria     1.00e-06 *    3.00e-04 *             o    1.20e-03 *             o
	----------------------------------------------------------------------------------------------
	    20    -816.93174031   -1.00e-06 *    2.27e-05 *    2.27e-05 o    9.67e-03      9.67e-03 o  ~
	----------------------------------------------------------------------------------------------

Next Geometry in Ang
	Fragment 1 (Ang)

	   Si   0.0000000000   0.0000000000   2.0055694670
	   Ar   0.0000000000   0.0000000000  -1.4048297806

    Final optimized geometry and variables:
    Molecular point group: c2v
    Full point group: C_inf_v

    Geometry (in Angstrom), charge = 0, multiplicity = 3:

    SI           0.000000000000     0.000000000000     2.003010008697
    AR           0.000000000000     0.000000000000    -1.402270322268

    Psi4 stopped on: Wednesday, 16 July 2025 08:20PM
    Psi4 wall time for execution: 0:00:32.55

*** Psi4 exiting successfully. Buy a developer a beer!
