                               Psi4 1.9.1 release

  ==> Input File <==

--------------------------------------------------------------------------
molecule {
0 3
F   0.00000        0.60000        0.00000
Cl   0.00000       -0.60000        0.00000
}

set {
basis              cc-pvdz
reference          uks
maxiter            500
geom_maxiter       500
DAMPING_PERCENTAGE 1
guess              SAP
}

optimize('b3lyp')
--------------------------------------------------------------------------

    Molecular point group: c2v
  Charge       = 0
  Multiplicity = 3
  Basis Set: CC-PVDZ
    Blend: CC-PVDZ
  Basis Set: (CC-PVDZ AUX)
    Blend: CC-PVDZ-JKFIT
  @DF-UKS Final Energy:  -559.44425090313075
    Total Energy =                       -559.4442509031307509
 Dipole X            :          0.0000000            0.0000000            0.0000000
 Dipole Y            :          0.0000000            0.0000000            0.0000000
 Dipole Z            :          0.8410246           -0.3467936            0.4942310
 Magnitude           :                                                    0.4942310
    Molecular point group: c2v
  Basis Set: CC-PVDZ
    Blend: CC-PVDZ
  Basis Set: (CC-PVDZ AUX)
    Blend: CC-PVDZ-JKFIT
  Basis Set: CC-PVDZ
    Blend: CC-PVDZ
  Basis Set: (CC-PVDZ AUX)
    Blend: CC-PVDZ-JKFIT
  @DF-UKS Final Energy:  -559.64515030414407
    Total Energy =                       -559.6451503041440674
  Basis Set: CC-PVDZ
    Blend: CC-PVDZ
  Basis Set: (CC-PVDZ AUX)
    Blend: CC-PVDZ-JKFIT
  Basis Set: CC-PVDZ
    Blend: CC-PVDZ
  @DF-UKS Final Energy:  -559.77607617593515
    Total Energy =                       -559.7760761759351453
  @DF-UKS Final Energy:  -559.85566066327510
    Total Energy =                       -559.8556606632751027
  @DF-UKS Final Energy:  -559.89157721249035
    Total Energy =                       -559.8915772124903469
  @DF-UKS Final Energy:  -559.90346314578096
    Total Energy =                       -559.9034631457809610
  @DF-UKS Final Energy:  -559.90660529591923
    Total Energy =                       -559.9066052959192348
  @DF-UKS Final Energy:  -559.90704658241998
    Total Energy =                       -559.9070465824199800
  @DF-UKS Final Energy:  -559.90711925335654
    Total Energy =                       -559.9071192533565409
  @DF-UKS Final Energy:  -559.90713234211489
    Total Energy =                       -559.9071323421148918
  Basis Set: (CC-PVDZ AUX)
    Blend: CC-PVDZ-JKFIT
  Basis Set: CC-PVDZ
    Blend: CC-PVDZ
  Basis Set: (CC-PVDZ AUX)
    Blend: CC-PVDZ-JKFIT
  @DF-UKS Final Energy:  -559.90713521496423
    Total Energy =                       -559.9071352149642280
  Basis Set: CC-PVDZ
    Blend: CC-PVDZ
  Basis Set: (CC-PVDZ AUX)
    Blend: CC-PVDZ-JKFIT
  Charge       = 0
  Multiplicity = 3
  Basis Set: CC-PVDZ
    Blend: CC-PVDZ
  Basis Set: (CC-PVDZ AUX)
    Blend: CC-PVDZ-JKFIT

    Orbital Energies [Eh]
    ---------------------

    Alpha Occupied:

       1A1  -101.627529     2A1   -24.733309     3A1    -9.540403
       1B2    -7.305756     4A1    -7.302208     1B1    -7.289026
       5A1    -1.178834     6A1    -0.874880     7A1    -0.508686
       2B2    -0.458833     2B1    -0.425373     3B2    -0.400729
       3B1    -0.362555     8A1    -0.325610

    Alpha Virtual:

       9A1     0.488203     4B2     0.491558     4B1     0.514963
      10A1     0.571556     5B2     0.620810     5B1     0.651034
      11A1     0.653068     1A2     0.654838    12A1     0.711269
       6B2     1.148019     6B1     1.170281    13A1     1.226109
      14A1     1.843814     7B2     3.509877    15A1     3.533891
       7B1     3.535794     2A2     3.543261    16A1     3.566898

    Beta Occupied:

       1A1  -101.618274     2A1   -24.704843     3A1    -9.531294
       1B2    -7.287509     4A1    -7.285683     1B1    -7.283480
       5A1    -1.105204     6A1    -0.810130     7A1    -0.413493
       2B1    -0.400327     2B2    -0.364939     3B1    -0.339317

    Beta Virtual:

       3B2    -0.258857     8A1    -0.170105     9A1     0.519704
       4B1     0.525057     4B2     0.527599    10A1     0.606369
       5B1     0.687183     5B2     0.691890     1A2     0.700004
      11A1     0.702089    12A1     0.756273     6B1     1.186073
       6B2     1.195384    13A1     1.277622    14A1     1.887521
       2A2     3.585359    15A1     3.586424     7B1     3.587932
       7B2     3.591709    16A1     3.631704

    Final Occupation by Irrep:
             A1    A2    B1    B2
    DOCC [     7,    0,    3,    2 ]
    SOCC [     1,    0,    0,    1 ]
    NA   [     8,    0,    3,    3 ]
    NB   [     7,    0,    3,    2 ]

  @DF-UKS Final Energy:  -559.90713547599194

   => Energetics <=

    Nuclear Repulsion Energy =             39.7625461544165049
    One-Electron Energy =                -853.6907901681920521
    Two-Electron Energy =                 285.1409967036461808
    DFT Exchange-Correlation Energy =     -31.1198881658625481
    Empirical Dispersion Energy =           0.0000000000000000
    VV10 Nonlocal Energy =                  0.0000000000000000
    Total Energy =                       -559.9071354759918222

  UHF NO Occupations:
  HONO-2 :    7 A1 1.9990547
  HONO-1 :    3 B2 1.0000000
  HONO-0 :    8 A1 1.0000000
  LUNO+0 :    9 A1 0.0009453
  LUNO+1 :    4 B2 0.0008563
  LUNO+2 :   10 A1 0.0003311
  LUNO+3 :   11 A1 0.0000960

Computation Completed

Properties will be evaluated at   0.000000,   0.000000,   0.000000 [a0]

Properties computed using the SCF density matrix

 Multipole Moments:

 ------------------------------------------------------------------------------------
     Multipole            Electronic (a.u.)      Nuclear  (a.u.)        Total (a.u.)
 ------------------------------------------------------------------------------------

 L = 1.  Multiply by 2.5417464519 to convert [e a0] to [Debye]
 Dipole X            :          0.0000000            0.0000000            0.0000000
 Dipole Y            :          0.0000000            0.0000000            0.0000000
 Dipole Z            :          0.0816320           -0.5884482           -0.5068162
 Magnitude           :                                                    0.5068162

 ------------------------------------------------------------------------------------

*** tstop() called on Joses-MacBook-Pro-2.local at Wed Jul 16 19:30:57 2025
Module time:
	user time   =       3.95 seconds =       0.07 minutes
	system time =       3.53 seconds =       0.06 minutes
	total time  =          1 seconds =       0.02 minutes
Total time:
	user time   =      79.78 seconds =       1.33 minutes
	system time =      56.67 seconds =       0.94 minutes
	total time  =         13 seconds =       0.22 minutes

*** tstart() called on Joses-MacBook-Pro-2.local
*** at Wed Jul 16 19:30:57 2025

         ------------------------------------------------------------
                                   SCF GRAD
                          Rob Parrish, Justin Turney,
                       Andy Simmonett, and Alex Sokolov
         ------------------------------------------------------------

  ==> Geometry <==

    Molecular point group: c2v
    Full point group: C_inf_v

    Geometry (in Angstrom), charge = 0, multiplicity = 3:

       Center              X                  Y                   Z               Mass
    ------------   -----------------  -----------------  -----------------  -----------------
         F            0.000000000000     0.000000000000     1.319378568967    18.998403162730
         CL           0.000000000000     0.000000000000    -0.716811792639    34.968852682000

  Nuclear repulsion =   39.762546154416505

  ==> Basis Set <==

  Basis Set: CC-PVDZ
    Blend: CC-PVDZ
    Number of shells: 14
    Number of basis functions: 32
    Number of Cartesian functions: 34
    Spherical Harmonics?: true
    Max angular momentum: 2

  ==> DFJKGrad: Density-Fitted SCF Gradients <==

    Gradient:                    1
    J tasked:                  Yes
    K tasked:                  Yes
    wK tasked:                  No
    OpenMP threads:              1
    Integrals threads:           1
    Memory [MiB]:              375
    Schwarz Cutoff:          1E-12
    Fitting Condition:       1E-10

   => Auxiliary Basis Set <=

  Basis Set: (CC-PVDZ AUX)
    Blend: CC-PVDZ-JKFIT
    Number of shells: 60
    Number of basis functions: 182
    Number of Cartesian functions: 211
    Spherical Harmonics?: true
    Max angular momentum: 3

  ==> DFT Potential <==

   => LibXC <=

    Version 6.2.2
    S. Lehtola, C. Steigemann, M. J.T. Oliveira, and M. A.L. Marques.,  SoftwareX 7, 1â€“5 (2018) (10.1016/j.softx.2017.11.002)

   => Composite Functional: B3LYP <=

    B3LYP Hyb-GGA Exchange-Correlation Functional

    P. J. Stephens, F. J. Devlin, C. F. Chabalowski, and M. J. Frisch.,  J. Phys. Chem. 98, 11623 (1994) (10.1021/j100096a001)

    Deriv               =              1
    GGA                 =           TRUE
    Meta                =          FALSE

    Exchange Hybrid     =           TRUE
    MP2 Hybrid          =          FALSE

   => Exchange Functionals <=

    0.0800   Slater exchange
    0.7200         Becke 88

   => Exact (HF) Exchange <=

    0.2000               HF

   => Correlation Functionals <=

    0.1900   Vosko, Wilk & Nusair (VWN5_RPA)
    0.8100   Lee, Yang & Parr

   => LibXC Density Thresholds  <==

    XC_HYB_GGA_XC_B3LYP:  1.00E-15

   => Molecular Quadrature <=

    Radial Scheme          =       TREUTLER
    Pruning Scheme         =           NONE
    Nuclear Scheme         =       TREUTLER

    Blocking Scheme        =         OCTREE
    BS radius alpha        =              1
    Pruning alpha          =              1
    Radial Points          =             75
    Spherical Points       =            302
    Total Points           =          41892
    Total Blocks           =            368
    Max Points             =            256
    Max Functions          =             32
    Weights Tolerance      =       1.00E-15

  -Total Gradient:
     Atom            X                  Y                   Z
    ------   -----------------  -----------------  -----------------
       1        0.000000000000     0.000000000000    -0.000022326104
       2        0.000000000000     0.000000000000     0.000024586194

*** tstop() called on Joses-MacBook-Pro-2.local at Wed Jul 16 19:30:57 2025
Module time:
	user time   =       0.88 seconds =       0.01 minutes
	system time =       1.52 seconds =       0.03 minutes
	total time  =          0 seconds =       0.00 minutes
Total time:
	user time   =      80.67 seconds =       1.34 minutes
	system time =      58.19 seconds =       0.97 minutes
	total time  =         13 seconds =       0.22 minutes

    			-----------------------------------------

    			 OPTKING 3.0: for geometry optimizations

    			     By R.A. King, Bethel University

    			        with contributions from

    			    A.V. Copan, J. Cayton, A. Heide

    			-----------------------------------------

	                            ===> Fragment 1 <==

	 Z (Atomic Numbers)          Masses                          Geom
	       9.000000            18.998403          0.00000000  0.00000000  2.49326415
	      17.000000            34.968853          0.00000000  0.00000000 -1.35457797

	 - Coordinate -           - BOHR/RAD -       - ANG/DEG -
	 R(1,2)           =         3.847842           2.036190

	        --- Internal Coordinate Step in ANG or DEG, aJ/ANG or AJ/DEG ---
	-------------------------------------------------------------------------------
	           Coordinate      Previous         Force          Change          New
	           ----------      --------        ------          ------        ------
	               R(1,2)       2.03619        0.00019        0.00012       2.03631
	-------------------------------------------------------------------------------

	                                 ==> Convergence Check <==

	Measures of convergence in internal coordinates in au.

	Criteria marked as inactive (o), active & met (*), and active & unmet ( ).

	----------------------------------------------------------------------------------------------
	   Step    Total Energy     Delta E     Max Force     RMS Force      Max Disp      RMS Disp
	----------------------------------------------------------------------------------------------
	  Convergence Criteria     1.00e-06 *    3.00e-04 *             o    1.20e-03 *             o
	----------------------------------------------------------------------------------------------
	    12    -559.90713548   -2.61e-07 *    2.35e-05 *    2.35e-05 o    2.31e-04 *    2.31e-04 o  ~
	----------------------------------------------------------------------------------------------

Next Geometry in Ang
	Fragment 1 (Ang)

	    F   0.0000000000   0.0000000000   1.3194397565
	   Cl   0.0000000000   0.0000000000  -0.7168729802

    Final optimized geometry and variables:
    Molecular point group: c2v
    Full point group: C_inf_v

    Geometry (in Angstrom), charge = 0, multiplicity = 3:

    F            0.000000000000     0.000000000000     1.319378568967
    CL           0.000000000000     0.000000000000    -0.716811792639

    Psi4 stopped on: Wednesday, 16 July 2025 07:30PM
    Psi4 wall time for execution: 0:00:14.23

*** Psi4 exiting successfully. Buy a developer a beer!
