                               Psi4 1.9.1 release

  ==> Input File <==

--------------------------------------------------------------------------
molecule {
0 3
F   0.00000        0.60000        0.00000
Na   0.00000       -0.60000        0.00000
}

set {
basis              cc-pvdz
reference          uks
maxiter            500
geom_maxiter       500
DAMPING_PERCENTAGE 1
guess              SAP
}

optimize('b3lyp')
--------------------------------------------------------------------------

    Molecular point group: c2v
  Charge       = 0
  Multiplicity = 3
  Basis Set: CC-PVDZ
    Blend: CC-PVDZ
  Basis Set: (CC-PVDZ AUX)
    Blend: CC-PVDZ-JKFIT + DEF2-UNIVERSAL-JKFIT
  @DF-UKS Final Energy:  -261.58387797536989
    Total Energy =                       -261.5838779753698873
 Dipole X            :          0.0000000            0.0000000            0.0000000
 Dipole Y            :          0.0000000            0.0000000            0.0000000
 Dipole Z            :          0.8008806           -0.1120389            0.6888417
 Magnitude           :                                                    0.6888417
    Molecular point group: c2v
  Basis Set: CC-PVDZ
    Blend: CC-PVDZ
  Basis Set: (CC-PVDZ AUX)
    Blend: CC-PVDZ-JKFIT + DEF2-UNIVERSAL-JKFIT
  Basis Set: CC-PVDZ
    Blend: CC-PVDZ
  Basis Set: (CC-PVDZ AUX)
    Blend: CC-PVDZ-JKFIT + DEF2-UNIVERSAL-JKFIT
  @DF-UKS Final Energy:  -261.76786822496240
    Total Energy =                       -261.7678682249623989
  Basis Set: CC-PVDZ
    Blend: CC-PVDZ
  Basis Set: (CC-PVDZ AUX)
    Blend: CC-PVDZ-JKFIT + DEF2-UNIVERSAL-JKFIT
  Basis Set: CC-PVDZ
    Blend: CC-PVDZ
  @DF-UKS Final Energy:  -261.88153415136736
    Total Energy =                       -261.8815341513673616
  @DF-UKS Final Energy:  -261.93190793187881
    Total Energy =                       -261.9319079318788113
  @DF-UKS Final Energy:  -261.96359028069503
    Total Energy =                       -261.9635902806950298
  @DF-UKS Final Energy:  -261.98376440747592
    Total Energy =                       -261.9837644074759169
  @DF-UKS Final Energy:  -261.99561440089411
    Total Energy =                       -261.9956144008941124
  @DF-UKS Final Energy:  -262.00298617852627
    Total Energy =                       -262.0029861785262710
  @DF-UKS Final Energy:  -262.00783082287791
    Total Energy =                       -262.0078308228779065
  @DF-UKS Final Energy:  -262.01111896232942
    Total Energy =                       -262.0111189623294194
  @DF-UKS Final Energy:  -262.01392682951325
    Total Energy =                       -262.0139268295132524
  @DF-UKS Final Energy:  -262.01564898805526
    Total Energy =                       -262.0156489880552613
  @DF-UKS Final Energy:  -262.01671711720536
    Total Energy =                       -262.0167171172053600
  @DF-UKS Final Energy:  -262.01729766480850
    Total Energy =                       -262.0172976648084955
  @DF-UKS Final Energy:  -262.01759453102846
    Total Energy =                       -262.0175945310284646
  @DF-UKS Final Energy:  -262.01773322937294
    Total Energy =                       -262.0177332293729364
  @DF-UKS Final Energy:  -262.01778984783675
    Total Energy =                       -262.0177898478367524
  @DF-UKS Final Energy:  -262.01780136308059
    Total Energy =                       -262.0178013630805935
  @DF-UKS Final Energy:  -262.01780434744467
    Total Energy =                       -262.0178043474446667
  Basis Set: (CC-PVDZ AUX)
    Blend: CC-PVDZ-JKFIT + DEF2-UNIVERSAL-JKFIT
  Basis Set: CC-PVDZ
    Blend: CC-PVDZ
  Basis Set: (CC-PVDZ AUX)
    Blend: CC-PVDZ-JKFIT + DEF2-UNIVERSAL-JKFIT
  @DF-UKS Final Energy:  -262.01780540282925
    Total Energy =                       -262.0178054028292536
  Basis Set: CC-PVDZ
    Blend: CC-PVDZ
  Basis Set: (CC-PVDZ AUX)
    Blend: CC-PVDZ-JKFIT + DEF2-UNIVERSAL-JKFIT
  Charge       = 0
  Multiplicity = 3
  Basis Set: CC-PVDZ
    Blend: CC-PVDZ
  Basis Set: (CC-PVDZ AUX)
    Blend: CC-PVDZ-JKFIT + DEF2-UNIVERSAL-JKFIT

    Orbital Energies [Eh]
    ---------------------

    Alpha Occupied:

       1A1   -38.480174     2A1   -24.788892     3A1    -2.224916
       4A1    -1.218011     5A1    -1.155841     1B1    -1.155705
       1B2    -1.155705     6A1    -0.545783     2B1    -0.455861
       2B2    -0.455861     7A1    -0.128295

    Alpha Virtual:

       3B1    -0.020894     3B2    -0.020894     8A1    -0.017768
       9A1     0.053186    10A1     0.074756     4B2     0.075834
       4B1     0.075834     5B1     0.158662     5B2     0.158662
      11A1     0.158713     1A2     0.158714    12A1     0.163100
      13A1     1.069895     6B1     1.091132     6B2     1.091132
      14A1     1.491111    15A1     3.433903     7B2     3.454436
       7B1     3.454436     2A2     3.523619    16A1     3.524255

    Beta Occupied:

       1A1   -38.478701     2A1   -24.758165     3A1    -2.221959
       4A1    -1.153914     1B1    -1.153778     1B2    -1.153778
       5A1    -1.127215     2B1    -0.424468     2B2    -0.424468

    Beta Virtual:

       6A1    -0.254827     7A1    -0.064780     3B1     0.000208
       3B2     0.000208     8A1     0.002641     9A1     0.065197
      10A1     0.093076     4B2     0.093137     4B1     0.093137
       5B1     0.187052     5B2     0.187052    11A1     0.187838
       1A2     0.187847    12A1     0.190918     6B1     1.109007
       6B2     1.109007    13A1     1.178769    14A1     1.538281
       2A2     3.538893    15A1     3.539485     7B2     3.549419
       7B1     3.549419    16A1     3.570091

    Final Occupation by Irrep:
             A1    A2    B1    B2
    DOCC [     5,    0,    2,    2 ]
    SOCC [     2,    0,    0,    0 ]
    NA   [     7,    0,    2,    2 ]
    NB   [     5,    0,    2,    2 ]

  @DF-UKS Final Energy:  -262.01780581324823

   => Energetics <=

    Nuclear Repulsion Energy =             13.7417376399802382
    One-Electron Energy =                -394.5172509123725604
    Two-Electron Energy =                 138.7848590874459092
    DFT Exchange-Correlation Energy =     -20.0271516283017874
    Empirical Dispersion Energy =           0.0000000000000000
    VV10 Nonlocal Energy =                  0.0000000000000000
    Total Energy =                       -262.0178058132482306

  UHF NO Occupations:
  HONO-2 :    5 A1 1.9996823
  HONO-1 :    6 A1 1.0000000
  HONO-0 :    7 A1 1.0000000
  LUNO+0 :    8 A1 0.0003177
  LUNO+1 :    3 B2 0.0000599
  LUNO+2 :    3 B1 0.0000599
  LUNO+3 :    4 B2 0.0000012

Computation Completed

Properties will be evaluated at   0.000000,   0.000000,   0.000000 [a0]

Properties computed using the SCF density matrix

 Multipole Moments:

 ------------------------------------------------------------------------------------
     Multipole            Electronic (a.u.)      Nuclear  (a.u.)        Total (a.u.)
 ------------------------------------------------------------------------------------

 L = 1.  Multiply by 2.5417464519 to convert [e a0] to [Debye]
 Dipole X            :          0.0000000            0.0000000            0.0000000
 Dipole Y            :          0.0000000            0.0000000            0.0000000
 Dipole Z            :          0.4465087           -0.3559446            0.0905641
 Magnitude           :                                                    0.0905641

 ------------------------------------------------------------------------------------

*** tstop() called on Joses-MacBook-Pro-2.local at Wed Jul 16 19:26:21 2025
Module time:
	user time   =       2.60 seconds =       0.04 minutes
	system time =       1.98 seconds =       0.03 minutes
	total time  =          0 seconds =       0.00 minutes
Total time:
	user time   =      96.04 seconds =       1.60 minutes
	system time =     103.06 seconds =       1.72 minutes
	total time  =         19 seconds =       0.32 minutes

*** tstart() called on Joses-MacBook-Pro-2.local
*** at Wed Jul 16 19:26:21 2025

         ------------------------------------------------------------
                                   SCF GRAD
                          Rob Parrish, Justin Turney,
                       Andy Simmonett, and Alex Sokolov
         ------------------------------------------------------------

  ==> Geometry <==

    Molecular point group: c2v
    Full point group: C_inf_v

    Geometry (in Angstrom), charge = 0, multiplicity = 3:

       Center              X                  Y                   Z               Mass
    ------------   -----------------  -----------------  -----------------  -----------------
         F            0.000000000000     0.000000000000     2.087383832551    18.998403162730
         NA           0.000000000000     0.000000000000    -1.724982931308    22.989769282000

  Nuclear repulsion =   13.741737639980238

  ==> Basis Set <==

  Basis Set: CC-PVDZ
    Blend: CC-PVDZ
    Number of shells: 14
    Number of basis functions: 32
    Number of Cartesian functions: 34
    Spherical Harmonics?: true
    Max angular momentum: 2

  ==> DFJKGrad: Density-Fitted SCF Gradients <==

    Gradient:                    1
    J tasked:                  Yes
    K tasked:                  Yes
    wK tasked:                  No
    OpenMP threads:              1
    Integrals threads:           1
    Memory [MiB]:              375
    Schwarz Cutoff:          1E-12
    Fitting Condition:       1E-10

   => Auxiliary Basis Set <=

  Basis Set: (CC-PVDZ AUX)
    Blend: CC-PVDZ-JKFIT + DEF2-UNIVERSAL-JKFIT
    Number of shells: 58
    Number of basis functions: 182
    Number of Cartesian functions: 218
    Spherical Harmonics?: true
    Max angular momentum: 4

  ==> DFT Potential <==

   => LibXC <=

    Version 6.2.2
    S. Lehtola, C. Steigemann, M. J.T. Oliveira, and M. A.L. Marques.,  SoftwareX 7, 1â€“5 (2018) (10.1016/j.softx.2017.11.002)

   => Composite Functional: B3LYP <=

    B3LYP Hyb-GGA Exchange-Correlation Functional

    P. J. Stephens, F. J. Devlin, C. F. Chabalowski, and M. J. Frisch.,  J. Phys. Chem. 98, 11623 (1994) (10.1021/j100096a001)

    Deriv               =              1
    GGA                 =           TRUE
    Meta                =          FALSE

    Exchange Hybrid     =           TRUE
    MP2 Hybrid          =          FALSE

   => Exchange Functionals <=

    0.0800   Slater exchange
    0.7200         Becke 88

   => Exact (HF) Exchange <=

    0.2000               HF

   => Correlation Functionals <=

    0.1900   Vosko, Wilk & Nusair (VWN5_RPA)
    0.8100   Lee, Yang & Parr

   => LibXC Density Thresholds  <==

    XC_HYB_GGA_XC_B3LYP:  1.00E-15

   => Molecular Quadrature <=

    Radial Scheme          =       TREUTLER
    Pruning Scheme         =           NONE
    Nuclear Scheme         =       TREUTLER

    Blocking Scheme        =         OCTREE
    BS radius alpha        =              1
    Pruning alpha          =              1
    Radial Points          =             75
    Spherical Points       =            302
    Total Points           =          43900
    Total Blocks           =            429
    Max Points             =            252
    Max Functions          =             32
    Weights Tolerance      =       1.00E-15

  -Total Gradient:
     Atom            X                  Y                   Z
    ------   -----------------  -----------------  -----------------
       1        0.000000000000     0.000000000000     0.000068117634
       2       -0.000000000000     0.000000000000     0.000069570277

*** tstop() called on Joses-MacBook-Pro-2.local at Wed Jul 16 19:26:22 2025
Module time:
	user time   =       0.68 seconds =       0.01 minutes
	system time =       1.70 seconds =       0.03 minutes
	total time  =          1 seconds =       0.02 minutes
Total time:
	user time   =      96.72 seconds =       1.61 minutes
	system time =     104.77 seconds =       1.75 minutes
	total time  =         20 seconds =       0.33 minutes

    			-----------------------------------------

    			 OPTKING 3.0: for geometry optimizations

    			     By R.A. King, Bethel University

    			        with contributions from

    			    A.V. Copan, J. Cayton, A. Heide

    			-----------------------------------------

	                            ===> Fragment 1 <==

	 Z (Atomic Numbers)          Masses                          Geom
	       9.000000            18.998403          0.00000000  0.00000000  3.94458376
	      11.000000            22.989769          0.00000000  0.00000000 -3.25974531

	 - Coordinate -           - BOHR/RAD -       - ANG/DEG -
	 R(1,2)           =         7.204329           3.812367

	        --- Internal Coordinate Step in ANG or DEG, aJ/ANG or AJ/DEG ---
	-------------------------------------------------------------------------------
	           Coordinate      Previous         Force          Change          New
	           ----------      --------        ------          ------        ------
	               R(1,2)       3.81237        0.00001        0.00072       3.81309
	-------------------------------------------------------------------------------

	                                 ==> Convergence Check <==

	Measures of convergence in internal coordinates in au.

	Criteria marked as inactive (o), active & met (*), and active & unmet ( ).

	----------------------------------------------------------------------------------------------
	   Step    Total Energy     Delta E     Max Force     RMS Force      Max Disp      RMS Disp
	----------------------------------------------------------------------------------------------
	  Convergence Criteria     1.00e-06 *    3.00e-04 *             o    1.20e-03 *             o
	----------------------------------------------------------------------------------------------
	    21    -262.01780581   -4.10e-07 *    7.26e-07 *    7.26e-07 o    1.36e-03      1.36e-03 o  ~
	----------------------------------------------------------------------------------------------

Next Geometry in Ang
	Fragment 1 (Ang)

	    F   0.0000000000   0.0000000000   2.0877436768
	   Na   0.0000000000   0.0000000000  -1.7253427756

    Final optimized geometry and variables:
    Molecular point group: c2v
    Full point group: C_inf_v

    Geometry (in Angstrom), charge = 0, multiplicity = 3:

    F            0.000000000000     0.000000000000     2.087383832551
    NA           0.000000000000     0.000000000000    -1.724982931308

    Psi4 stopped on: Wednesday, 16 July 2025 07:26PM
    Psi4 wall time for execution: 0:00:20.29

*** Psi4 exiting successfully. Buy a developer a beer!
