                               Psi4 1.9.1 release

  ==> Input File <==

--------------------------------------------------------------------------
molecule {
0 3
S   0.00000        0.60000        0.00000
S   0.00000       -0.60000        0.00000
}

set {
basis              cc-pvdz
reference          uks
maxiter            500
geom_maxiter       500
DAMPING_PERCENTAGE 1
guess              SAP
}

optimize('b3lyp')
--------------------------------------------------------------------------

    Molecular point group: d2h
  Charge       = 0
  Multiplicity = 3
  Basis Set: CC-PVDZ
    Blend: CC-PVDZ
  Basis Set: (CC-PVDZ AUX)
    Blend: CC-PVDZ-JKFIT
  @DF-UKS Final Energy:  -795.20809489988096
    Total Energy =                       -795.2080948998810754
 Dipole X            :          0.0000000            0.0000000            0.0000000
 Dipole Y            :          0.0000000            0.0000000            0.0000000
 Dipole Z            :          0.0000000            0.0000000            0.0000000
 Magnitude           :                                                    0.0000000
    Molecular point group: d2h
  Basis Set: CC-PVDZ
    Blend: CC-PVDZ
  Basis Set: (CC-PVDZ AUX)
    Blend: CC-PVDZ-JKFIT
  Basis Set: CC-PVDZ
    Blend: CC-PVDZ
  Basis Set: (CC-PVDZ AUX)
    Blend: CC-PVDZ-JKFIT
  @DF-UKS Final Energy:  -795.25235062934200
    Total Energy =                       -795.2523506293421178
  Basis Set: CC-PVDZ
    Blend: CC-PVDZ
  Basis Set: (CC-PVDZ AUX)
    Blend: CC-PVDZ-JKFIT
  Basis Set: CC-PVDZ
    Blend: CC-PVDZ
  @DF-UKS Final Energy:  -795.33402937251969
    Total Energy =                       -795.3340293725195806
  @DF-UKS Final Energy:  -795.59590940363250
    Total Energy =                       -795.5959094036325041
  @DF-UKS Final Energy:  -796.10169957924336
    Total Energy =                       -796.1016995792434727
  @DF-UKS Final Energy:  -796.26167410266737
    Total Energy =                       -796.2616741026672571
  @DF-UKS Final Energy:  -796.35466426640062
    Total Energy =                       -796.3546642664006185
  @DF-UKS Final Energy:  -796.38602815246179
    Total Energy =                       -796.3860281524619040
  @DF-UKS Final Energy:  -796.39951338556023
    Total Energy =                       -796.3995133855603399
  @DF-UKS Final Energy:  -796.40423479732874
    Total Energy =                       -796.4042347973287406
  @DF-UKS Final Energy:  -796.40508805502714
    Total Energy =                       -796.4050880550271359
  @DF-UKS Final Energy:  -796.40525991656375
    Total Energy =                       -796.4052599165637503
  @DF-UKS Final Energy:  -796.40530127704255
    Total Energy =                       -796.4053012770426676
  Basis Set: (CC-PVDZ AUX)
    Blend: CC-PVDZ-JKFIT
  Basis Set: CC-PVDZ
    Blend: CC-PVDZ
  Basis Set: (CC-PVDZ AUX)
    Blend: CC-PVDZ-JKFIT
  @DF-UKS Final Energy:  -796.40530635397602
    Total Energy =                       -796.4053063539760160
  Basis Set: CC-PVDZ
    Blend: CC-PVDZ
  Basis Set: (CC-PVDZ AUX)
    Blend: CC-PVDZ-JKFIT
  Charge       = 0
  Multiplicity = 3
  Basis Set: CC-PVDZ
    Blend: CC-PVDZ
  Basis Set: (CC-PVDZ AUX)
    Blend: CC-PVDZ-JKFIT

    Orbital Energies [Eh]
    ---------------------

    Alpha Occupied:

       1Ag   -88.929913     1B2u  -88.929912     2Ag    -7.991153
       2B2u   -7.991150     3Ag    -5.952795     1B3u   -5.952212
       1B1u   -5.952212     3B2u   -5.952186     1B1g   -5.952168
       1B3g   -5.952168     4Ag    -0.836700     4B2u   -0.636956
       5Ag    -0.398707     2B3u   -0.374498     2B1u   -0.374498
       2B1g   -0.248570     2B3g   -0.248570

    Alpha Virtual:

       5B2u   -0.010378     6Ag     0.302392     3B1u    0.401927
       3B3u    0.401927     6B2u    0.435570     7Ag     0.441181
       4B3u    0.460422     4B1u    0.460422     3B1g    0.495321
       3B3g    0.495321     1B2g    0.502805     8Ag     0.502807
       1Au     0.598696     7B2u    0.598697     8B2u    0.665359
       9Ag     0.801810     4B1g    0.835695     4B3g    0.835695
       9B2u    1.215404

    Beta Occupied:

       1Ag   -88.923867     1B2u  -88.923866     2Ag    -7.985050
       2B2u   -7.985026     3Ag    -5.949416     3B2u   -5.948796
       1B3u   -5.940264     1B1u   -5.940264     1B1g   -5.940214
       1B3g   -5.940214     4Ag    -0.807165     4B2u   -0.582240
       5Ag    -0.375879     2B3u   -0.324017     2B1u   -0.324017

    Beta Virtual:

       2B1g   -0.140613     2B3g   -0.140613     5B2u    0.008870
       6Ag     0.313829     3B1u    0.426810     3B3u    0.426810
       6B2u    0.445969     7Ag     0.458411     4B3u    0.490071
       4B1u    0.490071     3B1g    0.524088     3B3g    0.524088
       1B2g    0.554136     8Ag     0.554137     1Au     0.656807
       7B2u    0.656808     8B2u    0.686701     9Ag     0.819037
       4B1g    0.867123     4B3g    0.867123     9B2u    1.236782

    Final Occupation by Irrep:
             Ag   B1g   B2g   B3g    Au   B1u   B2u   B3u
    DOCC [     5,    1,    0,    1,    0,    2,    4,    2 ]
    SOCC [     0,    1,    0,    1,    0,    0,    0,    0 ]
    NA   [     5,    2,    0,    2,    0,    2,    4,    2 ]
    NB   [     5,    1,    0,    1,    0,    2,    4,    2 ]

  @DF-UKS Final Energy:  -796.40530658837361

   => Energetics <=

    Nuclear Repulsion Energy =             70.0542637396385857
    One-Electron Energy =               -1238.9343893838386066
    Two-Electron Energy =                 413.8455242295318612
    DFT Exchange-Correlation Energy =     -41.3707051737053177
    Empirical Dispersion Energy =           0.0000000000000000
    VV10 Nonlocal Energy =                  0.0000000000000000
    Total Energy =                       -796.4053065883734916

  UHF NO Occupations:
  HONO-2 :    2B3u 1.9991528
  HONO-1 :    2B3g 1.0000000
  HONO-0 :    2B1g 1.0000000
  LUNO+0 :    3B1u 0.0008472
  LUNO+1 :    3B3u 0.0008472
  LUNO+2 :    5B2u 0.0004691
  LUNO+3 :    6 Ag 0.0003165

Computation Completed

Properties will be evaluated at   0.000000,   0.000000,   0.000000 [a0]

Properties computed using the SCF density matrix

 Multipole Moments:

 ------------------------------------------------------------------------------------
     Multipole            Electronic (a.u.)      Nuclear  (a.u.)        Total (a.u.)
 ------------------------------------------------------------------------------------

 L = 1.  Multiply by 2.5417464519 to convert [e a0] to [Debye]
 Dipole X            :          0.0000000            0.0000000            0.0000000
 Dipole Y            :          0.0000000            0.0000000            0.0000000
 Dipole Z            :          0.0000000            0.0000000            0.0000000
 Magnitude           :                                                    0.0000000

 ------------------------------------------------------------------------------------

*** tstop() called on Joses-MacBook-Pro-2.local at Wed Jul 16 20:28:38 2025
Module time:
	user time   =       6.57 seconds =       0.11 minutes
	system time =       1.66 seconds =       0.03 minutes
	total time  =          1 seconds =       0.02 minutes
Total time:
	user time   =     192.46 seconds =       3.21 minutes
	system time =      50.72 seconds =       0.85 minutes
	total time  =         23 seconds =       0.38 minutes

*** tstart() called on Joses-MacBook-Pro-2.local
*** at Wed Jul 16 20:28:38 2025

         ------------------------------------------------------------
                                   SCF GRAD
                          Rob Parrish, Justin Turney,
                       Andy Simmonett, and Alex Sokolov
         ------------------------------------------------------------

  ==> Geometry <==

    Molecular point group: d2h
    Full point group: D_inf_h

    Geometry (in Angstrom), charge = 0, multiplicity = 3:

       Center              X                  Y                   Z               Mass
    ------------   -----------------  -----------------  -----------------  -----------------
         S           -0.000000000000     0.966888799481     0.000000000000    31.972071174400
         S            0.000000000000    -0.966888799481     0.000000000000    31.972071174400

  Nuclear repulsion =   70.054263739638586

  ==> Basis Set <==

  Basis Set: CC-PVDZ
    Blend: CC-PVDZ
    Number of shells: 16
    Number of basis functions: 36
    Number of Cartesian functions: 38
    Spherical Harmonics?: true
    Max angular momentum: 2

  ==> DFJKGrad: Density-Fitted SCF Gradients <==

    Gradient:                    1
    J tasked:                  Yes
    K tasked:                  Yes
    wK tasked:                  No
    OpenMP threads:              1
    Integrals threads:           1
    Memory [MiB]:              375
    Schwarz Cutoff:          1E-12
    Fitting Condition:       1E-10

   => Auxiliary Basis Set <=

  Basis Set: (CC-PVDZ AUX)
    Blend: CC-PVDZ-JKFIT
    Number of shells: 72
    Number of basis functions: 224
    Number of Cartesian functions: 260
    Spherical Harmonics?: true
    Max angular momentum: 3

  ==> DFT Potential <==

   => LibXC <=

    Version 6.2.2
    S. Lehtola, C. Steigemann, M. J.T. Oliveira, and M. A.L. Marques.,  SoftwareX 7, 1â€“5 (2018) (10.1016/j.softx.2017.11.002)

   => Composite Functional: B3LYP <=

    B3LYP Hyb-GGA Exchange-Correlation Functional

    P. J. Stephens, F. J. Devlin, C. F. Chabalowski, and M. J. Frisch.,  J. Phys. Chem. 98, 11623 (1994) (10.1021/j100096a001)

    Deriv               =              1
    GGA                 =           TRUE
    Meta                =          FALSE

    Exchange Hybrid     =           TRUE
    MP2 Hybrid          =          FALSE

   => Exchange Functionals <=

    0.0800   Slater exchange
    0.7200         Becke 88

   => Exact (HF) Exchange <=

    0.2000               HF

   => Correlation Functionals <=

    0.1900   Vosko, Wilk & Nusair (VWN5_RPA)
    0.8100   Lee, Yang & Parr

   => LibXC Density Thresholds  <==

    XC_HYB_GGA_XC_B3LYP:  1.00E-15

   => Molecular Quadrature <=

    Radial Scheme          =       TREUTLER
    Pruning Scheme         =           NONE
    Nuclear Scheme         =       TREUTLER

    Blocking Scheme        =         OCTREE
    BS radius alpha        =              1
    Pruning alpha          =              1
    Radial Points          =             75
    Spherical Points       =            302
    Total Points           =          40222
    Total Blocks           =            372
    Max Points             =            255
    Max Functions          =             36
    Weights Tolerance      =       1.00E-15

  -Total Gradient:
     Atom            X                  Y                   Z
    ------   -----------------  -----------------  -----------------
       1        0.000000000000    -0.000038146056     0.000000000000
       2       -0.000000000000     0.000038146056     0.000000000000

*** tstop() called on Joses-MacBook-Pro-2.local at Wed Jul 16 20:28:38 2025
Module time:
	user time   =       2.01 seconds =       0.03 minutes
	system time =       1.71 seconds =       0.03 minutes
	total time  =          0 seconds =       0.00 minutes
Total time:
	user time   =     194.48 seconds =       3.24 minutes
	system time =      52.43 seconds =       0.87 minutes
	total time  =         23 seconds =       0.38 minutes

    			-----------------------------------------

    			 OPTKING 3.0: for geometry optimizations

    			     By R.A. King, Bethel University

    			        with contributions from

    			    A.V. Copan, J. Cayton, A. Heide

    			-----------------------------------------

	                            ===> Fragment 1 <==

	 Z (Atomic Numbers)          Masses                          Geom
	      16.000000            31.972071         -0.00000000  1.82715502  0.00000000
	      16.000000            31.972071          0.00000000 -1.82715502  0.00000000

	 - Coordinate -           - BOHR/RAD -       - ANG/DEG -
	 R(1,2)           =         3.654310           1.933778

	        --- Internal Coordinate Step in ANG or DEG, aJ/ANG or AJ/DEG ---
	-------------------------------------------------------------------------------
	           Coordinate      Previous         Force          Change          New
	           ----------      --------        ------          ------        ------
	               R(1,2)       1.93378        0.00031        0.00006       1.93384
	-------------------------------------------------------------------------------

	                                 ==> Convergence Check <==

	Measures of convergence in internal coordinates in au.

	Criteria marked as inactive (o), active & met (*), and active & unmet ( ).

	----------------------------------------------------------------------------------------------
	   Step    Total Energy     Delta E     Max Force     RMS Force      Max Disp      RMS Disp
	----------------------------------------------------------------------------------------------
	  Convergence Criteria     1.00e-06 *    3.00e-04 *             o    1.20e-03 *             o
	----------------------------------------------------------------------------------------------
	    15    -796.40530659   -2.34e-07 *    3.81e-05 *    3.81e-05 o    1.22e-04 *    1.22e-04 o  ~
	----------------------------------------------------------------------------------------------

Next Geometry in Ang
	Fragment 1 (Ang)

	    S  -0.0000000000   0.9669210310   0.0000000000
	    S   0.0000000000  -0.9669210310   0.0000000000

    Final optimized geometry and variables:
    Molecular point group: d2h
    Full point group: D_inf_h

    Geometry (in Angstrom), charge = 0, multiplicity = 3:

    S           -0.000000000000     0.966888799481     0.000000000000
    S            0.000000000000    -0.966888799481     0.000000000000

    Psi4 stopped on: Wednesday, 16 July 2025 08:28PM
    Psi4 wall time for execution: 0:00:24.49

*** Psi4 exiting successfully. Buy a developer a beer!
