                               Psi4 1.9.1 release

  ==> Input File <==

--------------------------------------------------------------------------
molecule {
0 3
C   0.00000        0.60000        0.00000
Mg   0.00000       -0.60000        0.00000
}

set {
basis              cc-pvdz
reference          uks
maxiter            500
geom_maxiter       500
DAMPING_PERCENTAGE 1
guess              SAP
}

optimize('b3lyp')
--------------------------------------------------------------------------

    Molecular point group: c2v
  Charge       = 0
  Multiplicity = 3
  Basis Set: CC-PVDZ
    Blend: CC-PVDZ
  Basis Set: (CC-PVDZ AUX)
    Blend: CC-PVDZ-JKFIT + DEF2-UNIVERSAL-JKFIT
  @DF-UKS Final Energy:  -237.49663443597839
    Total Energy =                       -237.4966344359783932
 Dipole X            :          0.0000000            0.0000000            0.0000000
 Dipole Y            :          0.0000000            0.0000000            0.0000000
 Dipole Z            :         -0.8605817           -0.0056558           -0.8662374
 Magnitude           :                                                    0.8662374
    Molecular point group: c2v
  Basis Set: CC-PVDZ
    Blend: CC-PVDZ
  Basis Set: (CC-PVDZ AUX)
    Blend: CC-PVDZ-JKFIT + DEF2-UNIVERSAL-JKFIT
  Basis Set: CC-PVDZ
    Blend: CC-PVDZ
  Basis Set: (CC-PVDZ AUX)
    Blend: CC-PVDZ-JKFIT + DEF2-UNIVERSAL-JKFIT
  @DF-UKS Final Energy:  -237.66404723588411
    Total Energy =                       -237.6640472358841123
  Basis Set: CC-PVDZ
    Blend: CC-PVDZ
  Basis Set: (CC-PVDZ AUX)
    Blend: CC-PVDZ-JKFIT + DEF2-UNIVERSAL-JKFIT
  Basis Set: CC-PVDZ
    Blend: CC-PVDZ
  @DF-UKS Final Energy:  -237.80092366990993
    Total Energy =                       -237.8009236699099347
  @DF-UKS Final Energy:  -237.87149000684704
    Total Energy =                       -237.8714900068470399
  @DF-UKS Final Energy:  -237.90123795802594
    Total Energy =                       -237.9012379580259449
  @DF-UKS Final Energy:  -237.97949101633327
    Total Energy =                       -237.9794910163332702
  @DF-UKS Final Energy:  -237.99282041335886
    Total Energy =                       -237.9928204133588565
  @DF-UKS Final Energy:  -237.99486237086074
    Total Energy =                       -237.9948623708607442
  @DF-UKS Final Energy:  -237.99488036155009
    Total Energy =                       -237.9948803615500594
  Basis Set: (CC-PVDZ AUX)
    Blend: CC-PVDZ-JKFIT + DEF2-UNIVERSAL-JKFIT
  Basis Set: CC-PVDZ
    Blend: CC-PVDZ
  Basis Set: (CC-PVDZ AUX)
    Blend: CC-PVDZ-JKFIT + DEF2-UNIVERSAL-JKFIT
  @DF-UKS Final Energy:  -237.99488400853335
    Total Energy =                       -237.9948840085333472
  Basis Set: CC-PVDZ
    Blend: CC-PVDZ
  Basis Set: (CC-PVDZ AUX)
    Blend: CC-PVDZ-JKFIT + DEF2-UNIVERSAL-JKFIT
  Charge       = 0
  Multiplicity = 3
  Basis Set: CC-PVDZ
    Blend: CC-PVDZ
  Basis Set: (CC-PVDZ AUX)
    Blend: CC-PVDZ-JKFIT + DEF2-UNIVERSAL-JKFIT

    Orbital Energies [Eh]
    ---------------------

    Alpha Occupied:

       1A1   -46.852044     2A1   -10.214451     3A1    -3.132807
       1B1    -1.877563     1B2    -1.877563     4A1    -1.875292
       5A1    -0.556182     6A1    -0.244704     2B1    -0.214141
       2B2    -0.214141

    Alpha Virtual:

       7A1    -0.108183     3B2    -0.014960     3B1    -0.014960
       8A1     0.033808     9A1     0.103566     4B1     0.156502
       4B2     0.156502    10A1     0.229456    11A1     0.309670
       1A2     0.309670     5B1     0.344009     5B2     0.344009
      12A1     0.455111     6B1     0.548747     6B2     0.548747
      13A1     0.625498    14A1     0.848000    15A1     1.173485
       2A2     1.173492     7B1     1.277639     7B2     1.277639
      16A1     1.591886

    Beta Occupied:

       1A1   -46.852985     2A1   -10.183837     3A1    -3.134720
       1B1    -1.878417     1B2    -1.878417     4A1    -1.876674
       5A1    -0.434870     6A1    -0.208626

    Beta Virtual:

       2B1    -0.070779     2B2    -0.070779     7A1    -0.067739
       3B2     0.011279     3B1     0.011279     8A1     0.039871
       9A1     0.094029     4B1     0.150247     4B2     0.150247
      10A1     0.230477    11A1     0.299697     1A2     0.299697
       5B1     0.354402     5B2     0.354402    12A1     0.487253
       6B1     0.618655     6B2     0.618655    13A1     0.667995
      14A1     0.912898    15A1     1.281089     2A2     1.281092
       7B1     1.364754     7B2     1.364754    16A1     1.663108

    Final Occupation by Irrep:
             A1    A2    B1    B2
    DOCC [     6,    0,    1,    1 ]
    SOCC [     0,    0,    1,    1 ]
    NA   [     6,    0,    2,    2 ]
    NB   [     6,    0,    1,    1 ]

  @DF-UKS Final Energy:  -237.99488490359064

   => Energetics <=

    Nuclear Repulsion Energy =             18.1137760057859154
    One-Electron Energy =                -366.1309091413480701
    Two-Electron Energy =                 127.5975539068898996
    DFT Exchange-Correlation Energy =     -17.5753056749183507
    Empirical Dispersion Energy =           0.0000000000000000
    VV10 Nonlocal Energy =                  0.0000000000000000
    Total Energy =                       -237.9948849035906164

  UHF NO Occupations:
  HONO-2 :    6 A1 1.7138912
  HONO-1 :    2 B1 1.0000000
  HONO-0 :    2 B2 1.0000000
  LUNO+0 :    7 A1 0.2861088
  LUNO+1 :    8 A1 0.0009063
  LUNO+2 :    3 B1 0.0000009
  LUNO+3 :    3 B2 0.0000009

Computation Completed

Properties will be evaluated at   0.000000,   0.000000,   0.000000 [a0]

Properties computed using the SCF density matrix

 Multipole Moments:

 ------------------------------------------------------------------------------------
     Multipole            Electronic (a.u.)      Nuclear  (a.u.)        Total (a.u.)
 ------------------------------------------------------------------------------------

 L = 1.  Multiply by 2.5417464519 to convert [e a0] to [Debye]
 Dipole X            :          0.0000000            0.0000000            0.0000000
 Dipole Y            :          0.0000000            0.0000000            0.0000000
 Dipole Z            :         -1.2045421           -0.0099137           -1.2144558
 Magnitude           :                                                    1.2144558

 ------------------------------------------------------------------------------------

*** tstop() called on Joses-MacBook-Pro-2.local at Wed Jul 16 19:02:21 2025
Module time:
	user time   =       3.46 seconds =       0.06 minutes
	system time =       3.70 seconds =       0.06 minutes
	total time  =          1 seconds =       0.02 minutes
Total time:
	user time   =      61.28 seconds =       1.02 minutes
	system time =      60.30 seconds =       1.00 minutes
	total time  =         12 seconds =       0.20 minutes

*** tstart() called on Joses-MacBook-Pro-2.local
*** at Wed Jul 16 19:02:21 2025

         ------------------------------------------------------------
                                   SCF GRAD
                          Rob Parrish, Justin Turney,
                       Andy Simmonett, and Alex Sokolov
         ------------------------------------------------------------

  ==> Geometry <==

    Molecular point group: c2v
    Full point group: C_inf_v

    Geometry (in Angstrom), charge = 0, multiplicity = 3:

       Center              X                  Y                   Z               Mass
    ------------   -----------------  -----------------  -----------------  -----------------
         C            0.000000000000     0.000000000000     1.401984149988    12.000000000000
         MG           0.000000000000     0.000000000000    -0.701429249629    23.985041697000

  Nuclear repulsion =   18.113776005785915

  ==> Basis Set <==

  Basis Set: CC-PVDZ
    Blend: CC-PVDZ
    Number of shells: 14
    Number of basis functions: 32
    Number of Cartesian functions: 34
    Spherical Harmonics?: true
    Max angular momentum: 2

  ==> DFJKGrad: Density-Fitted SCF Gradients <==

    Gradient:                    1
    J tasked:                  Yes
    K tasked:                  Yes
    wK tasked:                  No
    OpenMP threads:              1
    Integrals threads:           1
    Memory [MiB]:              375
    Schwarz Cutoff:          1E-12
    Fitting Condition:       1E-10

   => Auxiliary Basis Set <=

  Basis Set: (CC-PVDZ AUX)
    Blend: CC-PVDZ-JKFIT + DEF2-UNIVERSAL-JKFIT
    Number of shells: 58
    Number of basis functions: 182
    Number of Cartesian functions: 218
    Spherical Harmonics?: true
    Max angular momentum: 4

  ==> DFT Potential <==

   => LibXC <=

    Version 6.2.2
    S. Lehtola, C. Steigemann, M. J.T. Oliveira, and M. A.L. Marques.,  SoftwareX 7, 1â€“5 (2018) (10.1016/j.softx.2017.11.002)

   => Composite Functional: B3LYP <=

    B3LYP Hyb-GGA Exchange-Correlation Functional

    P. J. Stephens, F. J. Devlin, C. F. Chabalowski, and M. J. Frisch.,  J. Phys. Chem. 98, 11623 (1994) (10.1021/j100096a001)

    Deriv               =              1
    GGA                 =           TRUE
    Meta                =          FALSE

    Exchange Hybrid     =           TRUE
    MP2 Hybrid          =          FALSE

   => Exchange Functionals <=

    0.0800   Slater exchange
    0.7200         Becke 88

   => Exact (HF) Exchange <=

    0.2000               HF

   => Correlation Functionals <=

    0.1900   Vosko, Wilk & Nusair (VWN5_RPA)
    0.8100   Lee, Yang & Parr

   => LibXC Density Thresholds  <==

    XC_HYB_GGA_XC_B3LYP:  1.00E-15

   => Molecular Quadrature <=

    Radial Scheme          =       TREUTLER
    Pruning Scheme         =           NONE
    Nuclear Scheme         =       TREUTLER

    Blocking Scheme        =         OCTREE
    BS radius alpha        =              1
    Pruning alpha          =              1
    Radial Points          =             75
    Spherical Points       =            302
    Total Points           =          43471
    Total Blocks           =            414
    Max Points             =            256
    Max Functions          =             32
    Weights Tolerance      =       1.00E-15

  -Total Gradient:
     Atom            X                  Y                   Z
    ------   -----------------  -----------------  -----------------
       1        0.000000000000    -0.000000000000    -0.000096187082
       2        0.000000000000    -0.000000000000     0.000078401432

*** tstop() called on Joses-MacBook-Pro-2.local at Wed Jul 16 19:02:21 2025
Module time:
	user time   =       1.01 seconds =       0.02 minutes
	system time =       1.59 seconds =       0.03 minutes
	total time  =          0 seconds =       0.00 minutes
Total time:
	user time   =      62.29 seconds =       1.04 minutes
	system time =      61.89 seconds =       1.03 minutes
	total time  =         12 seconds =       0.20 minutes

    			-----------------------------------------

    			 OPTKING 3.0: for geometry optimizations

    			     By R.A. King, Bethel University

    			        with contributions from

    			    A.V. Copan, J. Cayton, A. Heide

    			-----------------------------------------

	                            ===> Fragment 1 <==

	 Z (Atomic Numbers)          Masses                          Geom
	       6.000000            12.000000          0.00000000  0.00000000  2.64936608
	      12.000000            23.985042          0.00000000  0.00000000 -1.32550918

	 - Coordinate -           - BOHR/RAD -       - ANG/DEG -
	 R(1,2)           =         3.974875           2.103413

	        --- Internal Coordinate Step in ANG or DEG, aJ/ANG or AJ/DEG ---
	-------------------------------------------------------------------------------
	           Coordinate      Previous         Force          Change          New
	           ----------      --------        ------          ------        ------
	               R(1,2)       2.10341        0.00072        0.00045       2.10386
	-------------------------------------------------------------------------------

	                                 ==> Convergence Check <==

	Measures of convergence in internal coordinates in au.

	Criteria marked as inactive (o), active & met (*), and active & unmet ( ).

	----------------------------------------------------------------------------------------------
	   Step    Total Energy     Delta E     Max Force     RMS Force      Max Disp      RMS Disp
	----------------------------------------------------------------------------------------------
	  Convergence Criteria     1.00e-06 *    3.00e-04 *             o    1.20e-03 *             o
	----------------------------------------------------------------------------------------------
	    11    -237.99488490   -8.95e-07 *    8.73e-05 *    8.73e-05 o    8.51e-04 *    8.51e-04 o  ~
	----------------------------------------------------------------------------------------------

Next Geometry in Ang
	Fragment 1 (Ang)

	    C   0.0000000000   0.0000000000   1.4022093595
	   Mg   0.0000000000   0.0000000000  -0.7016544592

    Final optimized geometry and variables:
    Molecular point group: c2v
    Full point group: C_inf_v

    Geometry (in Angstrom), charge = 0, multiplicity = 3:

    C            0.000000000000     0.000000000000     1.401984149988
    MG           0.000000000000     0.000000000000    -0.701429249629

    Psi4 stopped on: Wednesday, 16 July 2025 07:02PM
    Psi4 wall time for execution: 0:00:12.66

*** Psi4 exiting successfully. Buy a developer a beer!
