                               Psi4 1.9.1 release

  ==> Input File <==

--------------------------------------------------------------------------
molecule {
0 3
O   0.00000        0.60000        0.00000
S   0.00000       -0.60000        0.00000
}

set {
basis              cc-pvdz
reference          uks
maxiter            500
geom_maxiter       500
DAMPING_PERCENTAGE 1
guess              SAP
}

optimize('b3lyp')
--------------------------------------------------------------------------

    Molecular point group: c2v
  Charge       = 0
  Multiplicity = 3
  Basis Set: CC-PVDZ
    Blend: CC-PVDZ
  Basis Set: (CC-PVDZ AUX)
    Blend: CC-PVDZ-JKFIT
  @DF-UKS Final Energy:  -473.18180740042578
    Total Energy =                       -473.1818074004257824
 Dipole X            :          0.0000000            0.0000000            0.0000000
 Dipole Y            :          0.0000000            0.0000000            0.0000000
 Dipole Z            :         -0.2945824           -0.0067162           -0.3012986
 Magnitude           :                                                    0.3012986
    Molecular point group: c2v
  Basis Set: CC-PVDZ
    Blend: CC-PVDZ
  Basis Set: (CC-PVDZ AUX)
    Blend: CC-PVDZ-JKFIT
  Basis Set: CC-PVDZ
    Blend: CC-PVDZ
  Basis Set: (CC-PVDZ AUX)
    Blend: CC-PVDZ-JKFIT
  @DF-UKS Final Energy:  -473.30485017250192
    Total Energy =                       -473.3048501725019150
  Basis Set: CC-PVDZ
    Blend: CC-PVDZ
  Basis Set: (CC-PVDZ AUX)
    Blend: CC-PVDZ-JKFIT
  Basis Set: CC-PVDZ
    Blend: CC-PVDZ
  @DF-UKS Final Energy:  -473.35595433843054
    Total Energy =                       -473.3559543384305357
  @DF-UKS Final Energy:  -473.36895747371500
    Total Energy =                       -473.3689574737149997
  @DF-UKS Final Energy:  -473.37300807859828
    Total Energy =                       -473.3730080785982750
  @DF-UKS Final Energy:  -473.37479456844778
    Total Energy =                       -473.3747945684477827
  @DF-UKS Final Energy:  -473.37518209443897
    Total Energy =                       -473.3751820944389692
  @DF-UKS Final Energy:  -473.37528860573923
    Total Energy =                       -473.3752886057392288
  Basis Set: (CC-PVDZ AUX)
    Blend: CC-PVDZ-JKFIT
  Basis Set: CC-PVDZ
    Blend: CC-PVDZ
  Basis Set: (CC-PVDZ AUX)
    Blend: CC-PVDZ-JKFIT
  @DF-UKS Final Energy:  -473.37530004708901
    Total Energy =                       -473.3753000470889560
  Basis Set: CC-PVDZ
    Blend: CC-PVDZ
  Basis Set: (CC-PVDZ AUX)
    Blend: CC-PVDZ-JKFIT
  Charge       = 0
  Multiplicity = 3
  Basis Set: CC-PVDZ
    Blend: CC-PVDZ
  Basis Set: (CC-PVDZ AUX)
    Blend: CC-PVDZ-JKFIT

    Orbital Energies [Eh]
    ---------------------

    Alpha Occupied:

       1A1   -88.965030     2A1   -19.219071     3A1    -8.023580
       4A1    -5.985527     1B2    -5.984864     1B1    -5.984864
       5A1    -1.079174     6A1    -0.686945     7A1    -0.447609
       2B1    -0.447412     2B2    -0.447412     3B1    -0.262852
       3B2    -0.262852

    Alpha Virtual:

       8A1     0.015995     9A1     0.434527     4B2     0.443372
       4B1     0.443372    10A1     0.470189    11A1     0.525731
       1A2     0.525731     5B1     0.579228     5B2     0.579228
      12A1     0.773707     6B1     0.956288     6B2     0.956288
      13A1     1.061455    14A1     1.622124    15A1     2.519967
       2A2     2.519979     7B1     2.658394     7B2     2.658394
      16A1     3.122046

    Beta Occupied:

       1A1   -88.958285     2A1   -19.194842     3A1    -8.016771
       4A1    -5.982072     1B2    -5.971370     1B1    -5.971370
       5A1    -1.031064     6A1    -0.624373     7A1    -0.415662
       2B1    -0.373427     2B2    -0.373427

    Beta Virtual:

       3B1    -0.124894     3B2    -0.124894     8A1     0.039903
       9A1     0.456594     4B2     0.470847     4B1     0.470847
      10A1     0.479713    11A1     0.588966     1A2     0.588966
       5B1     0.622645     5B2     0.622645    12A1     0.796920
       6B1     1.000578     6B2     1.000578    13A1     1.083240
      14A1     1.650114    15A1     2.592269     2A2     2.592282
       7B1     2.699853     7B2     2.699853    16A1     3.156202

    Final Occupation by Irrep:
             A1    A2    B1    B2
    DOCC [     7,    0,    2,    2 ]
    SOCC [     0,    0,    1,    1 ]
    NA   [     7,    0,    3,    3 ]
    NB   [     7,    0,    2,    2 ]

  @DF-UKS Final Energy:  -473.37530054660493

   => Energetics <=

    Nuclear Repulsion Energy =             44.2958787639319738
    One-Electron Energy =                -740.9559205879356796
    Two-Electron Energy =                 250.8847936189107202
    DFT Exchange-Correlation Energy =     -27.6000523415120185
    Empirical Dispersion Energy =           0.0000000000000000
    VV10 Nonlocal Energy =                  0.0000000000000000
    Total Energy =                       -473.3753005466049331

  UHF NO Occupations:
  HONO-2 :    2 B1 1.9988526
  HONO-1 :    3 B2 1.0000000
  HONO-0 :    3 B1 1.0000000
  LUNO+0 :    4 B1 0.0011474
  LUNO+1 :    4 B2 0.0011474
  LUNO+2 :    8 A1 0.0006406
  LUNO+3 :    9 A1 0.0002376

Computation Completed

Properties will be evaluated at   0.000000,   0.000000,   0.000000 [a0]

Properties computed using the SCF density matrix

 Multipole Moments:

 ------------------------------------------------------------------------------------
     Multipole            Electronic (a.u.)      Nuclear  (a.u.)        Total (a.u.)
 ------------------------------------------------------------------------------------

 L = 1.  Multiply by 2.5417464519 to convert [e a0] to [Debye]
 Dipole X            :          0.0000000            0.0000000            0.0000000
 Dipole Y            :          0.0000000            0.0000000            0.0000000
 Dipole Z            :         -0.6024235           -0.0085583           -0.6109818
 Magnitude           :                                                    0.6109818

 ------------------------------------------------------------------------------------

*** tstop() called on Joses-MacBook-Pro-2.local at Wed Jul 16 19:22:55 2025
Module time:
	user time   =       3.09 seconds =       0.05 minutes
	system time =       3.53 seconds =       0.06 minutes
	total time  =          0 seconds =       0.00 minutes
Total time:
	user time   =      47.78 seconds =       0.80 minutes
	system time =      57.02 seconds =       0.95 minutes
	total time  =         10 seconds =       0.17 minutes

*** tstart() called on Joses-MacBook-Pro-2.local
*** at Wed Jul 16 19:22:55 2025

         ------------------------------------------------------------
                                   SCF GRAD
                          Rob Parrish, Justin Turney,
                       Andy Simmonett, and Alex Sokolov
         ------------------------------------------------------------

  ==> Geometry <==

    Molecular point group: c2v
    Full point group: C_inf_v

    Geometry (in Angstrom), charge = 0, multiplicity = 3:

       Center              X                  Y                   Z               Mass
    ------------   -----------------  -----------------  -----------------  -----------------
         O            0.000000000000     0.000000000000     1.019239211125    15.994914619570
         S            0.000000000000     0.000000000000    -0.509902660667    31.972071174400

  Nuclear repulsion =   44.295878763931974

  ==> Basis Set <==

  Basis Set: CC-PVDZ
    Blend: CC-PVDZ
    Number of shells: 14
    Number of basis functions: 32
    Number of Cartesian functions: 34
    Spherical Harmonics?: true
    Max angular momentum: 2

  ==> DFJKGrad: Density-Fitted SCF Gradients <==

    Gradient:                    1
    J tasked:                  Yes
    K tasked:                  Yes
    wK tasked:                  No
    OpenMP threads:              1
    Integrals threads:           1
    Memory [MiB]:              375
    Schwarz Cutoff:          1E-12
    Fitting Condition:       1E-10

   => Auxiliary Basis Set <=

  Basis Set: (CC-PVDZ AUX)
    Blend: CC-PVDZ-JKFIT
    Number of shells: 60
    Number of basis functions: 182
    Number of Cartesian functions: 211
    Spherical Harmonics?: true
    Max angular momentum: 3

  ==> DFT Potential <==

   => LibXC <=

    Version 6.2.2
    S. Lehtola, C. Steigemann, M. J.T. Oliveira, and M. A.L. Marques.,  SoftwareX 7, 1â€“5 (2018) (10.1016/j.softx.2017.11.002)

   => Composite Functional: B3LYP <=

    B3LYP Hyb-GGA Exchange-Correlation Functional

    P. J. Stephens, F. J. Devlin, C. F. Chabalowski, and M. J. Frisch.,  J. Phys. Chem. 98, 11623 (1994) (10.1021/j100096a001)

    Deriv               =              1
    GGA                 =           TRUE
    Meta                =          FALSE

    Exchange Hybrid     =           TRUE
    MP2 Hybrid          =          FALSE

   => Exchange Functionals <=

    0.0800   Slater exchange
    0.7200         Becke 88

   => Exact (HF) Exchange <=

    0.2000               HF

   => Correlation Functionals <=

    0.1900   Vosko, Wilk & Nusair (VWN5_RPA)
    0.8100   Lee, Yang & Parr

   => LibXC Density Thresholds  <==

    XC_HYB_GGA_XC_B3LYP:  1.00E-15

   => Molecular Quadrature <=

    Radial Scheme          =       TREUTLER
    Pruning Scheme         =           NONE
    Nuclear Scheme         =       TREUTLER

    Blocking Scheme        =         OCTREE
    BS radius alpha        =              1
    Pruning alpha          =              1
    Radial Points          =             75
    Spherical Points       =            302
    Total Points           =          41841
    Total Blocks           =            375
    Max Points             =            256
    Max Functions          =             32
    Weights Tolerance      =       1.00E-15

  -Total Gradient:
     Atom            X                  Y                   Z
    ------   -----------------  -----------------  -----------------
       1        0.000000000000    -0.000000000000    -0.000107236471
       2        0.000000000000     0.000000000000     0.000082654533

*** tstop() called on Joses-MacBook-Pro-2.local at Wed Jul 16 19:22:56 2025
Module time:
	user time   =       0.61 seconds =       0.01 minutes
	system time =       2.02 seconds =       0.03 minutes
	total time  =          1 seconds =       0.02 minutes
Total time:
	user time   =      48.40 seconds =       0.81 minutes
	system time =      59.04 seconds =       0.98 minutes
	total time  =         11 seconds =       0.18 minutes

    			-----------------------------------------

    			 OPTKING 3.0: for geometry optimizations

    			     By R.A. King, Bethel University

    			        with contributions from

    			    A.V. Copan, J. Cayton, A. Heide

    			-----------------------------------------

	                            ===> Fragment 1 <==

	 Z (Atomic Numbers)          Masses                          Geom
	       8.000000            15.994915          0.00000000  0.00000000  1.92608297
	      16.000000            31.972071          0.00000000  0.00000000 -0.96357638

	 - Coordinate -           - BOHR/RAD -       - ANG/DEG -
	 R(1,2)           =         2.889659           1.529142

	        --- Internal Coordinate Step in ANG or DEG, aJ/ANG or AJ/DEG ---
	-------------------------------------------------------------------------------
	           Coordinate      Previous         Force          Change          New
	           ----------      --------        ------          ------        ------
	               R(1,2)       1.52914        0.00078        0.00010       1.52924
	-------------------------------------------------------------------------------

	                                 ==> Convergence Check <==

	Measures of convergence in internal coordinates in au.

	Criteria marked as inactive (o), active & met (*), and active & unmet ( ).

	----------------------------------------------------------------------------------------------
	   Step    Total Energy     Delta E     Max Force     RMS Force      Max Disp      RMS Disp
	----------------------------------------------------------------------------------------------
	  Convergence Criteria     1.00e-06 *    3.00e-04 *             o    1.20e-03 *             o
	----------------------------------------------------------------------------------------------
	    10    -473.37530055   -5.00e-07 *    9.49e-05 *    9.49e-05 o    1.80e-04 *    1.80e-04 o  ~
	----------------------------------------------------------------------------------------------

Next Geometry in Ang
	Fragment 1 (Ang)

	    O   0.0000000000   0.0000000000   1.0192867887
	    S   0.0000000000   0.0000000000  -0.5099502382

    Final optimized geometry and variables:
    Molecular point group: c2v
    Full point group: C_inf_v

    Geometry (in Angstrom), charge = 0, multiplicity = 3:

    O            0.000000000000     0.000000000000     1.019239211125
    S            0.000000000000     0.000000000000    -0.509902660667

    Psi4 stopped on: Wednesday, 16 July 2025 07:22PM
    Psi4 wall time for execution: 0:00:10.87

*** Psi4 exiting successfully. Buy a developer a beer!
