                               Psi4 1.9.1 release

  ==> Input File <==

--------------------------------------------------------------------------
molecule {
0 3
Al   0.00000        0.60000        0.00000
P   0.00000       -0.60000        0.00000
}

set {
basis              cc-pvdz
reference          uks
maxiter            500
geom_maxiter       500
DAMPING_PERCENTAGE 1
guess              SAP
}

optimize('b3lyp')
--------------------------------------------------------------------------

    Molecular point group: c2v
  Charge       = 0
  Multiplicity = 3
  Basis Set: CC-PVDZ
    Blend: CC-PVDZ
  Basis Set: (CC-PVDZ AUX)
    Blend: CC-PVDZ-JKFIT
  @DF-UKS Final Energy:  -582.59235546785862
    Total Energy =                       -582.5923554678586243
 Dipole X            :          0.0000000            0.0000000            0.0000000
 Dipole Y            :          0.0000000            0.0000000            0.0000000
 Dipole Z            :          0.1156156           -0.0807668            0.0348488
 Magnitude           :                                                    0.0348488
    Molecular point group: c2v
  Basis Set: CC-PVDZ
    Blend: CC-PVDZ
  Basis Set: (CC-PVDZ AUX)
    Blend: CC-PVDZ-JKFIT
  Basis Set: CC-PVDZ
    Blend: CC-PVDZ
  Basis Set: (CC-PVDZ AUX)
    Blend: CC-PVDZ-JKFIT
  @DF-UKS Final Energy:  -582.61228213519030
    Total Energy =                       -582.6122821351902985
  Basis Set: CC-PVDZ
    Blend: CC-PVDZ
  Basis Set: (CC-PVDZ AUX)
    Blend: CC-PVDZ-JKFIT
  Basis Set: CC-PVDZ
    Blend: CC-PVDZ
  @DF-UKS Final Energy:  -582.65056688792163
    Total Energy =                       -582.6505668879217410
  @DF-UKS Final Energy:  -582.78738527341307
    Total Energy =                       -582.7873852734130651
  @DF-UKS Final Energy:  -583.31699024375007
    Total Energy =                       -583.3169902437499559
  @DF-UKS Final Energy:  -583.50506370283699
    Total Energy =                       -583.5050637028369920
  @DF-UKS Final Energy:  -583.65863858825378
    Total Energy =                       -583.6586385882537797
  @DF-UKS Final Energy:  -583.72263222569813
    Total Energy =                       -583.7226322256979074
  @DF-UKS Final Energy:  -583.73333665018333
    Total Energy =                       -583.7333366501833325
  @DF-UKS Final Energy:  -583.73718663924433
    Total Energy =                       -583.7371866392443280
  @DF-UKS Final Energy:  -583.73768973215147
    Total Energy =                       -583.7376897321514662
  @DF-UKS Final Energy:  -583.73776534755120
    Total Energy =                       -583.7377653475512034
  @DF-UKS Final Energy:  -583.73777755362573
    Total Energy =                       -583.7377775536256195
  Basis Set: (CC-PVDZ AUX)
    Blend: CC-PVDZ-JKFIT
  Basis Set: CC-PVDZ
    Blend: CC-PVDZ
  Basis Set: (CC-PVDZ AUX)
    Blend: CC-PVDZ-JKFIT
  @DF-UKS Final Energy:  -583.73777982543436
    Total Energy =                       -583.7377798254344725
  Basis Set: CC-PVDZ
    Blend: CC-PVDZ
  Basis Set: (CC-PVDZ AUX)
    Blend: CC-PVDZ-JKFIT
  Charge       = 0
  Multiplicity = 3
  Basis Set: CC-PVDZ
    Blend: CC-PVDZ
  Basis Set: (CC-PVDZ AUX)
    Blend: CC-PVDZ-JKFIT

    Orbital Energies [Eh]
    ---------------------

    Alpha Occupied:

       1A1   -77.078447     2A1   -56.089863     3A1    -6.547853
       1B2    -4.714368     4A1    -4.711557     1B1    -4.703013
       5A1    -4.170905     2B2    -2.724838     6A1    -2.723245
       2B1    -2.721963     7A1    -0.580523     8A1    -0.346168
       3B2    -0.246674     9A1    -0.232121     3B1    -0.215538

    Alpha Virtual:

       4B2    -0.068881     4B1    -0.056990    10A1     0.028092
      11A1     0.144420     5B2     0.192966    12A1     0.196109
       5B1     0.202213     6B2     0.243995    13A1     0.246496
       1A2     0.246509     6B1     0.255847    14A1     0.300066
       7B2     0.439869     7B1     0.463280    15A1     0.491314
       2A2     0.496908    16A1     0.507455    17A1     0.579876
       8B2     0.622180     8B1     0.644577    18A1     0.909808

    Beta Occupied:

       1A1   -77.072597     2A1   -56.088101     3A1    -6.541633
       1B2    -4.701238     4A1    -4.701122     1B1    -4.698876
       5A1    -4.168601     2B2    -2.722611     2B1    -2.721074
       6A1    -2.717948     7A1    -0.524068     8A1    -0.306086
       3B1    -0.199691

    Beta Virtual:

       9A1    -0.140530     3B2    -0.138393     4B1    -0.045803
       4B2    -0.037066    10A1     0.046930    11A1     0.156752
       5B1     0.203765     5B2     0.205391    12A1     0.227050
       1A2     0.256909    13A1     0.257676     6B1     0.280568
       6B2     0.283014    14A1     0.326087     7B1     0.474153
       7B2     0.479758    15A1     0.528707     2A2     0.539218
      16A1     0.542611    17A1     0.606964     8B1     0.669328
       8B2     0.674270    18A1     0.938943

    Final Occupation by Irrep:
             A1    A2    B1    B2
    DOCC [     8,    0,    3,    2 ]
    SOCC [     1,    0,    0,    1 ]
    NA   [     9,    0,    3,    3 ]
    NB   [     8,    0,    3,    2 ]

  @DF-UKS Final Energy:  -583.73777999201923

   => Energetics <=

    Nuclear Repulsion Energy =             45.9578849711179274
    One-Electron Energy =                -900.4080678383102168
    Two-Electron Energy =                 304.4125607307607311
    DFT Exchange-Correlation Energy =     -33.7001578555875554
    Empirical Dispersion Energy =           0.0000000000000000
    VV10 Nonlocal Energy =                  0.0000000000000000
    Total Energy =                       -583.7377799920191137

  UHF NO Occupations:
  HONO-2 :    8 A1 1.9972723
  HONO-1 :    9 A1 1.0000000
  HONO-0 :    3 B2 1.0000000
  LUNO+0 :   10 A1 0.0027277
  LUNO+1 :    4 B1 0.0018194
  LUNO+2 :   11 A1 0.0006182
  LUNO+3 :    5 B1 0.0000001

Computation Completed

Properties will be evaluated at   0.000000,   0.000000,   0.000000 [a0]

Properties computed using the SCF density matrix

 Multipole Moments:

 ------------------------------------------------------------------------------------
     Multipole            Electronic (a.u.)      Nuclear  (a.u.)        Total (a.u.)
 ------------------------------------------------------------------------------------

 L = 1.  Multiply by 2.5417464519 to convert [e a0] to [Debye]
 Dipole X            :          0.0000000            0.0000000            0.0000000
 Dipole Y            :          0.0000000            0.0000000            0.0000000
 Dipole Z            :          1.0183139           -0.1511219            0.8671921
 Magnitude           :                                                    0.8671921

 ------------------------------------------------------------------------------------

*** tstop() called on Joses-MacBook-Pro-2.local at Wed Jul 16 20:07:42 2025
Module time:
	user time   =       7.33 seconds =       0.12 minutes
	system time =       2.04 seconds =       0.03 minutes
	total time  =          1 seconds =       0.02 minutes
Total time:
	user time   =     186.97 seconds =       3.12 minutes
	system time =      47.48 seconds =       0.79 minutes
	total time  =         22 seconds =       0.37 minutes

*** tstart() called on Joses-MacBook-Pro-2.local
*** at Wed Jul 16 20:07:42 2025

         ------------------------------------------------------------
                                   SCF GRAD
                          Rob Parrish, Justin Turney,
                       Andy Simmonett, and Alex Sokolov
         ------------------------------------------------------------

  ==> Geometry <==

    Molecular point group: c2v
    Full point group: C_inf_v

    Geometry (in Angstrom), charge = 0, multiplicity = 3:

       Center              X                  Y                   Z               Mass
    ------------   -----------------  -----------------  -----------------  -----------------
         AL           0.000000000000     0.000000000000     1.199986900177    26.981538530000
         P            0.000000000000     0.000000000000    -1.045319996463    30.973761998420

  Nuclear repulsion =   45.957884971117927

  ==> Basis Set <==

  Basis Set: CC-PVDZ
    Blend: CC-PVDZ
    Number of shells: 16
    Number of basis functions: 36
    Number of Cartesian functions: 38
    Spherical Harmonics?: true
    Max angular momentum: 2

  ==> DFJKGrad: Density-Fitted SCF Gradients <==

    Gradient:                    1
    J tasked:                  Yes
    K tasked:                  Yes
    wK tasked:                  No
    OpenMP threads:              1
    Integrals threads:           1
    Memory [MiB]:              375
    Schwarz Cutoff:          1E-12
    Fitting Condition:       1E-10

   => Auxiliary Basis Set <=

  Basis Set: (CC-PVDZ AUX)
    Blend: CC-PVDZ-JKFIT
    Number of shells: 72
    Number of basis functions: 224
    Number of Cartesian functions: 260
    Spherical Harmonics?: true
    Max angular momentum: 3

  ==> DFT Potential <==

   => LibXC <=

    Version 6.2.2
    S. Lehtola, C. Steigemann, M. J.T. Oliveira, and M. A.L. Marques.,  SoftwareX 7, 1â€“5 (2018) (10.1016/j.softx.2017.11.002)

   => Composite Functional: B3LYP <=

    B3LYP Hyb-GGA Exchange-Correlation Functional

    P. J. Stephens, F. J. Devlin, C. F. Chabalowski, and M. J. Frisch.,  J. Phys. Chem. 98, 11623 (1994) (10.1021/j100096a001)

    Deriv               =              1
    GGA                 =           TRUE
    Meta                =          FALSE

    Exchange Hybrid     =           TRUE
    MP2 Hybrid          =          FALSE

   => Exchange Functionals <=

    0.0800   Slater exchange
    0.7200         Becke 88

   => Exact (HF) Exchange <=

    0.2000               HF

   => Correlation Functionals <=

    0.1900   Vosko, Wilk & Nusair (VWN5_RPA)
    0.8100   Lee, Yang & Parr

   => LibXC Density Thresholds  <==

    XC_HYB_GGA_XC_B3LYP:  1.00E-15

   => Molecular Quadrature <=

    Radial Scheme          =       TREUTLER
    Pruning Scheme         =           NONE
    Nuclear Scheme         =       TREUTLER

    Blocking Scheme        =         OCTREE
    BS radius alpha        =              1
    Pruning alpha          =              1
    Radial Points          =             75
    Spherical Points       =            302
    Total Points           =          42655
    Total Blocks           =            399
    Max Points             =            256
    Max Functions          =             36
    Weights Tolerance      =       1.00E-15

  -Total Gradient:
     Atom            X                  Y                   Z
    ------   -----------------  -----------------  -----------------
       1        0.000000000000     0.000000000000    -0.000014516741
       2        0.000000000000     0.000000000000     0.000029453100

*** tstop() called on Joses-MacBook-Pro-2.local at Wed Jul 16 20:07:43 2025
Module time:
	user time   =       2.54 seconds =       0.04 minutes
	system time =       1.68 seconds =       0.03 minutes
	total time  =          1 seconds =       0.02 minutes
Total time:
	user time   =     189.51 seconds =       3.16 minutes
	system time =      49.17 seconds =       0.82 minutes
	total time  =         23 seconds =       0.38 minutes

    			-----------------------------------------

    			 OPTKING 3.0: for geometry optimizations

    			     By R.A. King, Bethel University

    			        with contributions from

    			    A.V. Copan, J. Cayton, A. Heide

    			-----------------------------------------

	                            ===> Fragment 1 <==

	 Z (Atomic Numbers)          Masses                          Geom
	      13.000000            26.981539          0.00000000  0.00000000  2.26764660
	      15.000000            30.973762          0.00000000  0.00000000 -1.97536851

	 - Coordinate -           - BOHR/RAD -       - ANG/DEG -
	 R(1,2)           =         4.243015           2.245307

	        --- Internal Coordinate Step in ANG or DEG, aJ/ANG or AJ/DEG ---
	-------------------------------------------------------------------------------
	           Coordinate      Previous         Force          Change          New
	           ----------      --------        ------          ------        ------
	               R(1,2)       2.24531        0.00018        0.00010       2.24541
	-------------------------------------------------------------------------------

	                                 ==> Convergence Check <==

	Measures of convergence in internal coordinates in au.

	Criteria marked as inactive (o), active & met (*), and active & unmet ( ).

	----------------------------------------------------------------------------------------------
	   Step    Total Energy     Delta E     Max Force     RMS Force      Max Disp      RMS Disp
	----------------------------------------------------------------------------------------------
	  Convergence Criteria     1.00e-06 *    3.00e-04 *             o    1.20e-03 *             o
	----------------------------------------------------------------------------------------------
	    15    -583.73777999   -1.67e-07 *    2.20e-05 *    2.20e-05 o    1.90e-04 *    1.90e-04 o  ~
	----------------------------------------------------------------------------------------------

Next Geometry in Ang
	Fragment 1 (Ang)

	   Al   0.0000000000   0.0000000000   1.2000371807
	    P   0.0000000000   0.0000000000  -1.0453702770

    Final optimized geometry and variables:
    Molecular point group: c2v
    Full point group: C_inf_v

    Geometry (in Angstrom), charge = 0, multiplicity = 3:

    AL           0.000000000000     0.000000000000     1.199986900177
    P            0.000000000000     0.000000000000    -1.045319996463

    Psi4 stopped on: Wednesday, 16 July 2025 08:07PM
    Psi4 wall time for execution: 0:00:23.36

*** Psi4 exiting successfully. Buy a developer a beer!
