                               Psi4 1.9.1 release

  ==> Input File <==

--------------------------------------------------------------------------
molecule {
0 3
C   0.00000        0.60000        0.00000
S   0.00000       -0.60000        0.00000
}

set {
basis              cc-pvdz
reference          uks
maxiter            500
geom_maxiter       500
DAMPING_PERCENTAGE 1
guess              SAP
}

optimize('b3lyp')
--------------------------------------------------------------------------

    Molecular point group: c2v
  Charge       = 0
  Multiplicity = 3
  Basis Set: CC-PVDZ
    Blend: CC-PVDZ
  Basis Set: (CC-PVDZ AUX)
    Blend: CC-PVDZ-JKFIT
  @DF-UKS Final Energy:  -435.84307996916482
    Total Energy =                       -435.8430799691648190
 Dipole X            :          0.0000000            0.0000000            0.0000000
 Dipole Y            :          0.0000000            0.0000000            0.0000000
 Dipole Z            :         -0.0105415           -0.0086419           -0.0191834
 Magnitude           :                                                    0.0191834
    Molecular point group: c2v
  Basis Set: CC-PVDZ
    Blend: CC-PVDZ
  Basis Set: (CC-PVDZ AUX)
    Blend: CC-PVDZ-JKFIT
  Basis Set: CC-PVDZ
    Blend: CC-PVDZ
  Basis Set: (CC-PVDZ AUX)
    Blend: CC-PVDZ-JKFIT
  @DF-UKS Final Energy:  -436.01721536194117
    Total Energy =                       -436.0172153619412256
  Basis Set: CC-PVDZ
    Blend: CC-PVDZ
  Basis Set: (CC-PVDZ AUX)
    Blend: CC-PVDZ-JKFIT
  Basis Set: CC-PVDZ
    Blend: CC-PVDZ
  @DF-UKS Final Energy:  -436.08366154834732
    Total Energy =                       -436.0836615483472656
  @DF-UKS Final Energy:  -436.10192958342617
    Total Energy =                       -436.1019295834261129
  @DF-UKS Final Energy:  -436.10989571026670
    Total Energy =                       -436.1098957102666986
  @DF-UKS Final Energy:  -436.11176602091734
    Total Energy =                       -436.1117660209173437
  @DF-UKS Final Energy:  -436.11226957680054
    Total Energy =                       -436.1122695768005428
  @DF-UKS Final Energy:  -436.11244740601006
    Total Energy =                       -436.1124474060100624
  Basis Set: (CC-PVDZ AUX)
    Blend: CC-PVDZ-JKFIT
  Basis Set: CC-PVDZ
    Blend: CC-PVDZ
  Basis Set: (CC-PVDZ AUX)
    Blend: CC-PVDZ-JKFIT
  @DF-UKS Final Energy:  -436.11247632380116
    Total Energy =                       -436.1124763238011610
  Basis Set: CC-PVDZ
    Blend: CC-PVDZ
  Basis Set: (CC-PVDZ AUX)
    Blend: CC-PVDZ-JKFIT
  Charge       = 0
  Multiplicity = 3
  Basis Set: CC-PVDZ
    Blend: CC-PVDZ
  Basis Set: (CC-PVDZ AUX)
    Blend: CC-PVDZ-JKFIT

    Orbital Energies [Eh]
    ---------------------

    Alpha Occupied:

       1A1   -88.927555     2A1   -10.304551     3A1    -7.987770
       4A1    -5.953497     1B1    -5.947018     1B2    -5.944107
       5A1    -0.825813     6A1    -0.551485     7A1    -0.387394
       2B2    -0.362496     2B1    -0.346629     3B2    -0.188338

    Alpha Virtual:

       3B1    -0.112442     8A1     0.103474     9A1     0.370831
       4B2     0.442575     4B1     0.442916    10A1     0.454207
      11A1     0.475663     5B2     0.497001     5B1     0.506790
       1A2     0.566909    12A1     0.567878     6B2     0.602805
       6B1     0.605173    13A1     0.844979    14A1     1.060807
       2A2     1.129311    15A1     1.131965     7B2     1.384996
       7B1     1.386474    16A1     1.750881

    Beta Occupied:

       1A1   -88.925262     2A1   -10.276008     3A1    -7.985513
       4A1    -5.947857     1B1    -5.947815     1B2    -5.938405
       5A1    -0.794005     6A1    -0.481663     2B1    -0.334639
       2B2    -0.309149

    Beta Virtual:

       7A1    -0.207720     3B1    -0.074747     3B2    -0.044259
       8A1     0.130308     9A1     0.397687     4B1     0.449907
       4B2     0.466863    10A1     0.487874     5B1     0.530670
      11A1     0.533201     5B2     0.553220     1A2     0.576828
      12A1     0.577080     6B1     0.621842     6B2     0.644298
      13A1     0.874622    14A1     1.094730     2A2     1.197663
      15A1     1.197907     7B1     1.442405     7B2     1.468318
      16A1     1.824934

    Final Occupation by Irrep:
             A1    A2    B1    B2
    DOCC [     6,    0,    2,    2 ]
    SOCC [     1,    0,    0,    1 ]
    NA   [     7,    0,    2,    3 ]
    NB   [     6,    0,    2,    2 ]

  @DF-UKS Final Energy:  -436.11247861780862

   => Energetics <=

    Nuclear Repulsion Energy =             31.8717572046335711
    One-Electron Energy =                -663.4981995397222363
    Two-Electron Energy =                 220.4918238387028850
    DFT Exchange-Correlation Energy =     -24.9778601214228537
    Empirical Dispersion Energy =           0.0000000000000000
    VV10 Nonlocal Energy =                  0.0000000000000000
    Total Energy =                       -436.1124786178086197

  UHF NO Occupations:
  HONO-2 :    2 B1 1.9900232
  HONO-1 :    3 B2 1.0000000
  HONO-0 :    7 A1 1.0000000
  LUNO+0 :    3 B1 0.0099768
  LUNO+1 :    4 B2 0.0013138
  LUNO+2 :    8 A1 0.0006350
  LUNO+3 :    9 A1 0.0002213

Computation Completed

Properties will be evaluated at   0.000000,   0.000000,   0.000000 [a0]

Properties computed using the SCF density matrix

 Multipole Moments:

 ------------------------------------------------------------------------------------
     Multipole            Electronic (a.u.)      Nuclear  (a.u.)        Total (a.u.)
 ------------------------------------------------------------------------------------

 L = 1.  Multiply by 2.5417464519 to convert [e a0] to [Debye]
 Dipole X            :          0.0000000            0.0000000            0.0000000
 Dipole Y            :          0.0000000            0.0000000            0.0000000
 Dipole Z            :         -0.0000099           -0.0114787           -0.0114886
 Magnitude           :                                                    0.0114886

 ------------------------------------------------------------------------------------

*** tstop() called on Joses-MacBook-Pro-2.local at Wed Jul 16 19:05:17 2025
Module time:
	user time   =       5.27 seconds =       0.09 minutes
	system time =       4.15 seconds =       0.07 minutes
	total time  =          1 seconds =       0.02 minutes
Total time:
	user time   =      64.66 seconds =       1.08 minutes
	system time =      58.82 seconds =       0.98 minutes
	total time  =         12 seconds =       0.20 minutes

*** tstart() called on Joses-MacBook-Pro-2.local
*** at Wed Jul 16 19:05:17 2025

         ------------------------------------------------------------
                                   SCF GRAD
                          Rob Parrish, Justin Turney,
                       Andy Simmonett, and Alex Sokolov
         ------------------------------------------------------------

  ==> Geometry <==

    Molecular point group: c2v
    Full point group: C_inf_v

    Geometry (in Angstrom), charge = 0, multiplicity = 3:

       Center              X                  Y                   Z               Mass
    ------------   -----------------  -----------------  -----------------  -----------------
         C            0.000000000000     0.000000000000     1.158938008743    12.000000000000
         S            0.000000000000     0.000000000000    -0.434981394513    31.972071174400

  Nuclear repulsion =   31.871757204633571

  ==> Basis Set <==

  Basis Set: CC-PVDZ
    Blend: CC-PVDZ
    Number of shells: 14
    Number of basis functions: 32
    Number of Cartesian functions: 34
    Spherical Harmonics?: true
    Max angular momentum: 2

  ==> DFJKGrad: Density-Fitted SCF Gradients <==

    Gradient:                    1
    J tasked:                  Yes
    K tasked:                  Yes
    wK tasked:                  No
    OpenMP threads:              1
    Integrals threads:           1
    Memory [MiB]:              375
    Schwarz Cutoff:          1E-12
    Fitting Condition:       1E-10

   => Auxiliary Basis Set <=

  Basis Set: (CC-PVDZ AUX)
    Blend: CC-PVDZ-JKFIT
    Number of shells: 60
    Number of basis functions: 182
    Number of Cartesian functions: 211
    Spherical Harmonics?: true
    Max angular momentum: 3

  ==> DFT Potential <==

   => LibXC <=

    Version 6.2.2
    S. Lehtola, C. Steigemann, M. J.T. Oliveira, and M. A.L. Marques.,  SoftwareX 7, 1â€“5 (2018) (10.1016/j.softx.2017.11.002)

   => Composite Functional: B3LYP <=

    B3LYP Hyb-GGA Exchange-Correlation Functional

    P. J. Stephens, F. J. Devlin, C. F. Chabalowski, and M. J. Frisch.,  J. Phys. Chem. 98, 11623 (1994) (10.1021/j100096a001)

    Deriv               =              1
    GGA                 =           TRUE
    Meta                =          FALSE

    Exchange Hybrid     =           TRUE
    MP2 Hybrid          =          FALSE

   => Exchange Functionals <=

    0.0800   Slater exchange
    0.7200         Becke 88

   => Exact (HF) Exchange <=

    0.2000               HF

   => Correlation Functionals <=

    0.1900   Vosko, Wilk & Nusair (VWN5_RPA)
    0.8100   Lee, Yang & Parr

   => LibXC Density Thresholds  <==

    XC_HYB_GGA_XC_B3LYP:  1.00E-15

   => Molecular Quadrature <=

    Radial Scheme          =       TREUTLER
    Pruning Scheme         =           NONE
    Nuclear Scheme         =       TREUTLER

    Blocking Scheme        =         OCTREE
    BS radius alpha        =              1
    Pruning alpha          =              1
    Radial Points          =             75
    Spherical Points       =            302
    Total Points           =          41353
    Total Blocks           =            370
    Max Points             =            256
    Max Functions          =             32
    Weights Tolerance      =       1.00E-15

  -Total Gradient:
     Atom            X                  Y                   Z
    ------   -----------------  -----------------  -----------------
       1       -0.000000000000     0.000000000000    -0.000228920661
       2        0.000000000000     0.000000000000     0.000208393448

*** tstop() called on Joses-MacBook-Pro-2.local at Wed Jul 16 19:05:17 2025
Module time:
	user time   =       1.84 seconds =       0.03 minutes
	system time =       0.52 seconds =       0.01 minutes
	total time  =          0 seconds =       0.00 minutes
Total time:
	user time   =      66.50 seconds =       1.11 minutes
	system time =      59.34 seconds =       0.99 minutes
	total time  =         12 seconds =       0.20 minutes

    			-----------------------------------------

    			 OPTKING 3.0: for geometry optimizations

    			     By R.A. King, Bethel University

    			        with contributions from

    			    A.V. Copan, J. Cayton, A. Heide

    			-----------------------------------------

	                            ===> Fragment 1 <==

	 Z (Atomic Numbers)          Masses                          Geom
	       6.000000            12.000000          0.00000000  0.00000000  2.19007543
	      16.000000            31.972071          0.00000000  0.00000000 -0.82199571

	 - Coordinate -           - BOHR/RAD -       - ANG/DEG -
	 R(1,2)           =         3.012071           1.593919

	        --- Internal Coordinate Step in ANG or DEG, aJ/ANG or AJ/DEG ---
	-------------------------------------------------------------------------------
	           Coordinate      Previous         Force          Change          New
	           ----------      --------        ------          ------        ------
	               R(1,2)       1.59392        0.00180        0.00025       1.59417
	-------------------------------------------------------------------------------

	                                 ==> Convergence Check <==

	Measures of convergence in internal coordinates in au.

	Criteria marked as inactive (o), active & met (*), and active & unmet ( ).

	----------------------------------------------------------------------------------------------
	   Step    Total Energy     Delta E     Max Force     RMS Force      Max Disp      RMS Disp
	----------------------------------------------------------------------------------------------
	  Convergence Criteria     1.00e-06 *    3.00e-04 *             o    1.20e-03 *             o
	----------------------------------------------------------------------------------------------
	    10    -436.11247862   -2.29e-06      2.19e-04 *    2.19e-04 o    4.78e-04 *    4.78e-04 o  ~
	----------------------------------------------------------------------------------------------

Next Geometry in Ang
	Fragment 1 (Ang)

	    C   0.0000000000   0.0000000000   1.1590644270
	    S   0.0000000000   0.0000000000  -0.4351078128

    Final optimized geometry and variables:
    Molecular point group: c2v
    Full point group: C_inf_v

    Geometry (in Angstrom), charge = 0, multiplicity = 3:

    C            0.000000000000     0.000000000000     1.158938008743
    S            0.000000000000     0.000000000000    -0.434981394513

    Psi4 stopped on: Wednesday, 16 July 2025 07:05PM
    Psi4 wall time for execution: 0:00:13.25

*** Psi4 exiting successfully. Buy a developer a beer!
