                               Psi4 1.9.1 release

  ==> Input File <==

--------------------------------------------------------------------------
molecule {
0 3
F   0.00000        0.60000        0.00000
P   0.00000       -0.60000        0.00000
}

set {
basis              cc-pvdz
reference          uks
maxiter            500
geom_maxiter       500
DAMPING_PERCENTAGE 1
guess              SAP
}

optimize('b3lyp')
--------------------------------------------------------------------------

    Molecular point group: c2v
  Charge       = 0
  Multiplicity = 3
  Basis Set: CC-PVDZ
    Blend: CC-PVDZ
  Basis Set: (CC-PVDZ AUX)
    Blend: CC-PVDZ-JKFIT
  @DF-UKS Final Energy:  -440.89355880465070
    Total Energy =                       -440.8935588046506950
 Dipole X            :          0.0000000            0.0000000            0.0000000
 Dipole Y            :          0.0000000            0.0000000            0.0000000
 Dipole Z            :          0.7383161           -0.2819010            0.4564151
 Magnitude           :                                                    0.4564151
    Molecular point group: c2v
  Basis Set: CC-PVDZ
    Blend: CC-PVDZ
  Basis Set: (CC-PVDZ AUX)
    Blend: CC-PVDZ-JKFIT
  Basis Set: CC-PVDZ
    Blend: CC-PVDZ
  Basis Set: (CC-PVDZ AUX)
    Blend: CC-PVDZ-JKFIT
  @DF-UKS Final Energy:  -441.05227437112836
    Total Energy =                       -441.0522743711283056
  Basis Set: CC-PVDZ
    Blend: CC-PVDZ
  Basis Set: (CC-PVDZ AUX)
    Blend: CC-PVDZ-JKFIT
  Basis Set: CC-PVDZ
    Blend: CC-PVDZ
  @DF-UKS Final Energy:  -441.12681849935558
    Total Energy =                       -441.1268184993555792
  @DF-UKS Final Energy:  -441.14975153895455
    Total Energy =                       -441.1497515389546038
  @DF-UKS Final Energy:  -441.16076329136735
    Total Energy =                       -441.1607632913673456
  @DF-UKS Final Energy:  -441.16381761538770
    Total Energy =                       -441.1638176153876998
  @DF-UKS Final Energy:  -441.16501412439118
    Total Energy =                       -441.1650141243911776
  @DF-UKS Final Energy:  -441.16523087218428
    Total Energy =                       -441.1652308721842815
  @DF-UKS Final Energy:  -441.16527756098293
    Total Energy =                       -441.1652775609829291
  Basis Set: (CC-PVDZ AUX)
    Blend: CC-PVDZ-JKFIT
  Basis Set: CC-PVDZ
    Blend: CC-PVDZ
  Basis Set: (CC-PVDZ AUX)
    Blend: CC-PVDZ-JKFIT
  @DF-UKS Final Energy:  -441.16528275264113
    Total Energy =                       -441.1652827526411329
  Basis Set: CC-PVDZ
    Blend: CC-PVDZ
  Basis Set: (CC-PVDZ AUX)
    Blend: CC-PVDZ-JKFIT
  Charge       = 0
  Multiplicity = 3
  Basis Set: CC-PVDZ
    Blend: CC-PVDZ
  Basis Set: (CC-PVDZ AUX)
    Blend: CC-PVDZ-JKFIT

    Orbital Energies [Eh]
    ---------------------

    Alpha Occupied:

       1A1   -77.154289     2A1   -24.711641     3A1    -6.618881
       1B1    -4.781468     1B2    -4.781468     4A1    -4.780769
       5A1    -1.204483     6A1    -0.623539     2B1    -0.455576
       2B2    -0.455576     7A1    -0.441149     3B2    -0.238077
       3B1    -0.238077

    Alpha Virtual:

       8A1    -0.020761     9A1     0.329139     4B1     0.384455
       4B2     0.384455    10A1     0.417877     1A2     0.417877
      11A1     0.419239     5B2     0.471975     5B1     0.471975
      12A1     0.664131     6B2     1.215898     6B1     1.215898
      13A1     1.233143    14A1     2.108338     2A2     3.543360
      15A1     3.543416     7B2     3.583783     7B1     3.583783
      16A1     3.807759

    Beta Occupied:

       1A1   -77.146197     2A1   -24.704945     3A1    -6.610267
       4A1    -4.776231     1B1    -4.764838     1B2    -4.764838
       5A1    -1.190047     6A1    -0.578114     2B1    -0.428925
       2B2    -0.428925     7A1    -0.401798

    Beta Virtual:

       3B2    -0.105725     3B1    -0.105725     8A1     0.004889
       9A1     0.356775     4B1     0.426745     4B2     0.426745
      10A1     0.427760     1A2     0.507992    11A1     0.507992
       5B2     0.519165     5B1     0.519165    12A1     0.695249
       6B2     1.228662     6B1     1.228662    13A1     1.237958
      14A1     2.116300     2A2     3.560939    15A1     3.560996
       7B2     3.594396     7B1     3.594396    16A1     3.817489

    Final Occupation by Irrep:
             A1    A2    B1    B2
    DOCC [     7,    0,    2,    2 ]
    SOCC [     0,    0,    1,    1 ]
    NA   [     7,    0,    3,    3 ]
    NB   [     7,    0,    2,    2 ]

  @DF-UKS Final Energy:  -441.16528291460520

   => Energetics <=

    Nuclear Repulsion Energy =             43.3563304813965118
    One-Electron Energy =                -697.3810214042887310
    Two-Electron Energy =                 240.0255535399479925
    DFT Exchange-Correlation Energy =     -27.1661455316609874
    Empirical Dispersion Energy =           0.0000000000000000
    VV10 Nonlocal Energy =                  0.0000000000000000
    Total Energy =                       -441.1652829146051999

  UHF NO Occupations:
  HONO-2 :    7 A1 1.9980154
  HONO-1 :    3 B2 1.0000000
  HONO-0 :    3 B1 1.0000000
  LUNO+0 :    8 A1 0.0019846
  LUNO+1 :    4 B1 0.0001205
  LUNO+2 :    4 B2 0.0001205
  LUNO+3 :    9 A1 0.0000408

Computation Completed

Properties will be evaluated at   0.000000,   0.000000,   0.000000 [a0]

Properties computed using the SCF density matrix

 Multipole Moments:

 ------------------------------------------------------------------------------------
     Multipole            Electronic (a.u.)      Nuclear  (a.u.)        Total (a.u.)
 ------------------------------------------------------------------------------------

 L = 1.  Multiply by 2.5417464519 to convert [e a0] to [Debye]
 Dipole X            :          0.0000000            0.0000000            0.0000000
 Dipole Y            :          0.0000000            0.0000000            0.0000000
 Dipole Z            :         -0.0795947           -0.3870774           -0.4666720
 Magnitude           :                                                    0.4666720

 ------------------------------------------------------------------------------------

*** tstop() called on Joses-MacBook-Pro-2.local at Wed Jul 16 19:29:19 2025
Module time:
	user time   =       4.29 seconds =       0.07 minutes
	system time =       2.10 seconds =       0.04 minutes
	total time  =          0 seconds =       0.00 minutes
Total time:
	user time   =      64.20 seconds =       1.07 minutes
	system time =      55.41 seconds =       0.92 minutes
	total time  =         12 seconds =       0.20 minutes

*** tstart() called on Joses-MacBook-Pro-2.local
*** at Wed Jul 16 19:29:19 2025

         ------------------------------------------------------------
                                   SCF GRAD
                          Rob Parrish, Justin Turney,
                       Andy Simmonett, and Alex Sokolov
         ------------------------------------------------------------

  ==> Geometry <==

    Molecular point group: c2v
    Full point group: C_inf_v

    Geometry (in Angstrom), charge = 0, multiplicity = 3:

       Center              X                  Y                   Z               Mass
    ------------   -----------------  -----------------  -----------------  -----------------
         F            0.000000000000     0.000000000000     1.021287869388    18.998403162730
         P            0.000000000000     0.000000000000    -0.626428222985    30.973761998420

  Nuclear repulsion =   43.356330481396512

  ==> Basis Set <==

  Basis Set: CC-PVDZ
    Blend: CC-PVDZ
    Number of shells: 14
    Number of basis functions: 32
    Number of Cartesian functions: 34
    Spherical Harmonics?: true
    Max angular momentum: 2

  ==> DFJKGrad: Density-Fitted SCF Gradients <==

    Gradient:                    1
    J tasked:                  Yes
    K tasked:                  Yes
    wK tasked:                  No
    OpenMP threads:              1
    Integrals threads:           1
    Memory [MiB]:              375
    Schwarz Cutoff:          1E-12
    Fitting Condition:       1E-10

   => Auxiliary Basis Set <=

  Basis Set: (CC-PVDZ AUX)
    Blend: CC-PVDZ-JKFIT
    Number of shells: 60
    Number of basis functions: 182
    Number of Cartesian functions: 211
    Spherical Harmonics?: true
    Max angular momentum: 3

  ==> DFT Potential <==

   => LibXC <=

    Version 6.2.2
    S. Lehtola, C. Steigemann, M. J.T. Oliveira, and M. A.L. Marques.,  SoftwareX 7, 1â€“5 (2018) (10.1016/j.softx.2017.11.002)

   => Composite Functional: B3LYP <=

    B3LYP Hyb-GGA Exchange-Correlation Functional

    P. J. Stephens, F. J. Devlin, C. F. Chabalowski, and M. J. Frisch.,  J. Phys. Chem. 98, 11623 (1994) (10.1021/j100096a001)

    Deriv               =              1
    GGA                 =           TRUE
    Meta                =          FALSE

    Exchange Hybrid     =           TRUE
    MP2 Hybrid          =          FALSE

   => Exchange Functionals <=

    0.0800   Slater exchange
    0.7200         Becke 88

   => Exact (HF) Exchange <=

    0.2000               HF

   => Correlation Functionals <=

    0.1900   Vosko, Wilk & Nusair (VWN5_RPA)
    0.8100   Lee, Yang & Parr

   => LibXC Density Thresholds  <==

    XC_HYB_GGA_XC_B3LYP:  1.00E-15

   => Molecular Quadrature <=

    Radial Scheme          =       TREUTLER
    Pruning Scheme         =           NONE
    Nuclear Scheme         =       TREUTLER

    Blocking Scheme        =         OCTREE
    BS radius alpha        =              1
    Pruning alpha          =              1
    Radial Points          =             75
    Spherical Points       =            302
    Total Points           =          42484
    Total Blocks           =            381
    Max Points             =            254
    Max Functions          =             32
    Weights Tolerance      =       1.00E-15

  -Total Gradient:
     Atom            X                  Y                   Z
    ------   -----------------  -----------------  -----------------
       1        0.000000000000     0.000000000000    -0.000081375574
       2        0.000000000000    -0.000000000000     0.000013987388

*** tstop() called on Joses-MacBook-Pro-2.local at Wed Jul 16 19:29:20 2025
Module time:
	user time   =       1.58 seconds =       0.03 minutes
	system time =       1.34 seconds =       0.02 minutes
	total time  =          1 seconds =       0.02 minutes
Total time:
	user time   =      65.78 seconds =       1.10 minutes
	system time =      56.75 seconds =       0.95 minutes
	total time  =         13 seconds =       0.22 minutes

    			-----------------------------------------

    			 OPTKING 3.0: for geometry optimizations

    			     By R.A. King, Bethel University

    			        with contributions from

    			    A.V. Copan, J. Cayton, A. Heide

    			-----------------------------------------

	                            ===> Fragment 1 <==

	 Z (Atomic Numbers)          Masses                          Geom
	       9.000000            18.998403          0.00000000  0.00000000  1.92995437
	      15.000000            30.973762          0.00000000  0.00000000 -1.18377778

	 - Coordinate -           - BOHR/RAD -       - ANG/DEG -
	 R(1,2)           =         3.113732           1.647716

	        --- Internal Coordinate Step in ANG or DEG, aJ/ANG or AJ/DEG ---
	-------------------------------------------------------------------------------
	           Coordinate      Previous         Force          Change          New
	           ----------      --------        ------          ------        ------
	               R(1,2)       1.64772        0.00039        0.00008       1.64779
	-------------------------------------------------------------------------------

	                                 ==> Convergence Check <==

	Measures of convergence in internal coordinates in au.

	Criteria marked as inactive (o), active & met (*), and active & unmet ( ).

	----------------------------------------------------------------------------------------------
	   Step    Total Energy     Delta E     Max Force     RMS Force      Max Disp      RMS Disp
	----------------------------------------------------------------------------------------------
	  Convergence Criteria     1.00e-06 *    3.00e-04 *             o    1.20e-03 *             o
	----------------------------------------------------------------------------------------------
	    11    -441.16528291   -1.62e-07 *    4.77e-05 *    4.77e-05 o    1.47e-04 *    1.47e-04 o  ~
	----------------------------------------------------------------------------------------------

Next Geometry in Ang
	Fragment 1 (Ang)

	    F   0.0000000000   0.0000000000   1.0213268273
	    P   0.0000000000   0.0000000000  -0.6264671809

    Final optimized geometry and variables:
    Molecular point group: c2v
    Full point group: C_inf_v

    Geometry (in Angstrom), charge = 0, multiplicity = 3:

    F            0.000000000000     0.000000000000     1.021287869388
    P            0.000000000000     0.000000000000    -0.626428222985

    Psi4 stopped on: Wednesday, 16 July 2025 07:29PM
    Psi4 wall time for execution: 0:00:13.05

*** Psi4 exiting successfully. Buy a developer a beer!
