                               Psi4 1.9.1 release

  ==> Input File <==

--------------------------------------------------------------------------
molecule {
0 3
Ne   0.00000        0.60000        0.00000
Mg   0.00000       -0.60000        0.00000
}

set {
basis              cc-pvdz
reference          uks
maxiter            500
geom_maxiter       500
DAMPING_PERCENTAGE 1
guess              SAP
}

optimize('b3lyp')
--------------------------------------------------------------------------

    Molecular point group: c2v
  Charge       = 0
  Multiplicity = 3
  Basis Set: CC-PVDZ
    Blend: CC-PVDZ
  Basis Set: (CC-PVDZ AUX)
    Blend: CC-PVDZ-JKFIT + DEF2-UNIVERSAL-JKFIT
  @DF-UKS Final Energy:  -328.44247370526421
    Total Energy =                       -328.4424737052642058
 Dipole X            :          0.0000000            0.0000000            0.0000000
 Dipole Y            :          0.0000000            0.0000000            0.0000000
 Dipole Z            :          0.7952147           -0.0030353            0.7921794
 Magnitude           :                                                    0.7921794
    Molecular point group: c2v
  Basis Set: CC-PVDZ
    Blend: CC-PVDZ
  Basis Set: (CC-PVDZ AUX)
    Blend: CC-PVDZ-JKFIT + DEF2-UNIVERSAL-JKFIT
  Basis Set: CC-PVDZ
    Blend: CC-PVDZ
  Basis Set: (CC-PVDZ AUX)
    Blend: CC-PVDZ-JKFIT + DEF2-UNIVERSAL-JKFIT
  @DF-UKS Final Energy:  -328.67598317920624
    Total Energy =                       -328.6759831792062414
  Basis Set: CC-PVDZ
    Blend: CC-PVDZ
  Basis Set: (CC-PVDZ AUX)
    Blend: CC-PVDZ-JKFIT + DEF2-UNIVERSAL-JKFIT
  Basis Set: CC-PVDZ
    Blend: CC-PVDZ
  @DF-UKS Final Energy:  -328.77993252661327
    Total Energy =                       -328.7799325266132655
  @DF-UKS Final Energy:  -328.83790958327239
    Total Energy =                       -328.8379095832724488
  @DF-UKS Final Energy:  -328.86185550069183
    Total Energy =                       -328.8618555006917745
  @DF-UKS Final Energy:  -328.87848923618452
    Total Energy =                       -328.8784892361845209
  @DF-UKS Final Energy:  -328.88930994558513
    Total Energy =                       -328.8893099455851257
  @DF-UKS Final Energy:  -328.89533498827137
    Total Energy =                       -328.8953349882713724
  @DF-UKS Final Energy:  -328.89879286233520
    Total Energy =                       -328.8987928623351991
  @DF-UKS Final Energy:  -328.90074734968238
    Total Energy =                       -328.9007473496824332
  @DF-UKS Final Energy:  -328.90174143539264
    Total Energy =                       -328.9017414353926370
  @DF-UKS Final Energy:  -328.90218353795700
    Total Energy =                       -328.9021835379570007
  @DF-UKS Final Energy:  -328.90234647237457
    Total Energy =                       -328.9023464723745747
  @DF-UKS Final Energy:  -328.90238031619134
    Total Energy =                       -328.9023803161912838
  Basis Set: (CC-PVDZ AUX)
    Blend: CC-PVDZ-JKFIT + DEF2-UNIVERSAL-JKFIT
  Basis Set: CC-PVDZ
    Blend: CC-PVDZ
  Basis Set: (CC-PVDZ AUX)
    Blend: CC-PVDZ-JKFIT + DEF2-UNIVERSAL-JKFIT
  @DF-UKS Final Energy:  -328.90238730108081
    Total Energy =                       -328.9023873010808074
  Basis Set: CC-PVDZ
    Blend: CC-PVDZ
  Basis Set: (CC-PVDZ AUX)
    Blend: CC-PVDZ-JKFIT + DEF2-UNIVERSAL-JKFIT
  Charge       = 0
  Multiplicity = 3
  Basis Set: CC-PVDZ
    Blend: CC-PVDZ
  Basis Set: (CC-PVDZ AUX)
    Blend: CC-PVDZ-JKFIT + DEF2-UNIVERSAL-JKFIT

    Orbital Energies [Eh]
    ---------------------

    Alpha Occupied:

       1A1   -46.878173     2A1   -31.025695     3A1    -3.157249
       4A1    -1.901543     1B1    -1.901491     1B2    -1.898487
       5A1    -1.487761     6A1    -0.602767     2B1    -0.593805
       2B2    -0.593288     7A1    -0.235909     3B2    -0.103517

    Alpha Virtual:

       3B1    -0.054907     8A1    -0.038926     9A1     0.081538
       4B2     0.131905     4B1     0.141254    10A1     0.142436
       1A2     0.273460     5B2     0.274424    11A1     0.278465
       5B1     0.285264    12A1     0.310293     6B1     1.337613
       6B2     1.339109    13A1     1.436229    14A1     1.973956
       7B1     4.669443     7B2     4.669972     2A2     4.671908
      15A1     4.672238    16A1     4.675715

    Beta Occupied:

       1A1   -46.873959     2A1   -31.024909     3A1    -3.150181
       4A1    -1.897300     1B1    -1.897243     1B2    -1.889743
       5A1    -1.486285     6A1    -0.600309     2B1    -0.593228
       2B2    -0.591899

    Beta Virtual:

       7A1    -0.131300     3B1    -0.017498     8A1    -0.006584
       3B2     0.001465     9A1     0.104559    10A1     0.161881
       4B1     0.162653     4B2     0.179448     5B1     0.318132
      11A1     0.332554     5B2     0.338582     1A2     0.342522
      12A1     0.356535     6B1     1.338437     6B2     1.340843
      13A1     1.439163    14A1     1.977463     7B1     4.670584
       7B2     4.671445     2A2     4.672644    15A1     4.672945
      16A1     4.677259

    Final Occupation by Irrep:
             A1    A2    B1    B2
    DOCC [     6,    0,    2,    2 ]
    SOCC [     1,    0,    0,    1 ]
    NA   [     7,    0,    2,    3 ]
    NB   [     6,    0,    2,    2 ]

  @DF-UKS Final Energy:  -328.90238743797931

   => Energetics <=

    Nuclear Repulsion Energy =             24.4881812937193857
    One-Electron Energy =                -509.6972633835743522
    Two-Electron Energy =                 179.6691023338869400
    DFT Exchange-Correlation Energy =     -23.3624076820112911
    Empirical Dispersion Energy =           0.0000000000000000
    VV10 Nonlocal Energy =                  0.0000000000000000
    Total Energy =                       -328.9023874379793142

  UHF NO Occupations:
  HONO-2 :    6 A1 1.9999950
  HONO-1 :    3 B2 1.0000000
  HONO-0 :    7 A1 1.0000000
  LUNO+0 :    8 A1 0.0000050
  LUNO+1 :    3 B1 0.0000019
  LUNO+2 :    4 B2 0.0000013
  LUNO+3 :    9 A1 0.0000008

Computation Completed

Properties will be evaluated at   0.000000,   0.000000,   0.000000 [a0]

Properties computed using the SCF density matrix

 Multipole Moments:

 ------------------------------------------------------------------------------------
     Multipole            Electronic (a.u.)      Nuclear  (a.u.)        Total (a.u.)
 ------------------------------------------------------------------------------------

 L = 1.  Multiply by 2.5417464519 to convert [e a0] to [Debye]
 Dipole X            :          0.0000000            0.0000000            0.0000000
 Dipole Y            :          0.0000000            0.0000000            0.0000000
 Dipole Z            :          0.3235828           -0.0065592            0.3170236
 Magnitude           :                                                    0.3170236

 ------------------------------------------------------------------------------------

*** tstop() called on Joses-MacBook-Pro-2.local at Wed Jul 16 19:33:54 2025
Module time:
	user time   =       2.62 seconds =       0.04 minutes
	system time =       3.13 seconds =       0.05 minutes
	total time  =          0 seconds =       0.00 minutes
Total time:
	user time   =      76.38 seconds =       1.27 minutes
	system time =      73.84 seconds =       1.23 minutes
	total time  =         15 seconds =       0.25 minutes

*** tstart() called on Joses-MacBook-Pro-2.local
*** at Wed Jul 16 19:33:54 2025

         ------------------------------------------------------------
                                   SCF GRAD
                          Rob Parrish, Justin Turney,
                       Andy Simmonett, and Alex Sokolov
         ------------------------------------------------------------

  ==> Geometry <==

    Molecular point group: c2v
    Full point group: C_inf_v

    Geometry (in Angstrom), charge = 0, multiplicity = 3:

       Center              X                  Y                   Z               Mass
    ------------   -----------------  -----------------  -----------------  -----------------
         NE           0.000000000000     0.000000000000     1.414281845388    19.992440176200
         MG           0.000000000000     0.000000000000    -1.178857453883    23.985041697000

  Nuclear repulsion =   24.488181293719386

  ==> Basis Set <==

  Basis Set: CC-PVDZ
    Blend: CC-PVDZ
    Number of shells: 14
    Number of basis functions: 32
    Number of Cartesian functions: 34
    Spherical Harmonics?: true
    Max angular momentum: 2

  ==> DFJKGrad: Density-Fitted SCF Gradients <==

    Gradient:                    1
    J tasked:                  Yes
    K tasked:                  Yes
    wK tasked:                  No
    OpenMP threads:              1
    Integrals threads:           1
    Memory [MiB]:              375
    Schwarz Cutoff:          1E-12
    Fitting Condition:       1E-10

   => Auxiliary Basis Set <=

  Basis Set: (CC-PVDZ AUX)
    Blend: CC-PVDZ-JKFIT + DEF2-UNIVERSAL-JKFIT
    Number of shells: 58
    Number of basis functions: 182
    Number of Cartesian functions: 218
    Spherical Harmonics?: true
    Max angular momentum: 4

  ==> DFT Potential <==

   => LibXC <=

    Version 6.2.2
    S. Lehtola, C. Steigemann, M. J.T. Oliveira, and M. A.L. Marques.,  SoftwareX 7, 1â€“5 (2018) (10.1016/j.softx.2017.11.002)

   => Composite Functional: B3LYP <=

    B3LYP Hyb-GGA Exchange-Correlation Functional

    P. J. Stephens, F. J. Devlin, C. F. Chabalowski, and M. J. Frisch.,  J. Phys. Chem. 98, 11623 (1994) (10.1021/j100096a001)

    Deriv               =              1
    GGA                 =           TRUE
    Meta                =          FALSE

    Exchange Hybrid     =           TRUE
    MP2 Hybrid          =          FALSE

   => Exchange Functionals <=

    0.0800   Slater exchange
    0.7200         Becke 88

   => Exact (HF) Exchange <=

    0.2000               HF

   => Correlation Functionals <=

    0.1900   Vosko, Wilk & Nusair (VWN5_RPA)
    0.8100   Lee, Yang & Parr

   => LibXC Density Thresholds  <==

    XC_HYB_GGA_XC_B3LYP:  1.00E-15

   => Molecular Quadrature <=

    Radial Scheme          =       TREUTLER
    Pruning Scheme         =           NONE
    Nuclear Scheme         =       TREUTLER

    Blocking Scheme        =         OCTREE
    BS radius alpha        =              1
    Pruning alpha          =              1
    Radial Points          =             75
    Spherical Points       =            302
    Total Points           =          43495
    Total Blocks           =            408
    Max Points             =            254
    Max Functions          =             32
    Weights Tolerance      =       1.00E-15

  -Total Gradient:
     Atom            X                  Y                   Z
    ------   -----------------  -----------------  -----------------
       1       -0.000000000000     0.000000000000    -0.000063134906
       2       -0.000000000000     0.000000000000     0.000039630968

*** tstop() called on Joses-MacBook-Pro-2.local at Wed Jul 16 19:33:54 2025
Module time:
	user time   =       2.19 seconds =       0.04 minutes
	system time =       0.51 seconds =       0.01 minutes
	total time  =          0 seconds =       0.00 minutes
Total time:
	user time   =      78.57 seconds =       1.31 minutes
	system time =      74.35 seconds =       1.24 minutes
	total time  =         15 seconds =       0.25 minutes

    			-----------------------------------------

    			 OPTKING 3.0: for geometry optimizations

    			     By R.A. King, Bethel University

    			        with contributions from

    			    A.V. Copan, J. Cayton, A. Heide

    			-----------------------------------------

	                            ===> Fragment 1 <==

	 Z (Atomic Numbers)          Masses                          Geom
	      10.000000            19.992440          0.00000000  0.00000000  2.67260535
	      12.000000            23.985042          0.00000000  0.00000000 -2.22771773

	 - Coordinate -           - BOHR/RAD -       - ANG/DEG -
	 R(1,2)           =         4.900323           2.593139

	        --- Internal Coordinate Step in ANG or DEG, aJ/ANG or AJ/DEG ---
	-------------------------------------------------------------------------------
	           Coordinate      Previous         Force          Change          New
	           ----------      --------        ------          ------        ------
	               R(1,2)       2.59314        0.00042        0.00387       2.59701
	-------------------------------------------------------------------------------

	                                 ==> Convergence Check <==

	Measures of convergence in internal coordinates in au.

	Criteria marked as inactive (o), active & met (*), and active & unmet ( ).

	----------------------------------------------------------------------------------------------
	   Step    Total Energy     Delta E     Max Force     RMS Force      Max Disp      RMS Disp
	----------------------------------------------------------------------------------------------
	  Convergence Criteria     1.00e-06 *    3.00e-04 *             o    1.20e-03 *             o
	----------------------------------------------------------------------------------------------
	    16    -328.90238744   -1.37e-07 *    5.14e-05 *    5.14e-05 o    7.32e-03      7.32e-03 o  ~
	----------------------------------------------------------------------------------------------

Next Geometry in Ang
	Fragment 1 (Ang)

	   Ne   0.0000000000   0.0000000000   1.4162176939
	   Mg   0.0000000000   0.0000000000  -1.1807933024

    Final optimized geometry and variables:
    Molecular point group: c2v
    Full point group: C_inf_v

    Geometry (in Angstrom), charge = 0, multiplicity = 3:

    NE           0.000000000000     0.000000000000     1.414281845388
    MG           0.000000000000     0.000000000000    -1.178857453883

    Psi4 stopped on: Wednesday, 16 July 2025 07:33PM
    Psi4 wall time for execution: 0:00:15.68

*** Psi4 exiting successfully. Buy a developer a beer!
