                               Psi4 1.9.1 release

  ==> Input File <==

--------------------------------------------------------------------------
molecule {
0 3
Li   0.00000        0.60000        0.00000
Cl   0.00000       -0.60000        0.00000
}

set {
basis              cc-pvdz
reference          uks
maxiter            500
geom_maxiter       500
DAMPING_PERCENTAGE 1
guess              SAP
}

optimize('b3lyp')
--------------------------------------------------------------------------

    Molecular point group: c2v
  Charge       = 0
  Multiplicity = 3
  Basis Set: CC-PVDZ
    Blend: CC-PVDZ
  Basis Set: (CC-PVDZ AUX)
    Blend: CC-PVDZ-JKFIT + DEF2-UNIVERSAL-JKFIT
  @DF-UKS Final Energy:  -467.18369508700761
    Total Energy =                       -467.1836950870075498
 Dipole X            :          0.0000000            0.0000000            0.0000000
 Dipole Y            :          0.0000000            0.0000000            0.0000000
 Dipole Z            :         -0.7368136           -0.7759044           -1.5127179
 Magnitude           :                                                    1.5127179
    Molecular point group: c2v
  Basis Set: CC-PVDZ
    Blend: CC-PVDZ
  Basis Set: (CC-PVDZ AUX)
    Blend: CC-PVDZ-JKFIT + DEF2-UNIVERSAL-JKFIT
  Basis Set: CC-PVDZ
    Blend: CC-PVDZ
  Basis Set: (CC-PVDZ AUX)
    Blend: CC-PVDZ-JKFIT + DEF2-UNIVERSAL-JKFIT
  @DF-UKS Final Energy:  -467.32308192373830
    Total Energy =                       -467.3230819237383002
  Basis Set: CC-PVDZ
    Blend: CC-PVDZ
  Basis Set: (CC-PVDZ AUX)
    Blend: CC-PVDZ-JKFIT + DEF2-UNIVERSAL-JKFIT
  Basis Set: CC-PVDZ
    Blend: CC-PVDZ
  @DF-UKS Final Energy:  -467.44432834908577
    Total Energy =                       -467.4443283490857652
  @DF-UKS Final Energy:  -467.52510790931211
    Total Energy =                       -467.5251079093121120
  @DF-UKS Final Energy:  -467.57505937526878
    Total Energy =                       -467.5750593752687791
  @DF-UKS Final Energy:  -467.60170702255482
    Total Energy =                       -467.6017070225547627
  @DF-UKS Final Energy:  -467.61749190593076
    Total Energy =                       -467.6174919059307626
  @DF-UKS Final Energy:  -467.62741372355134
    Total Energy =                       -467.6274137235513422
  @DF-UKS Final Energy:  -467.63441259136965
    Total Energy =                       -467.6344125913696530
  @DF-UKS Final Energy:  -467.63988701433863
    Total Energy =                       -467.6398870143386262
  @DF-UKS Final Energy:  -467.64013439703547
    Total Energy =                       -467.6401343970355242
  @DF-UKS Final Energy:  -467.64456753506522
    Total Energy =                       -467.6445675350652209
  @DF-UKS Final Energy:  -467.64467486416811
    Total Energy =                       -467.6446748641681666
  @DF-UKS Final Energy:  -467.64719620092541
    Total Energy =                       -467.6471962009253502
  @DF-UKS Final Energy:  -467.64723587548968
    Total Energy =                       -467.6472358754896845
  @DF-UKS Final Energy:  -467.64855388584624
    Total Energy =                       -467.6485538858461268
  @DF-UKS Final Energy:  -467.64856708603622
    Total Energy =                       -467.6485670860362234
  @DF-UKS Final Energy:  -467.64923505993818
    Total Energy =                       -467.6492350599381211
  @DF-UKS Final Energy:  -467.64923923300961
    Total Energy =                       -467.6492392330095527
  @DF-UKS Final Energy:  -467.64924336197362
    Total Energy =                       -467.6492433619736175
  @DF-UKS Final Energy:  -467.64924744822542
    Total Energy =                       -467.6492474482254238
  @DF-UKS Final Energy:  -467.64958982120464
    Total Energy =                       -467.6495898212046427
  @DF-UKS Final Energy:  -467.64959106379666
    Total Energy =                       -467.6495910637966631
  @DF-UKS Final Energy:  -467.64959229929792
    Total Energy =                       -467.6495922992979217
  @DF-UKS Final Energy:  -467.64959352724316
    Total Energy =                       -467.6495935272430984
  @DF-UKS Final Energy:  -467.64959474775122
    Total Energy =                       -467.6495947477512800
  @DF-UKS Final Energy:  -467.64959596084952
    Total Energy =                       -467.6495959608495809
  Basis Set: (CC-PVDZ AUX)
    Blend: CC-PVDZ-JKFIT + DEF2-UNIVERSAL-JKFIT
  Basis Set: CC-PVDZ
    Blend: CC-PVDZ
  Basis Set: (CC-PVDZ AUX)
    Blend: CC-PVDZ-JKFIT + DEF2-UNIVERSAL-JKFIT
  @DF-UKS Final Energy:  -467.64977177363028
    Total Energy =                       -467.6497717736302207
  Basis Set: CC-PVDZ
    Blend: CC-PVDZ
  Basis Set: (CC-PVDZ AUX)
    Blend: CC-PVDZ-JKFIT + DEF2-UNIVERSAL-JKFIT
  Charge       = 0
  Multiplicity = 3
  Basis Set: CC-PVDZ
    Blend: CC-PVDZ
  Basis Set: (CC-PVDZ AUX)
    Blend: CC-PVDZ-JKFIT + DEF2-UNIVERSAL-JKFIT

    Orbital Energies [Eh]
    ---------------------

    Alpha Occupied:

       1A1  -101.591715     2A1    -9.505759     3A1    -7.279575
       1B2    -7.255948     1B1    -7.255948     4A1    -2.034107
       5A1    -0.843031     6A1    -0.405214     2B1    -0.349611
       2B2    -0.349611     7A1    -0.135998

    Alpha Virtual:

       8A1    -0.033077     3B2    -0.033045     3B1    -0.033045
       4B1     0.070595     4B2     0.070595     9A1     0.071055
      10A1     0.084257    11A1     0.213166     5B1     0.216157
       5B2     0.216157    12A1     0.216836     1A2     0.216836
      13A1     0.513143     6B1     0.532453     6B2     0.532453
      14A1     0.617212    15A1     0.655808     7B1     0.667337
       7B2     0.667337     2A2     0.711316    16A1     0.711348

    Beta Occupied:

       1A1  -101.584986     2A1    -9.499109     3A1    -7.257647
       1B2    -7.251954     1B1    -7.251954     4A1    -2.026818
       5A1    -0.789665     2B1    -0.333696     2B2    -0.333696

    Beta Virtual:

       6A1    -0.243992     7A1    -0.055931     3B2     0.000799
       3B1     0.000799     8A1     0.001151     4B1     0.088668
       4B2     0.088668     9A1     0.088909    10A1     0.105019
      11A1     0.260444    12A1     0.263121     1A2     0.263123
       5B2     0.263838     5B1     0.263838     6B1     0.539701
       6B2     0.539701    13A1     0.556737    14A1     0.640951
       2A2     0.719645    15A1     0.719674     7B2     0.724992
       7B1     0.724992    16A1     0.734471

    Final Occupation by Irrep:
             A1    A2    B1    B2
    DOCC [     5,    0,    2,    2 ]
    SOCC [     2,    0,    0,    0 ]
    NA   [     7,    0,    2,    2 ]
    NB   [     5,    0,    2,    2 ]

  @DF-UKS Final Energy:  -467.64977212473525

   => Energetics <=

    Nuclear Repulsion Energy =              5.3947987893863134
    One-Electron Energy =                -655.5355928997744286
    Two-Electron Energy =                 206.6902323398242345
    DFT Exchange-Correlation Energy =     -24.1992103541713099
    Empirical Dispersion Energy =           0.0000000000000000
    VV10 Nonlocal Energy =                  0.0000000000000000
    Total Energy =                       -467.6497721247352501

  UHF NO Occupations:
  HONO-2 :    5 A1 1.9991387
  HONO-1 :    6 A1 1.0000000
  HONO-0 :    7 A1 1.0000000
  LUNO+0 :    8 A1 0.0008613
  LUNO+1 :    3 B1 0.0000278
  LUNO+2 :    3 B2 0.0000278
  LUNO+3 :    9 A1 0.0000002

Computation Completed

Properties will be evaluated at   0.000000,   0.000000,   0.000000 [a0]

Properties computed using the SCF density matrix

 Multipole Moments:

 ------------------------------------------------------------------------------------
     Multipole            Electronic (a.u.)      Nuclear  (a.u.)        Total (a.u.)
 ------------------------------------------------------------------------------------

 L = 1.  Multiply by 2.5417464519 to convert [e a0] to [Debye]
 Dipole X            :          0.0000000            0.0000000            0.0000000
 Dipole Y            :          0.0000000            0.0000000            0.0000000
 Dipole Z            :          3.2547500           -3.2346181            0.0201319
 Magnitude           :                                                    0.0201319

 ------------------------------------------------------------------------------------

*** tstop() called on Joses-MacBook-Pro-2.local at Wed Jul 16 18:37:44 2025
Module time:
	user time   =       1.75 seconds =       0.03 minutes
	system time =       2.44 seconds =       0.04 minutes
	total time  =          0 seconds =       0.00 minutes
Total time:
	user time   =     133.81 seconds =       2.23 minutes
	system time =     132.27 seconds =       2.20 minutes
	total time  =         26 seconds =       0.43 minutes

*** tstart() called on Joses-MacBook-Pro-2.local
*** at Wed Jul 16 18:37:44 2025

         ------------------------------------------------------------
                                   SCF GRAD
                          Rob Parrish, Justin Turney,
                       Andy Simmonett, and Alex Sokolov
         ------------------------------------------------------------

  ==> Geometry <==

    Molecular point group: c2v
    Full point group: C_inf_v

    Geometry (in Angstrom), charge = 0, multiplicity = 3:

       Center              X                  Y                   Z               Mass
    ------------   -----------------  -----------------  -----------------  -----------------
         LI           0.000000000000     0.000000000000     4.166628419609     7.016003436600
         CL           0.000000000000     0.000000000000    -0.835974790962    34.968852682000

  Nuclear repulsion =    5.394798789386313

  ==> Basis Set <==

  Basis Set: CC-PVDZ
    Blend: CC-PVDZ
    Number of shells: 14
    Number of basis functions: 32
    Number of Cartesian functions: 34
    Spherical Harmonics?: true
    Max angular momentum: 2

  ==> DFJKGrad: Density-Fitted SCF Gradients <==

    Gradient:                    1
    J tasked:                  Yes
    K tasked:                  Yes
    wK tasked:                  No
    OpenMP threads:              1
    Integrals threads:           1
    Memory [MiB]:              375
    Schwarz Cutoff:          1E-12
    Fitting Condition:       1E-10

   => Auxiliary Basis Set <=

  Basis Set: (CC-PVDZ AUX)
    Blend: CC-PVDZ-JKFIT + DEF2-UNIVERSAL-JKFIT
    Number of shells: 53
    Number of basis functions: 163
    Number of Cartesian functions: 190
    Spherical Harmonics?: true
    Max angular momentum: 3

  ==> DFT Potential <==

   => LibXC <=

    Version 6.2.2
    S. Lehtola, C. Steigemann, M. J.T. Oliveira, and M. A.L. Marques.,  SoftwareX 7, 1â€“5 (2018) (10.1016/j.softx.2017.11.002)

   => Composite Functional: B3LYP <=

    B3LYP Hyb-GGA Exchange-Correlation Functional

    P. J. Stephens, F. J. Devlin, C. F. Chabalowski, and M. J. Frisch.,  J. Phys. Chem. 98, 11623 (1994) (10.1021/j100096a001)

    Deriv               =              1
    GGA                 =           TRUE
    Meta                =          FALSE

    Exchange Hybrid     =           TRUE
    MP2 Hybrid          =          FALSE

   => Exchange Functionals <=

    0.0800   Slater exchange
    0.7200         Becke 88

   => Exact (HF) Exchange <=

    0.2000               HF

   => Correlation Functionals <=

    0.1900   Vosko, Wilk & Nusair (VWN5_RPA)
    0.8100   Lee, Yang & Parr

   => LibXC Density Thresholds  <==

    XC_HYB_GGA_XC_B3LYP:  1.00E-15

   => Molecular Quadrature <=

    Radial Scheme          =       TREUTLER
    Pruning Scheme         =           NONE
    Nuclear Scheme         =       TREUTLER

    Blocking Scheme        =         OCTREE
    BS radius alpha        =              1
    Pruning alpha          =              1
    Radial Points          =             75
    Spherical Points       =            302
    Total Points           =          44412
    Total Blocks           =            467
    Max Points             =            255
    Max Functions          =             32
    Weights Tolerance      =       1.00E-15

  -Total Gradient:
     Atom            X                  Y                   Z
    ------   -----------------  -----------------  -----------------
       1       -0.000000000000     0.000000000000    -0.000201605356
       2        0.000000000000    -0.000000000000     0.000200982295

*** tstop() called on Joses-MacBook-Pro-2.local at Wed Jul 16 18:37:44 2025
Module time:
	user time   =       1.04 seconds =       0.02 minutes
	system time =       1.71 seconds =       0.03 minutes
	total time  =          0 seconds =       0.00 minutes
Total time:
	user time   =     134.89 seconds =       2.25 minutes
	system time =     133.98 seconds =       2.23 minutes
	total time  =         26 seconds =       0.43 minutes

    			-----------------------------------------

    			 OPTKING 3.0: for geometry optimizations

    			     By R.A. King, Bethel University

    			        with contributions from

    			    A.V. Copan, J. Cayton, A. Heide

    			-----------------------------------------

	                            ===> Fragment 1 <==

	 Z (Atomic Numbers)          Masses                          Geom
	       3.000000             7.016003          0.00000000  0.00000000  7.87378658
	      17.000000            34.968853          0.00000000  0.00000000 -1.57976340

	 - Coordinate -           - BOHR/RAD -       - ANG/DEG -
	 R(1,2)           =         9.453550           5.002603

	        --- Internal Coordinate Step in ANG or DEG, aJ/ANG or AJ/DEG ---
	-------------------------------------------------------------------------------
	           Coordinate      Previous         Force          Change          New
	           ----------      --------        ------          ------        ------
	               R(1,2)       5.00260        0.00166        0.00090       5.00350
	-------------------------------------------------------------------------------

	                                 ==> Convergence Check <==

	Measures of convergence in internal coordinates in au.

	Criteria marked as inactive (o), active & met (*), and active & unmet ( ).

	----------------------------------------------------------------------------------------------
	   Step    Total Energy     Delta E     Max Force     RMS Force      Max Disp      RMS Disp
	----------------------------------------------------------------------------------------------
	  Convergence Criteria     1.00e-06 *    3.00e-04 *             o    1.20e-03 *             o
	----------------------------------------------------------------------------------------------
	    29    -467.64977212   -3.51e-07 *    2.01e-04 *    2.01e-04 o    1.70e-03      1.70e-03 o  ~
	----------------------------------------------------------------------------------------------

Next Geometry in Ang
	Fragment 1 (Ang)

	   Li   0.0000000000   0.0000000000   4.1670782606
	   Cl   0.0000000000   0.0000000000  -0.8364246319

    Final optimized geometry and variables:
    Molecular point group: c2v
    Full point group: C_inf_v

    Geometry (in Angstrom), charge = 0, multiplicity = 3:

    LI           0.000000000000     0.000000000000     4.166628419609
    CL           0.000000000000     0.000000000000    -0.835974790962

    Psi4 stopped on: Wednesday, 16 July 2025 06:37PM
    Psi4 wall time for execution: 0:00:27.16

*** Psi4 exiting successfully. Buy a developer a beer!
