                               Psi4 1.9.1 release

  ==> Input File <==

--------------------------------------------------------------------------
molecule {
0 3
H   0.00000        0.60000        0.00000
Li   0.00000       -0.60000        0.00000
}

set {
basis              cc-pvdz
reference          uks
maxiter            500
geom_maxiter       500
DAMPING_PERCENTAGE 1
guess              SAP
}

optimize('b3lyp')
--------------------------------------------------------------------------

    Molecular point group: c2v
  Charge       = 0
  Multiplicity = 3
  Basis Set: CC-PVDZ
    Blend: CC-PVDZ
  Basis Set: (CC-PVDZ AUX)
    Blend: CC-PVDZ-JKFIT + DEF2-UNIVERSAL-JKFIT
  @DF-UKS Final Energy:    -7.91625748328762
    Total Energy =                         -7.9162574832876178
 Dipole X            :          0.0000000            0.0000000            0.0000000
 Dipole Y            :          0.0000000            0.0000000            0.0000000
 Dipole Z            :          0.4967651            1.1283569            1.6251220
 Magnitude           :                                                    1.6251220
    Molecular point group: c2v
  Basis Set: CC-PVDZ
    Blend: CC-PVDZ
  Basis Set: (CC-PVDZ AUX)
    Blend: CC-PVDZ-JKFIT + DEF2-UNIVERSAL-JKFIT
  Basis Set: CC-PVDZ
    Blend: CC-PVDZ
  Basis Set: (CC-PVDZ AUX)
    Blend: CC-PVDZ-JKFIT + DEF2-UNIVERSAL-JKFIT
  @DF-UKS Final Energy:    -7.94655593393289
    Total Energy =                         -7.9465559339328911
  Basis Set: CC-PVDZ
    Blend: CC-PVDZ
  Basis Set: (CC-PVDZ AUX)
    Blend: CC-PVDZ-JKFIT + DEF2-UNIVERSAL-JKFIT
  Basis Set: CC-PVDZ
    Blend: CC-PVDZ
  @DF-UKS Final Energy:    -7.96143402125807
    Total Energy =                         -7.9614340212580723
  @DF-UKS Final Energy:    -7.97073965652820
    Total Energy =                         -7.9707396565282016
  @DF-UKS Final Energy:    -7.97673455388288
    Total Energy =                         -7.9767345538828831
  @DF-UKS Final Energy:    -7.98117975403237
    Total Energy =                         -7.9811797540323655
  @DF-UKS Final Energy:    -7.98483768068879
    Total Energy =                         -7.9848376806887931
  @DF-UKS Final Energy:    -7.98545210369520
    Total Energy =                         -7.9854521036951978
  @DF-UKS Final Energy:    -7.98840850740119
    Total Energy =                         -7.9884085074011901
  @DF-UKS Final Energy:    -7.98871663575973
    Total Energy =                         -7.9887166357597268
  @DF-UKS Final Energy:    -7.99043819049471
    Total Energy =                         -7.9904381904947144
  @DF-UKS Final Energy:    -7.99056539272931
    Total Energy =                         -7.9905653927293079
  @DF-UKS Final Energy:    -7.99149859862129
    Total Energy =                         -7.9914985986212939
  @DF-UKS Final Energy:    -7.99154602570983
    Total Energy =                         -7.9915460257098285
  @DF-UKS Final Energy:    -7.99205635604012
    Total Energy =                         -7.9920563560401199
  @DF-UKS Final Energy:    -7.99207328573961
    Total Energy =                         -7.9920732857396093
  @DF-UKS Final Energy:    -7.99235481086980
    Total Energy =                         -7.9923548108698048
  @DF-UKS Final Energy:    -7.99236070035588
    Total Energy =                         -7.9923607003558832
  @DF-UKS Final Energy:    -7.99236641868191
    Total Energy =                         -7.9923664186819057
  @DF-UKS Final Energy:    -7.99251764865040
    Total Energy =                         -7.9925176486504022
  @DF-UKS Final Energy:    -7.99251957961645
    Total Energy =                         -7.9925195796164488
  @DF-UKS Final Energy:    -7.99252147351687
    Total Energy =                         -7.9925214735168666
  @DF-UKS Final Energy:    -7.99252333089995
    Total Energy =                         -7.9925233308999513
  Basis Set: (CC-PVDZ AUX)
    Blend: CC-PVDZ-JKFIT + DEF2-UNIVERSAL-JKFIT
  Basis Set: CC-PVDZ
    Blend: CC-PVDZ
  Basis Set: (CC-PVDZ AUX)
    Blend: CC-PVDZ-JKFIT + DEF2-UNIVERSAL-JKFIT
  @DF-UKS Final Energy:    -7.99260326047400
    Total Energy =                         -7.9926032604739987
  Basis Set: CC-PVDZ
    Blend: CC-PVDZ
  Basis Set: (CC-PVDZ AUX)
    Blend: CC-PVDZ-JKFIT + DEF2-UNIVERSAL-JKFIT
  Charge       = 0
  Multiplicity = 3
  Basis Set: CC-PVDZ
    Blend: CC-PVDZ
  Basis Set: (CC-PVDZ AUX)
    Blend: CC-PVDZ-JKFIT + DEF2-UNIVERSAL-JKFIT

    Orbital Energies [Eh]
    ---------------------

    Alpha Occupied:

       1A1    -2.032602     2A1    -0.320257     3A1    -0.134467

    Alpha Virtual:

       1B1    -0.032083     1B2    -0.032083     4A1    -0.030926
       2B2     0.071239     2B1     0.071239     5A1     0.074372
       6A1     0.085697     7A1     0.217616     1A2     0.217971
       8A1     0.217971     3B1     0.218041     3B2     0.218041
       9A1     0.438270     4B1     1.209293     4B2     1.209293
      10A1     1.211857

    Beta Occupied:

       1A1    -2.025325

    Beta Virtual:

       2A1    -0.063972     3A1    -0.037642     1B2    -0.011978
       1B1    -0.011978     4A1     0.004688     2B2     0.088218
       2B1     0.088218     5A1     0.092317     6A1     0.102891
       1A2     0.257735     7A1     0.258078     8A1     0.259657
       3B2     0.260915     3B1     0.260915     9A1     0.647922
       4B2     1.450337     4B1     1.450337    10A1     1.452734

    Final Occupation by Irrep:
             A1    A2    B1    B2
    DOCC [     1,    0,    0,    0 ]
    SOCC [     2,    0,    0,    0 ]
    NA   [     3,    0,    0,    0 ]
    NB   [     1,    0,    0,    0 ]

  @DF-UKS Final Energy:    -7.99260386300705

   => Energetics <=

    Nuclear Repulsion Energy =              0.2940193125239379
    One-Electron Energy =                 -10.8040731809449664
    Two-Electron Energy =                   4.2509667777194631
    DFT Exchange-Correlation Energy =      -1.7335167723054827
    Empirical Dispersion Energy =           0.0000000000000000
    VV10 Nonlocal Energy =                  0.0000000000000000
    Total Energy =                         -7.9926038630070479

  UHF NO Occupations:
  HONO-2 :    1 A1 1.9999998
  HONO-1 :    2 A1 1.0000000
  HONO-0 :    3 A1 1.0000000
  LUNO+0 :    4 A1 0.0000002
  LUNO+1 :    5 A1 0.0000000
  LUNO+2 :    6 A1 0.0000000
  LUNO+3 :    7 A1 0.0000000

Computation Completed

Properties will be evaluated at   0.000000,   0.000000,   0.000000 [a0]

Properties computed using the SCF density matrix

 Multipole Moments:

 ------------------------------------------------------------------------------------
     Multipole            Electronic (a.u.)      Nuclear  (a.u.)        Total (a.u.)
 ------------------------------------------------------------------------------------

 L = 1.  Multiply by 2.5417464519 to convert [e a0] to [Debye]
 Dipole X            :          0.0000000            0.0000000            0.0000000
 Dipole Y            :          0.0000000            0.0000000            0.0000000
 Dipole Z            :         -5.0448974            5.0770538            0.0321564
 Magnitude           :                                                    0.0321564

 ------------------------------------------------------------------------------------

*** tstop() called on Joses-MacBook-Pro-2.local at Wed Jul 16 18:12:04 2025
Module time:
	user time   =       0.42 seconds =       0.01 minutes
	system time =       2.13 seconds =       0.04 minutes
	total time  =          0 seconds =       0.00 minutes
Total time:
	user time   =      26.39 seconds =       0.44 minutes
	system time =      98.61 seconds =       1.64 minutes
	total time  =         12 seconds =       0.20 minutes

*** tstart() called on Joses-MacBook-Pro-2.local
*** at Wed Jul 16 18:12:04 2025

         ------------------------------------------------------------
                                   SCF GRAD
                          Rob Parrish, Justin Turney,
                       Andy Simmonett, and Alex Sokolov
         ------------------------------------------------------------

  ==> Geometry <==

    Molecular point group: c2v
    Full point group: C_inf_v

    Geometry (in Angstrom), charge = 0, multiplicity = 3:

       Center              X                  Y                   Z               Mass
    ------------   -----------------  -----------------  -----------------  -----------------
         H            0.000000000000     0.000000000000     4.721224877765     1.007825032230
         LI           0.000000000000     0.000000000000    -0.678187896798     7.016003436600

  Nuclear repulsion =    0.294019312523938

  ==> Basis Set <==

  Basis Set: CC-PVDZ
    Blend: CC-PVDZ
    Number of shells: 9
    Number of basis functions: 19
    Number of Cartesian functions: 20
    Spherical Harmonics?: true
    Max angular momentum: 2

  ==> DFJKGrad: Density-Fitted SCF Gradients <==

    Gradient:                    1
    J tasked:                  Yes
    K tasked:                  Yes
    wK tasked:                  No
    OpenMP threads:              1
    Integrals threads:           1
    Memory [MiB]:              375
    Schwarz Cutoff:          1E-12
    Fitting Condition:       1E-10

   => Auxiliary Basis Set <=

  Basis Set: (CC-PVDZ AUX)
    Blend: CC-PVDZ-JKFIT + DEF2-UNIVERSAL-JKFIT
    Number of shells: 26
    Number of basis functions: 74
    Number of Cartesian functions: 85
    Spherical Harmonics?: true
    Max angular momentum: 3

  ==> DFT Potential <==

   => LibXC <=

    Version 6.2.2
    S. Lehtola, C. Steigemann, M. J.T. Oliveira, and M. A.L. Marques.,  SoftwareX 7, 1â€“5 (2018) (10.1016/j.softx.2017.11.002)

   => Composite Functional: B3LYP <=

    B3LYP Hyb-GGA Exchange-Correlation Functional

    P. J. Stephens, F. J. Devlin, C. F. Chabalowski, and M. J. Frisch.,  J. Phys. Chem. 98, 11623 (1994) (10.1021/j100096a001)

    Deriv               =              1
    GGA                 =           TRUE
    Meta                =          FALSE

    Exchange Hybrid     =           TRUE
    MP2 Hybrid          =          FALSE

   => Exchange Functionals <=

    0.0800   Slater exchange
    0.7200         Becke 88

   => Exact (HF) Exchange <=

    0.2000               HF

   => Correlation Functionals <=

    0.1900   Vosko, Wilk & Nusair (VWN5_RPA)
    0.8100   Lee, Yang & Parr

   => LibXC Density Thresholds  <==

    XC_HYB_GGA_XC_B3LYP:  1.00E-15

   => Molecular Quadrature <=

    Radial Scheme          =       TREUTLER
    Pruning Scheme         =           NONE
    Nuclear Scheme         =       TREUTLER

    Blocking Scheme        =         OCTREE
    BS radius alpha        =              1
    Pruning alpha          =              1
    Radial Points          =             75
    Spherical Points       =            302
    Total Points           =          44436
    Total Blocks           =            441
    Max Points             =            255
    Max Functions          =             19
    Weights Tolerance      =       1.00E-15

  -Total Gradient:
     Atom            X                  Y                   Z
    ------   -----------------  -----------------  -----------------
       1        0.000000000000    -0.000000000000    -0.000090970137
       2       -0.000000000000     0.000000000000     0.000090651556

*** tstop() called on Joses-MacBook-Pro-2.local at Wed Jul 16 18:12:04 2025
Module time:
	user time   =       0.30 seconds =       0.01 minutes
	system time =       0.78 seconds =       0.01 minutes
	total time  =          0 seconds =       0.00 minutes
Total time:
	user time   =      26.69 seconds =       0.44 minutes
	system time =      99.40 seconds =       1.66 minutes
	total time  =         12 seconds =       0.20 minutes

    			-----------------------------------------

    			 OPTKING 3.0: for geometry optimizations

    			     By R.A. King, Bethel University

    			        with contributions from

    			    A.V. Copan, J. Cayton, A. Heide

    			-----------------------------------------

	                            ===> Fragment 1 <==

	 Z (Atomic Numbers)          Masses                          Geom
	       1.000000             1.007825          0.00000000  0.00000000  8.92182200
	       3.000000             7.016003          0.00000000  0.00000000 -1.28158939

	 - Coordinate -           - BOHR/RAD -       - ANG/DEG -
	 R(1,2)           =        10.203411           5.399413

	        --- Internal Coordinate Step in ANG or DEG, aJ/ANG or AJ/DEG ---
	-------------------------------------------------------------------------------
	           Coordinate      Previous         Force          Change          New
	           ----------      --------        ------          ------        ------
	               R(1,2)       5.39941        0.00075        0.00348       5.40289
	-------------------------------------------------------------------------------

	                                 ==> Convergence Check <==

	Measures of convergence in internal coordinates in au.

	Criteria marked as inactive (o), active & met (*), and active & unmet ( ).

	----------------------------------------------------------------------------------------------
	   Step    Total Energy     Delta E     Max Force     RMS Force      Max Disp      RMS Disp
	----------------------------------------------------------------------------------------------
	  Convergence Criteria     1.00e-06 *    3.00e-04 *             o    1.20e-03 *             o
	----------------------------------------------------------------------------------------------
	    25      -7.99260386   -6.03e-07 *    9.08e-05 *    9.08e-05 o    6.57e-03      6.57e-03 o  ~
	----------------------------------------------------------------------------------------------

Next Geometry in Ang
	Fragment 1 (Ang)

	    H   0.0000000000   0.0000000000   4.7229643115
	   Li   0.0000000000   0.0000000000  -0.6799273306

    Final optimized geometry and variables:
    Molecular point group: c2v
    Full point group: C_inf_v

    Geometry (in Angstrom), charge = 0, multiplicity = 3:

    H            0.000000000000     0.000000000000     4.721224877765
    LI           0.000000000000     0.000000000000    -0.678187896798

    Psi4 stopped on: Wednesday, 16 July 2025 06:12PM
    Psi4 wall time for execution: 0:00:13.11

*** Psi4 exiting successfully. Buy a developer a beer!
