                               Psi4 1.9.1 release

  ==> Input File <==

--------------------------------------------------------------------------
molecule {
0 3
Ne   0.00000        0.60000        0.00000
Ne   0.00000       -0.60000        0.00000
}

set {
basis              cc-pvdz
reference          uks
maxiter            500
geom_maxiter       500
DAMPING_PERCENTAGE 1
guess              SAP
}

optimize('b3lyp')
--------------------------------------------------------------------------

    Molecular point group: d2h
  Charge       = 0
  Multiplicity = 3
  Basis Set: CC-PVDZ
    Blend: CC-PVDZ
  Basis Set: (CC-PVDZ AUX)
    Blend: CC-PVDZ-JKFIT
  @DF-UKS Final Energy:  -255.91119406766657
    Total Energy =                       -255.9111940676665711
 Dipole X            :          0.0000000            0.0000000            0.0000000
 Dipole Y            :          0.0000000            0.0000000            0.0000000
 Dipole Z            :          0.0000000            0.0000000            0.0000000
 Magnitude           :                                                    0.0000000
    Molecular point group: d2h
  Basis Set: CC-PVDZ
    Blend: CC-PVDZ
  Basis Set: (CC-PVDZ AUX)
    Blend: CC-PVDZ-JKFIT
  Basis Set: CC-PVDZ
    Blend: CC-PVDZ
  Basis Set: (CC-PVDZ AUX)
    Blend: CC-PVDZ-JKFIT
  @DF-UKS Final Energy:  -256.15261316787206
    Total Energy =                       -256.1526131678720617
  Basis Set: CC-PVDZ
    Blend: CC-PVDZ
  Basis Set: (CC-PVDZ AUX)
    Blend: CC-PVDZ-JKFIT
  Basis Set: CC-PVDZ
    Blend: CC-PVDZ
  @DF-UKS Final Energy:  -256.17121169685140
    Total Energy =                       -256.1712116968514010
  @DF-UKS Final Energy:  -256.18014715793657
    Total Energy =                       -256.1801471579365739
  @DF-UKS Final Energy:  -256.18106147632852
    Total Energy =                       -256.1810614763285230
  @DF-UKS Final Energy:  -256.18116976318072
    Total Energy =                       -256.1811697631807192
  Basis Set: (CC-PVDZ AUX)
    Blend: CC-PVDZ-JKFIT
  Basis Set: CC-PVDZ
    Blend: CC-PVDZ
  Basis Set: (CC-PVDZ AUX)
    Blend: CC-PVDZ-JKFIT
  @DF-UKS Final Energy:  -256.18118349630089
    Total Energy =                       -256.1811834963008891
  Basis Set: CC-PVDZ
    Blend: CC-PVDZ
  Basis Set: (CC-PVDZ AUX)
    Blend: CC-PVDZ-JKFIT
  Charge       = 0
  Multiplicity = 3
  Basis Set: CC-PVDZ
    Blend: CC-PVDZ
  Basis Set: (CC-PVDZ AUX)
    Blend: CC-PVDZ-JKFIT

    Orbital Energies [Eh]
    ---------------------

    Alpha Occupied:

       1B2u  -31.026567     1Ag   -31.026531     2Ag    -1.566970
       2B2u   -1.491689     3Ag    -0.746322     1B1u   -0.645482
       1B3u   -0.636019     1B3g   -0.599846     1B1g   -0.589395
       3B2u   -0.574120     2B1u    1.105872

    Alpha Virtual:

       2B3u    1.208781     4Ag     1.295501     4B2u    1.378046
       2B3g    1.398434     2B1g    1.439365     5Ag     1.644131
       5B2u    2.337942     6Ag     4.578109     3B3u    4.605401
       3B1u    4.616770     3B1g    4.625928     3B3g    4.637101
       1B2g    4.665005     1Au     4.665978     7Ag     4.666022
       6B2u    4.666282     7B2u    4.816386

    Beta Occupied:

       1B2u  -30.986718     1Ag   -30.986709     2Ag    -1.498440
       2B2u   -1.420383     1B3u   -0.607496     3Ag    -0.606809
       1B1u   -0.574424     1B1g   -0.559696     1B3g   -0.525868

    Beta Virtual:

       3B2u   -0.345567     2B3u    1.233229     2B1u    1.264281
       4Ag     1.383455     4B2u    1.443492     2B1g    1.463786
       2B3g    1.494640     5Ag     1.700202     5B2u    2.402362
       6Ag     4.655063     3B3u    4.665033     3B1g    4.686370
       3B1u    4.687213     1B2g    4.688592     6B2u    4.688942
       1Au     4.689583     7Ag     4.693454     3B3g    4.708702
       7B2u    4.895586

    Final Occupation by Irrep:
             Ag   B1g   B2g   B3g    Au   B1u   B2u   B3u
    DOCC [     3,    1,    0,    1,    0,    1,    2,    1 ]
    SOCC [     0,    0,    0,    0,    0,    1,    1,    0 ]
    NA   [     3,    1,    0,    1,    0,    2,    3,    1 ]
    NB   [     3,    1,    0,    1,    0,    1,    2,    1 ]

  @DF-UKS Final Energy:  -256.18118542713182

   => Energetics <=

    Nuclear Repulsion Energy =             32.0964454279212532
    One-Electron Energy =                -426.5331268483620306
    Two-Electron Energy =                 158.4528769801424346
    DFT Exchange-Correlation Energy =     -20.1973809868335081
    Empirical Dispersion Energy =           0.0000000000000000
    VV10 Nonlocal Energy =                  0.0000000000000000
    Total Energy =                       -256.1811854271318225

  UHF NO Occupations:
  HONO-2 :    3 Ag 1.9992102
  HONO-1 :    2B1u 1.0000000
  HONO-0 :    3B2u 1.0000000
  LUNO+0 :    4 Ag 0.0007898
  LUNO+1 :    2B3g 0.0002276
  LUNO+2 :    4B2u 0.0000763
  LUNO+3 :    5 Ag 0.0000690

Computation Completed

Properties will be evaluated at   0.000000,   0.000000,   0.000000 [a0]

Properties computed using the SCF density matrix

 Multipole Moments:

 ------------------------------------------------------------------------------------
     Multipole            Electronic (a.u.)      Nuclear  (a.u.)        Total (a.u.)
 ------------------------------------------------------------------------------------

 L = 1.  Multiply by 2.5417464519 to convert [e a0] to [Debye]
 Dipole X            :          0.0000000            0.0000000            0.0000000
 Dipole Y            :          0.0000000            0.0000000            0.0000000
 Dipole Z            :          0.0000000            0.0000000            0.0000000
 Magnitude           :                                                    0.0000000

 ------------------------------------------------------------------------------------

*** tstop() called on Joses-MacBook-Pro-2.local at Wed Jul 16 19:32:26 2025
Module time:
	user time   =       3.69 seconds =       0.06 minutes
	system time =       1.25 seconds =       0.02 minutes
	total time  =          0 seconds =       0.00 minutes
Total time:
	user time   =      31.97 seconds =       0.53 minutes
	system time =      29.19 seconds =       0.49 minutes
	total time  =          5 seconds =       0.08 minutes

*** tstart() called on Joses-MacBook-Pro-2.local
*** at Wed Jul 16 19:32:26 2025

         ------------------------------------------------------------
                                   SCF GRAD
                          Rob Parrish, Justin Turney,
                       Andy Simmonett, and Alex Sokolov
         ------------------------------------------------------------

  ==> Geometry <==

    Molecular point group: d2h
    Full point group: D_inf_h

    Geometry (in Angstrom), charge = 0, multiplicity = 3:

       Center              X                  Y                   Z               Mass
    ------------   -----------------  -----------------  -----------------  -----------------
         NE          -0.000000000000     0.824354852406     0.000000000000    19.992440176200
         NE           0.000000000000    -0.824354852406     0.000000000000    19.992440176200

  Nuclear repulsion =   32.096445427921253

  ==> Basis Set <==

  Basis Set: CC-PVDZ
    Blend: CC-PVDZ
    Number of shells: 12
    Number of basis functions: 28
    Number of Cartesian functions: 30
    Spherical Harmonics?: true
    Max angular momentum: 2

  ==> DFJKGrad: Density-Fitted SCF Gradients <==

    Gradient:                    1
    J tasked:                  Yes
    K tasked:                  Yes
    wK tasked:                  No
    OpenMP threads:              1
    Integrals threads:           1
    Memory [MiB]:              375
    Schwarz Cutoff:          1E-12
    Fitting Condition:       1E-10

   => Auxiliary Basis Set <=

  Basis Set: (CC-PVDZ AUX)
    Blend: CC-PVDZ-JKFIT
    Number of shells: 48
    Number of basis functions: 140
    Number of Cartesian functions: 162
    Spherical Harmonics?: true
    Max angular momentum: 3

  ==> DFT Potential <==

   => LibXC <=

    Version 6.2.2
    S. Lehtola, C. Steigemann, M. J.T. Oliveira, and M. A.L. Marques.,  SoftwareX 7, 1â€“5 (2018) (10.1016/j.softx.2017.11.002)

   => Composite Functional: B3LYP <=

    B3LYP Hyb-GGA Exchange-Correlation Functional

    P. J. Stephens, F. J. Devlin, C. F. Chabalowski, and M. J. Frisch.,  J. Phys. Chem. 98, 11623 (1994) (10.1021/j100096a001)

    Deriv               =              1
    GGA                 =           TRUE
    Meta                =          FALSE

    Exchange Hybrid     =           TRUE
    MP2 Hybrid          =          FALSE

   => Exchange Functionals <=

    0.0800   Slater exchange
    0.7200         Becke 88

   => Exact (HF) Exchange <=

    0.2000               HF

   => Correlation Functionals <=

    0.1900   Vosko, Wilk & Nusair (VWN5_RPA)
    0.8100   Lee, Yang & Parr

   => LibXC Density Thresholds  <==

    XC_HYB_GGA_XC_B3LYP:  1.00E-15

   => Molecular Quadrature <=

    Radial Scheme          =       TREUTLER
    Pruning Scheme         =           NONE
    Nuclear Scheme         =       TREUTLER

    Blocking Scheme        =         OCTREE
    BS radius alpha        =              1
    Pruning alpha          =              1
    Radial Points          =             75
    Spherical Points       =            302
    Total Points           =          41958
    Total Blocks           =            386
    Max Points             =            254
    Max Functions          =             28
    Weights Tolerance      =       1.00E-15

  -Total Gradient:
     Atom            X                  Y                   Z
    ------   -----------------  -----------------  -----------------
       1        0.000000000000    -0.000293598485     0.000000000000
       2       -0.000000000000     0.000293598485     0.000000000000

*** tstop() called on Joses-MacBook-Pro-2.local at Wed Jul 16 19:32:27 2025
Module time:
	user time   =       0.63 seconds =       0.01 minutes
	system time =       1.28 seconds =       0.02 minutes
	total time  =          1 seconds =       0.02 minutes
Total time:
	user time   =      32.62 seconds =       0.54 minutes
	system time =      30.47 seconds =       0.51 minutes
	total time  =          6 seconds =       0.10 minutes

    			-----------------------------------------

    			 OPTKING 3.0: for geometry optimizations

    			     By R.A. King, Bethel University

    			        with contributions from

    			    A.V. Copan, J. Cayton, A. Heide

    			-----------------------------------------

	                            ===> Fragment 1 <==

	 Z (Atomic Numbers)          Masses                          Geom
	      10.000000            19.992440         -0.00000000  1.55780490  0.00000000
	      10.000000            19.992440          0.00000000 -1.55780490  0.00000000

	 - Coordinate -           - BOHR/RAD -       - ANG/DEG -
	 R(1,2)           =         3.115610           1.648710

	        --- Internal Coordinate Step in ANG or DEG, aJ/ANG or AJ/DEG ---
	-------------------------------------------------------------------------------
	           Coordinate      Previous         Force          Change          New
	           ----------      --------        ------          ------        ------
	               R(1,2)       1.64871        0.00242        0.00041       1.64912
	-------------------------------------------------------------------------------

	                                 ==> Convergence Check <==

	Measures of convergence in internal coordinates in au.

	Criteria marked as inactive (o), active & met (*), and active & unmet ( ).

	----------------------------------------------------------------------------------------------
	   Step    Total Energy     Delta E     Max Force     RMS Force      Max Disp      RMS Disp
	----------------------------------------------------------------------------------------------
	  Convergence Criteria     1.00e-06 *    3.00e-04 *             o    1.20e-03 *             o
	----------------------------------------------------------------------------------------------
	     8    -256.18118543   -1.93e-06      2.94e-04 *    2.94e-04 o    7.70e-04 *    7.70e-04 o  ~
	----------------------------------------------------------------------------------------------

Next Geometry in Ang
	Fragment 1 (Ang)

	   Ne  -0.0000000000   0.8245584838   0.0000000000
	   Ne   0.0000000000  -0.8245584838   0.0000000000

    Final optimized geometry and variables:
    Molecular point group: d2h
    Full point group: D_inf_h

    Geometry (in Angstrom), charge = 0, multiplicity = 3:

    NE          -0.000000000000     0.824354852406     0.000000000000
    NE           0.000000000000    -0.824354852406     0.000000000000

    Psi4 stopped on: Wednesday, 16 July 2025 07:32PM
    Psi4 wall time for execution: 0:00:06.65

*** Psi4 exiting successfully. Buy a developer a beer!
