                               Psi4 1.9.1 release

  ==> Input File <==

--------------------------------------------------------------------------
molecule {
0 3
N   0.00000        0.60000        0.00000
Al   0.00000       -0.60000        0.00000
}

set {
basis              cc-pvdz
reference          uks
maxiter            500
geom_maxiter       500
DAMPING_PERCENTAGE 1
guess              SAP
}

optimize('b3lyp')
--------------------------------------------------------------------------

    Molecular point group: c2v
  Charge       = 0
  Multiplicity = 3
  Basis Set: CC-PVDZ
    Blend: CC-PVDZ
  Basis Set: (CC-PVDZ AUX)
    Blend: CC-PVDZ-JKFIT
  @DF-UKS Final Energy:  -296.66467852358579
    Total Energy =                       -296.6646785235857351
 Dipole X            :          0.0000000            0.0000000            0.0000000
 Dipole Y            :          0.0000000            0.0000000            0.0000000
 Dipole Z            :         -1.4843258            0.3779474           -1.1063784
 Magnitude           :                                                    1.1063784
    Molecular point group: c2v
  Basis Set: CC-PVDZ
    Blend: CC-PVDZ
  Basis Set: (CC-PVDZ AUX)
    Blend: CC-PVDZ-JKFIT
  Basis Set: CC-PVDZ
    Blend: CC-PVDZ
  Basis Set: (CC-PVDZ AUX)
    Blend: CC-PVDZ-JKFIT
  @DF-UKS Final Energy:  -296.85570375912681
    Total Energy =                       -296.8557037591268113
  Basis Set: CC-PVDZ
    Blend: CC-PVDZ
  Basis Set: (CC-PVDZ AUX)
    Blend: CC-PVDZ-JKFIT
  Basis Set: CC-PVDZ
    Blend: CC-PVDZ
  @DF-UKS Final Energy:  -296.94008381930672
    Total Energy =                       -296.9400838193067216
  @DF-UKS Final Energy:  -296.96425219411253
    Total Energy =                       -296.9642521941125892
  @DF-UKS Final Energy:  -296.97491569372778
    Total Energy =                       -296.9749156937277803
  @DF-UKS Final Energy:  -296.97755864038385
    Total Energy =                       -296.9775586403838474
  @DF-UKS Final Energy:  -297.04696094459888
    Total Energy =                       -297.0469609445989363
  @DF-UKS Final Energy:  -297.06198954340437
    Total Energy =                       -297.0619895434043656
  @DF-UKS Final Energy:  -297.06299328818170
    Total Energy =                       -297.0629932881817012
  @DF-UKS Final Energy:  -297.06300383757787
    Total Energy =                       -297.0630038375778668
  @DF-UKS Final Energy:  -297.06300227978431
    Total Energy =                       -297.0630022797843708
  Basis Set: (CC-PVDZ AUX)
    Blend: CC-PVDZ-JKFIT
  Basis Set: CC-PVDZ
    Blend: CC-PVDZ
  Basis Set: (CC-PVDZ AUX)
    Blend: CC-PVDZ-JKFIT
  @DF-UKS Final Energy:  -297.06300554151198
    Total Energy =                       -297.0630055415119841
  Basis Set: CC-PVDZ
    Blend: CC-PVDZ
  Basis Set: (CC-PVDZ AUX)
    Blend: CC-PVDZ-JKFIT
  Charge       = 0
  Multiplicity = 3
  Basis Set: CC-PVDZ
    Blend: CC-PVDZ
  Basis Set: (CC-PVDZ AUX)
    Blend: CC-PVDZ-JKFIT

    Orbital Energies [Eh]
    ---------------------

    Alpha Occupied:

       1A1   -56.082511     2A1   -14.357271     3A1    -4.163826
       1B1    -2.717905     4A1    -2.716076     1B2    -2.714820
       5A1    -0.760103     6A1    -0.367050     2B1    -0.307584
       2B2    -0.260281     7A1    -0.253419

    Alpha Virtual:

       3B1    -0.058226     3B2    -0.046171     8A1     0.029945
       9A1     0.162638     4B1     0.211105     4B2     0.217001
      10A1     0.255580     1A2     0.261619    11A1     0.262601
       5B1     0.309857     5B2     0.324325    12A1     0.501913
       6B1     0.785864    13A1     0.793258     6B2     0.818758
      14A1     1.252517    15A1     1.766422     2A2     1.766625
       7B1     1.823926     7B2     1.861059    16A1     2.118560

    Beta Occupied:

       1A1   -56.081410     2A1   -14.325841     3A1    -4.162514
       1B1    -2.716493     1B2    -2.714921     4A1    -2.711749
       5A1    -0.655477     6A1    -0.294231     2B2    -0.222202

    Beta Virtual:

       2B1    -0.131353     7A1    -0.131250     3B2    -0.033509
       3B1    -0.012806     8A1     0.048265     9A1     0.173111
       4B2     0.216510     4B1     0.217161     1A2     0.265010
      10A1     0.265712    11A1     0.283339     5B2     0.338737
       5B1     0.345001    12A1     0.528540     6B2     0.846724
      13A1     0.862999     6B1     0.869193    14A1     1.311694
       2A2     1.841146    15A1     1.847415     7B2     1.920178
       7B1     1.934915    16A1     2.195699

    Final Occupation by Irrep:
             A1    A2    B1    B2
    DOCC [     6,    0,    1,    2 ]
    SOCC [     1,    0,    1,    0 ]
    NA   [     7,    0,    2,    2 ]
    NB   [     6,    0,    1,    2 ]

  @DF-UKS Final Energy:  -297.06300611215215

   => Energetics <=

    Nuclear Repulsion Energy =             26.4403783581057468
    One-Electron Energy =                -463.7414044935900961
    Two-Electron Energy =                 160.7643428871154185
    DFT Exchange-Correlation Energy =     -20.5263228637832569
    Empirical Dispersion Energy =           0.0000000000000000
    VV10 Nonlocal Energy =                  0.0000000000000000
    Total Energy =                       -297.0630061121522090

  UHF NO Occupations:
  HONO-2 :    2 B2 1.9915171
  HONO-1 :    2 B1 1.0000000
  HONO-0 :    7 A1 1.0000000
  LUNO+0 :    3 B2 0.0084829
  LUNO+1 :    8 A1 0.0038442
  LUNO+2 :    9 A1 0.0006698
  LUNO+3 :   10 A1 0.0000002

Computation Completed

Properties will be evaluated at   0.000000,   0.000000,   0.000000 [a0]

Properties computed using the SCF density matrix

 Multipole Moments:

 ------------------------------------------------------------------------------------
     Multipole            Electronic (a.u.)      Nuclear  (a.u.)        Total (a.u.)
 ------------------------------------------------------------------------------------

 L = 1.  Multiply by 2.5417464519 to convert [e a0] to [Debye]
 Dipole X            :          0.0000000            0.0000000            0.0000000
 Dipole Y            :          0.0000000            0.0000000            0.0000000
 Dipole Z            :         -1.4833154            0.5736209           -0.9096945
 Magnitude           :                                                    0.9096945

 ------------------------------------------------------------------------------------

*** tstop() called on Joses-MacBook-Pro-2.local at Wed Jul 16 19:11:49 2025
Module time:
	user time   =       5.43 seconds =       0.09 minutes
	system time =       2.90 seconds =       0.05 minutes
	total time  =          0 seconds =       0.00 minutes
Total time:
	user time   =      98.92 seconds =       1.65 minutes
	system time =      76.39 seconds =       1.27 minutes
	total time  =         17 seconds =       0.28 minutes

*** tstart() called on Joses-MacBook-Pro-2.local
*** at Wed Jul 16 19:11:49 2025

         ------------------------------------------------------------
                                   SCF GRAD
                          Rob Parrish, Justin Turney,
                       Andy Simmonett, and Alex Sokolov
         ------------------------------------------------------------

  ==> Geometry <==

    Molecular point group: c2v
    Full point group: C_inf_v

    Geometry (in Angstrom), charge = 0, multiplicity = 3:

       Center              X                  Y                   Z               Mass
    ------------   -----------------  -----------------  -----------------  -----------------
         N            0.000000000000     0.000000000000     1.199004287493    14.003074004430
         AL           0.000000000000     0.000000000000    -0.622267916662    26.981538530000

  Nuclear repulsion =   26.440378358105747

  ==> Basis Set <==

  Basis Set: CC-PVDZ
    Blend: CC-PVDZ
    Number of shells: 14
    Number of basis functions: 32
    Number of Cartesian functions: 34
    Spherical Harmonics?: true
    Max angular momentum: 2

  ==> DFJKGrad: Density-Fitted SCF Gradients <==

    Gradient:                    1
    J tasked:                  Yes
    K tasked:                  Yes
    wK tasked:                  No
    OpenMP threads:              1
    Integrals threads:           1
    Memory [MiB]:              375
    Schwarz Cutoff:          1E-12
    Fitting Condition:       1E-10

   => Auxiliary Basis Set <=

  Basis Set: (CC-PVDZ AUX)
    Blend: CC-PVDZ-JKFIT
    Number of shells: 60
    Number of basis functions: 182
    Number of Cartesian functions: 211
    Spherical Harmonics?: true
    Max angular momentum: 3

  ==> DFT Potential <==

   => LibXC <=

    Version 6.2.2
    S. Lehtola, C. Steigemann, M. J.T. Oliveira, and M. A.L. Marques.,  SoftwareX 7, 1â€“5 (2018) (10.1016/j.softx.2017.11.002)

   => Composite Functional: B3LYP <=

    B3LYP Hyb-GGA Exchange-Correlation Functional

    P. J. Stephens, F. J. Devlin, C. F. Chabalowski, and M. J. Frisch.,  J. Phys. Chem. 98, 11623 (1994) (10.1021/j100096a001)

    Deriv               =              1
    GGA                 =           TRUE
    Meta                =          FALSE

    Exchange Hybrid     =           TRUE
    MP2 Hybrid          =          FALSE

   => Exchange Functionals <=

    0.0800   Slater exchange
    0.7200         Becke 88

   => Exact (HF) Exchange <=

    0.2000               HF

   => Correlation Functionals <=

    0.1900   Vosko, Wilk & Nusair (VWN5_RPA)
    0.8100   Lee, Yang & Parr

   => LibXC Density Thresholds  <==

    XC_HYB_GGA_XC_B3LYP:  1.00E-15

   => Molecular Quadrature <=

    Radial Scheme          =       TREUTLER
    Pruning Scheme         =           NONE
    Nuclear Scheme         =       TREUTLER

    Blocking Scheme        =         OCTREE
    BS radius alpha        =              1
    Pruning alpha          =              1
    Radial Points          =             75
    Spherical Points       =            302
    Total Points           =          43462
    Total Blocks           =            407
    Max Points             =            256
    Max Functions          =             32
    Weights Tolerance      =       1.00E-15

  -Total Gradient:
     Atom            X                  Y                   Z
    ------   -----------------  -----------------  -----------------
       1        0.000000000000    -0.000000000000    -0.000078225891
       2       -0.000000000000     0.000000000000     0.000043858289

*** tstop() called on Joses-MacBook-Pro-2.local at Wed Jul 16 19:11:50 2025
Module time:
	user time   =       1.44 seconds =       0.02 minutes
	system time =       1.62 seconds =       0.03 minutes
	total time  =          1 seconds =       0.02 minutes
Total time:
	user time   =     100.36 seconds =       1.67 minutes
	system time =      78.01 seconds =       1.30 minutes
	total time  =         18 seconds =       0.30 minutes

    			-----------------------------------------

    			 OPTKING 3.0: for geometry optimizations

    			     By R.A. King, Bethel University

    			        with contributions from

    			    A.V. Copan, J. Cayton, A. Heide

    			-----------------------------------------

	                            ===> Fragment 1 <==

	 Z (Atomic Numbers)          Masses                          Geom
	       7.000000            14.003074          0.00000000  0.00000000  2.26578973
	      13.000000            26.981539          0.00000000  0.00000000 -1.17591594

	 - Coordinate -           - BOHR/RAD -       - ANG/DEG -
	 R(1,2)           =         3.441706           1.821272

	        --- Internal Coordinate Step in ANG or DEG, aJ/ANG or AJ/DEG ---
	-------------------------------------------------------------------------------
	           Coordinate      Previous         Force          Change          New
	           ----------      --------        ------          ------        ------
	               R(1,2)       1.82127        0.00050        0.00018       1.82145
	-------------------------------------------------------------------------------

	                                 ==> Convergence Check <==

	Measures of convergence in internal coordinates in au.

	Criteria marked as inactive (o), active & met (*), and active & unmet ( ).

	----------------------------------------------------------------------------------------------
	   Step    Total Energy     Delta E     Max Force     RMS Force      Max Disp      RMS Disp
	----------------------------------------------------------------------------------------------
	  Convergence Criteria     1.00e-06 *    3.00e-04 *             o    1.20e-03 *             o
	----------------------------------------------------------------------------------------------
	    13    -297.06300611   -5.71e-07 *    6.10e-05 *    6.10e-05 o    3.34e-04 *    3.34e-04 o  ~
	----------------------------------------------------------------------------------------------

Next Geometry in Ang
	Fragment 1 (Ang)

	    N   0.0000000000   0.0000000000   1.1990927512
	   Al   0.0000000000   0.0000000000  -0.6223563804

    Final optimized geometry and variables:
    Molecular point group: c2v
    Full point group: C_inf_v

    Geometry (in Angstrom), charge = 0, multiplicity = 3:

    N            0.000000000000     0.000000000000     1.199004287493
    AL           0.000000000000     0.000000000000    -0.622267916662

    Psi4 stopped on: Wednesday, 16 July 2025 07:11PM
    Psi4 wall time for execution: 0:00:18.88

*** Psi4 exiting successfully. Buy a developer a beer!
