                               Psi4 1.9.1 release

  ==> Input File <==

--------------------------------------------------------------------------
molecule {
0 2
B           0.000000           0.000000           0.000000
}

set {
basis              cc-pvtz
reference          uks
maxiter            500
DAMPING_PERCENTAGE 1
E_CONVERGENCE      1.0E-8
D_CONVERGENCE      1.0E-8
DIIS_MAX_VECS      400
MBIS_MAXITER       8000
guess              SAP
}

energy('b3lyp')
--------------------------------------------------------------------------

    Molecular point group: d2h
    Geometry (in Angstrom), charge = 0, multiplicity = 2:

       Center              X                  Y                   Z               Mass
    ------------   -----------------  -----------------  -----------------  -----------------
         B            0.000000000000     0.000000000000     0.000000000000    11.009305360000

  Charge       = 0
  Multiplicity = 2
  Basis Set: CC-PVTZ
    Blend: CC-PVTZ
  Basis Set: (CC-PVTZ AUX)
    Blend: CC-PVTZ-JKFIT

    Orbital Energies [Eh]
    ---------------------

    Alpha Occupied:

       1Ag    -6.859212     2Ag    -0.394873     1B1u   -0.188751

    Alpha Virtual:

       1B3u   -0.097015     1B2u   -0.097015     2B1u    0.178303
       2B2u    0.196280     2B3u    0.196280     3Ag     0.228658
       1B3g    0.394788     1B2g    0.394788     4Ag     0.398416
       5Ag     0.405527     1B1g    0.405527     3B1u    1.194778
       3B2u    1.217443     3B3u    1.217443     1Au     1.684359
       4B1u    1.684360     5B1u    1.686680     4B3u    1.687633
       4B2u    1.687633     5B3u    1.695729     5B2u    1.695729
       2B3g    1.757514     2B2g    1.757514     6Ag     1.763727
       7Ag     1.780491     2B1g    1.780491     8Ag     2.482010

    Beta Occupied:

       1Ag    -6.849672     2Ag    -0.352304

    Beta Virtual:

       1B3u   -0.088149     1B2u   -0.088149     1B1u   -0.052403
       2B2u    0.199603     2B3u    0.199603     2B1u    0.221198
       3Ag     0.245485     4Ag     0.406489     1B1g    0.406489
       1B3g    0.427444     1B2g    0.427444     5Ag     0.434846
       3B2u    1.221685     3B3u    1.221685     3B1u    1.255152
       4B3u    1.692498     4B2u    1.692498     4B1u    1.717633
       1Au     1.717633     5B3u    1.732001     5B2u    1.732001
       5B1u    1.737366     6Ag     1.779956     2B1g    1.779956
       2B3g    1.814405     2B2g    1.814405     7Ag     1.825550
       8Ag     2.500806

    Final Occupation by Irrep:
             Ag   B1g   B2g   B3g    Au   B1u   B2u   B3u
    DOCC [     2,    0,    0,    0,    0,    0,    0,    0 ]
    SOCC [     0,    0,    0,    0,    0,    1,    0,    0 ]
    NA   [     2,    0,    0,    0,    0,    1,    0,    0 ]
    NB   [     2,    0,    0,    0,    0,    0,    0,    0 ]

  @DF-UKS Final Energy:   -24.66375930024645

   => Energetics <=

    Nuclear Repulsion Energy =              0.0000000000000000
    One-Electron Energy =                 -32.4074286479741573
    Two-Electron Energy =                  10.8853590592407379
    DFT Exchange-Correlation Energy =      -3.1416897115130307
    Empirical Dispersion Energy =           0.0000000000000000
    VV10 Nonlocal Energy =                  0.0000000000000000
    Total Energy =                        -24.6637593002464506

  UHF NO Occupations:
  HONO-2 :    1 Ag 1.9999993
  HONO-1 :    2 Ag 1.9983271
  HONO-0 :    1B1u 1.0000000
  LUNO+0 :    3 Ag 0.0016729
  LUNO+1 :    4 Ag 0.0000007
  LUNO+2 :    5 Ag 0.0000000
  LUNO+3 :    2B1u 0.0000000

Computation Completed

Properties will be evaluated at   0.000000,   0.000000,   0.000000 [a0]

Properties computed using the SCF density matrix

 Multipole Moments:

 ------------------------------------------------------------------------------------
     Multipole            Electronic (a.u.)      Nuclear  (a.u.)        Total (a.u.)
 ------------------------------------------------------------------------------------

 L = 1.  Multiply by 2.5417464519 to convert [e a0] to [Debye]
 Dipole X            :          0.0000000            0.0000000            0.0000000
 Dipole Y            :          0.0000000            0.0000000            0.0000000
 Dipole Z            :          0.0000000            0.0000000            0.0000000
 Magnitude           :                                                    0.0000000

 ------------------------------------------------------------------------------------

*** tstop() called on Joses-MacBook-Pro-2.local at Sat Jan 25 21:14:03 2025
Module time:
	user time   =       0.65 seconds =       0.01 minutes
	system time =       2.24 seconds =       0.04 minutes
	total time  =          0 seconds =       0.00 minutes
Total time:
	user time   =       0.65 seconds =       0.01 minutes
	system time =       2.24 seconds =       0.04 minutes
	total time  =          0 seconds =       0.00 minutes

    Psi4 stopped on: Saturday, 25 January 2025 09:14PM
    Psi4 wall time for execution: 0:00:00.40

*** Psi4 exiting successfully. Buy a developer a beer!
