                               Psi4 1.9.1 release

  ==> Input File <==

--------------------------------------------------------------------------
molecule {
0 2
Cl           0.000000           0.000000           0.000000
}

set {
basis              cc-pvtz
reference          uks
maxiter            500
DAMPING_PERCENTAGE 1
E_CONVERGENCE      1.0E-8
D_CONVERGENCE      1.0E-8
DIIS_MAX_VECS      400
MBIS_MAXITER       8000
guess              SAP
}

energy('b3lyp')
--------------------------------------------------------------------------

    Molecular point group: d2h
    Geometry (in Angstrom), charge = 0, multiplicity = 2:

       Center              X                  Y                   Z               Mass
    ------------   -----------------  -----------------  -----------------  -----------------
         CL           0.000000000000     0.000000000000     0.000000000000    34.968852682000

  Charge       = 0
  Multiplicity = 2
  Basis Set: CC-PVTZ
    Blend: CC-PVTZ
  Basis Set: (CC-PVTZ AUX)
    Blend: CC-PVTZ-JKFIT

    Orbital Energies [Eh]
    ---------------------

    Alpha Occupied:

       1Ag  -101.609591     2Ag    -9.512278     1B2u   -7.286484
       1B3u   -7.263602     1B1u   -7.263602     3Ag    -0.848323
       2B2u   -0.410864     2B1u   -0.355971     2B3u   -0.355971

    Alpha Virtual:

       3B2u    0.306776     3B3u    0.330203     3B1u    0.330203
       4Ag     0.391371     5Ag     0.398017     1B1g    0.402359
       1B3g    0.402359     1B2g    0.438992     6Ag     0.438992
       7Ag     1.816675     2B3g    1.827791     2B1g    1.827791
       2B2g    1.863526     8Ag     1.863526     4B2u    2.003375
       4B1u    2.010115     4B3u    2.010115     1Au     2.029448
       5B2u    2.029448     5B3u    2.062416     5B1u    2.062416
       6B2u    2.119890     6B1u    2.162882     6B3u    2.162882
       9Ag     4.043466

    Beta Occupied:

       1Ag  -101.602860     2Ag    -9.505710     1B2u   -7.264314
       1B3u   -7.259742     1B1u   -7.259742     3Ag    -0.794875
       2B1u   -0.341006     2B3u   -0.341006

    Beta Virtual:

       2B2u   -0.246419     3B3u    0.334643     3B1u    0.334643
       3B2u    0.340840     4Ag     0.415430     1B2g    0.443881
       5Ag     0.443881     1B1g    0.450596     1B3g    0.450596
       6Ag     0.459009     2B1g    1.866913     2B3g    1.866913
       2B2g    1.867467     7Ag     1.867467     8Ag     1.870990
       4B2u    2.062825     1Au     2.062825     4B3u    2.063915
       4B1u    2.063915     5B1u    2.066343     5B3u    2.066343
       5B2u    2.070574     6B1u    2.171265     6B3u    2.171265
       6B2u    2.173769     9Ag     4.061473

    Final Occupation by Irrep:
             Ag   B1g   B2g   B3g    Au   B1u   B2u   B3u
    DOCC [     3,    0,    0,    0,    0,    2,    1,    2 ]
    SOCC [     0,    0,    0,    0,    0,    0,    1,    0 ]
    NA   [     3,    0,    0,    0,    0,    2,    2,    2 ]
    NB   [     3,    0,    0,    0,    0,    2,    1,    2 ]

  @DF-UKS Final Energy:  -460.17466463602790

   => Energetics <=

    Nuclear Repulsion Energy =              0.0000000000000000
    One-Electron Energy =                -634.9401264561256539
    Two-Electron Energy =                 197.4652570582191515
    DFT Exchange-Correlation Energy =     -22.6997952381214283
    Empirical Dispersion Energy =           0.0000000000000000
    VV10 Nonlocal Energy =                  0.0000000000000000
    Total Energy =                       -460.1746646360279556

  UHF NO Occupations:
  HONO-2 :    2B1u 1.9998625
  HONO-1 :    3 Ag 1.9987809
  HONO-0 :    2B2u 1.0000000
  LUNO+0 :    4 Ag 0.0012191
  LUNO+1 :    3B1u 0.0001375
  LUNO+2 :    3B3u 0.0001375
  LUNO+3 :    3B2u 0.0000002

Computation Completed

Properties will be evaluated at   0.000000,   0.000000,   0.000000 [a0]

Properties computed using the SCF density matrix

 Multipole Moments:

 ------------------------------------------------------------------------------------
     Multipole            Electronic (a.u.)      Nuclear  (a.u.)        Total (a.u.)
 ------------------------------------------------------------------------------------

 L = 1.  Multiply by 2.5417464519 to convert [e a0] to [Debye]
 Dipole X            :          0.0000000            0.0000000            0.0000000
 Dipole Y            :          0.0000000            0.0000000            0.0000000
 Dipole Z            :          0.0000000            0.0000000            0.0000000
 Magnitude           :                                                    0.0000000

 ------------------------------------------------------------------------------------

*** tstop() called on Joses-MacBook-Pro-2.local at Sat Jan 25 21:14:51 2025
Module time:
	user time   =       5.14 seconds =       0.09 minutes
	system time =       1.20 seconds =       0.02 minutes
	total time  =          0 seconds =       0.00 minutes
Total time:
	user time   =       5.14 seconds =       0.09 minutes
	system time =       1.20 seconds =       0.02 minutes
	total time  =          0 seconds =       0.00 minutes

    Psi4 stopped on: Saturday, 25 January 2025 09:14PM
    Psi4 wall time for execution: 0:00:00.69

*** Psi4 exiting successfully. Buy a developer a beer!
