                               Psi4 1.9.1 release

  ==> Input File <==

--------------------------------------------------------------------------
molecule {
0 2
P           0.000000           0.000000           0.000000
}

set {
basis              cc-pvtz
reference          uks
maxiter            500
DAMPING_PERCENTAGE 1
E_CONVERGENCE      1.0E-8
D_CONVERGENCE      1.0E-8
DIIS_MAX_VECS      400
MBIS_MAXITER       8000
guess              SAP
}

energy('b3lyp')
--------------------------------------------------------------------------

    Molecular point group: d2h
    Geometry (in Angstrom), charge = 0, multiplicity = 2:

       Center              X                  Y                   Z               Mass
    ------------   -----------------  -----------------  -----------------  -----------------
         P            0.000000000000     0.000000000000     0.000000000000    30.973761998420

  Charge       = 0
  Multiplicity = 2
  Basis Set: CC-PVTZ
    Blend: CC-PVTZ
  Basis Set: (CC-PVTZ AUX)
    Blend: CC-PVTZ-JKFIT

    Orbital Energies [Eh]
    ---------------------

    Alpha Occupied:

       1Ag   -77.146275     2Ag    -6.602834     1B3u   -4.772919
       1B1u   -4.768363     1B2u   -4.752513     3Ag    -0.571597
       2B1u   -0.259347     2B2u   -0.218280

    Alpha Virtual:

       2B3u   -0.183270     4Ag     0.240406     1B2g    0.256297
       3B1u    0.259566     5Ag     0.260304     3B3u    0.265728
       1B3g    0.278612     3B2u    0.281288     1B1g    0.282601
       6Ag     0.292983     2B2g    1.207572     7Ag     1.211078
       2B1g    1.234713     2B3g    1.235942     8Ag     1.247068
       4B1u    1.291760     4B3u    1.292558     1Au     1.313007
       4B2u    1.315865     5B1u    1.330563     5B3u    1.331768
       5B2u    1.336485     6B3u    1.842753     6B1u    1.843431
       6B2u    1.876013     9Ag     2.579883

    Beta Occupied:

       1Ag   -77.141954     2Ag    -6.598360     1B3u   -4.770564
       1B1u   -4.753062     1B2u   -4.749993     3Ag    -0.531137
       2B2u   -0.208189

    Beta Virtual:

       2B3u   -0.171960     2B1u   -0.131565     4Ag     0.253978
       3B3u    0.270039     3B2u    0.285042     1B1g    0.285582
       5Ag     0.287872     3B1u    0.294376     1B2g    0.298884
       1B3g    0.314309     6Ag     0.319420     7Ag     1.232733
       2B1g    1.236304     2B2g    1.242387     2B3g    1.266693
       8Ag     1.269651     4B2u    1.326397     4B3u    1.326935
       4B1u    1.335130     1Au     1.341560     5B3u    1.346085
       5B2u    1.368390     5B1u    1.369945     6B3u    1.848228
       6B2u    1.881004     6B1u    1.882612     9Ag     2.593114

    Final Occupation by Irrep:
             Ag   B1g   B2g   B3g    Au   B1u   B2u   B3u
    DOCC [     3,    0,    0,    0,    0,    1,    2,    1 ]
    SOCC [     0,    0,    0,    0,    0,    1,    0,    0 ]
    NA   [     3,    0,    0,    0,    0,    2,    2,    1 ]
    NB   [     3,    0,    0,    0,    0,    1,    2,    1 ]

  @DF-UKS Final Energy:  -341.22480896715700

   => Energetics <=

    Nuclear Repulsion Energy =              0.0000000000000000
    One-Electron Energy =                -471.3305357611176305
    Two-Electron Energy =                 148.7439037352053219
    DFT Exchange-Correlation Energy =     -18.6381769412447191
    Empirical Dispersion Energy =           0.0000000000000000
    VV10 Nonlocal Energy =                  0.0000000000000000
    Total Energy =                       -341.2248089671570028

  UHF NO Occupations:
  HONO-2 :    2B2u 1.9998156
  HONO-1 :    3 Ag 1.9983512
  HONO-0 :    2B1u 1.0000000
  LUNO+0 :    4 Ag 0.0016488
  LUNO+1 :    3B2u 0.0001844
  LUNO+2 :    3B1u 0.0000003
  LUNO+3 :    2B3u 0.0000001

Computation Completed

Properties will be evaluated at   0.000000,   0.000000,   0.000000 [a0]

Properties computed using the SCF density matrix

 Multipole Moments:

 ------------------------------------------------------------------------------------
     Multipole            Electronic (a.u.)      Nuclear  (a.u.)        Total (a.u.)
 ------------------------------------------------------------------------------------

 L = 1.  Multiply by 2.5417464519 to convert [e a0] to [Debye]
 Dipole X            :          0.0000000            0.0000000            0.0000000
 Dipole Y            :          0.0000000            0.0000000            0.0000000
 Dipole Z            :          0.0000000            0.0000000            0.0000000
 Magnitude           :                                                    0.0000000

 ------------------------------------------------------------------------------------

*** tstop() called on Joses-MacBook-Pro-2.local at Sat Jan 25 21:14:43 2025
Module time:
	user time   =       3.98 seconds =       0.07 minutes
	system time =       1.20 seconds =       0.02 minutes
	total time  =          0 seconds =       0.00 minutes
Total time:
	user time   =       3.98 seconds =       0.07 minutes
	system time =       1.20 seconds =       0.02 minutes
	total time  =          0 seconds =       0.00 minutes

    Psi4 stopped on: Saturday, 25 January 2025 09:14PM
    Psi4 wall time for execution: 0:00:00.57

*** Psi4 exiting successfully. Buy a developer a beer!
