                               Psi4 1.9.1 release

  ==> Input File <==

--------------------------------------------------------------------------
molecule {
0 2
F           0.000000           0.000000           0.000000
}

set {
basis              cc-pvtz
reference          uks
maxiter            500
DAMPING_PERCENTAGE 1
E_CONVERGENCE      1.0E-8
D_CONVERGENCE      1.0E-8
DIIS_MAX_VECS      400
MBIS_MAXITER       8000
guess              SAP
}

energy('b3lyp')
--------------------------------------------------------------------------

    Molecular point group: d2h
    Geometry (in Angstrom), charge = 0, multiplicity = 2:

       Center              X                  Y                   Z               Mass
    ------------   -----------------  -----------------  -----------------  -----------------
         F            0.000000000000     0.000000000000     0.000000000000    18.998403162730

  Charge       = 0
  Multiplicity = 2
  Basis Set: CC-PVTZ
    Blend: CC-PVTZ
  Basis Set: (CC-PVTZ AUX)
    Blend: CC-PVTZ-JKFIT

    Orbital Energies [Eh]
    ---------------------

    Alpha Occupied:

       1Ag   -24.779789     2Ag    -1.228813     1B3u   -0.559697
       1B2u   -0.471293     1B1u   -0.471293

    Alpha Virtual:

       2B3u    0.649400     2B2u    0.688810     2B1u    0.688810
       3Ag     0.885964     4Ag     1.858426     1B1g    1.873731
       1B2g    1.873731     5Ag     1.922328     1B3g    1.922328
       3B3u    4.362431     3B1u    4.438048     3B2u    4.438048
       4B3u    6.739122     4B1u    6.749317     4B2u    6.749317
       5B3u    6.779142     1Au     6.779142     5B2u    6.830042
       5B1u    6.830042     6Ag     8.077037     2B1g    8.102090
       2B2g    8.102090     7Ag     8.175008     2B3g    8.175008
       8Ag     8.780753

    Beta Occupied:

       1Ag   -24.748436     2Ag    -1.137758     1B2u   -0.440509
       1B1u   -0.440509

    Beta Virtual:

       1B3u   -0.265327     2B2u    0.700059     2B1u    0.700059
       2B3u    0.726964     3Ag     0.922133     1B3g    1.929562
       4Ag     1.929562     1B1g    1.935238     1B2g    1.935238
       5Ag     1.945987     3B1u    4.463206     3B2u    4.463206
       3B3u    4.502843     1Au     6.831424     4B3u    6.831424
       4B1u    6.835039     4B2u    6.835039     5B1u    6.836857
       5B2u    6.836857     5B3u    6.845067     2B3g    8.191651
       6Ag     8.191651     2B1g    8.212064     2B2g    8.212064
       7Ag     8.240664     8Ag     8.836634

    Final Occupation by Irrep:
             Ag   B1g   B2g   B3g    Au   B1u   B2u   B3u
    DOCC [     2,    0,    0,    0,    0,    1,    1,    0 ]
    SOCC [     0,    0,    0,    0,    0,    0,    0,    1 ]
    NA   [     2,    0,    0,    0,    0,    1,    1,    1 ]
    NB   [     2,    0,    0,    0,    0,    1,    1,    0 ]

  @DF-UKS Final Energy:   -99.76287448490831

   => Energetics <=

    Nuclear Repulsion Energy =              0.0000000000000000
    One-Electron Energy =                -139.2356673417447155
    Two-Electron Energy =                  47.8492462536711471
    DFT Exchange-Correlation Energy =      -8.3764533968347497
    Empirical Dispersion Energy =           0.0000000000000000
    VV10 Nonlocal Energy =                  0.0000000000000000
    Total Energy =                        -99.7628744849083233

  UHF NO Occupations:
  HONO-2 :    1B1u 1.9998851
  HONO-1 :    2 Ag 1.9995509
  HONO-0 :    1B3u 1.0000000
  LUNO+0 :    3 Ag 0.0004491
  LUNO+1 :    2B1u 0.0001149
  LUNO+2 :    2B2u 0.0001149
  LUNO+3 :    4 Ag 0.0000005

Computation Completed

Properties will be evaluated at   0.000000,   0.000000,   0.000000 [a0]

Properties computed using the SCF density matrix

 Multipole Moments:

 ------------------------------------------------------------------------------------
     Multipole            Electronic (a.u.)      Nuclear  (a.u.)        Total (a.u.)
 ------------------------------------------------------------------------------------

 L = 1.  Multiply by 2.5417464519 to convert [e a0] to [Debye]
 Dipole X            :          0.0000000            0.0000000            0.0000000
 Dipole Y            :          0.0000000            0.0000000            0.0000000
 Dipole Z            :          0.0000000            0.0000000            0.0000000
 Magnitude           :                                                    0.0000000

 ------------------------------------------------------------------------------------

*** tstop() called on Joses-MacBook-Pro-2.local at Sat Jan 25 21:14:18 2025
Module time:
	user time   =       1.95 seconds =       0.03 minutes
	system time =       1.99 seconds =       0.03 minutes
	total time  =          0 seconds =       0.00 minutes
Total time:
	user time   =       1.95 seconds =       0.03 minutes
	system time =       1.99 seconds =       0.03 minutes
	total time  =          0 seconds =       0.00 minutes

    Psi4 stopped on: Saturday, 25 January 2025 09:14PM
    Psi4 wall time for execution: 0:00:00.42

*** Psi4 exiting successfully. Buy a developer a beer!
