                               Psi4 1.9.1 release

  ==> Input File <==

--------------------------------------------------------------------------
molecule {
0 2
N           0.000000           0.000000           0.000000
}

set {
basis              cc-pvtz
reference          uks
maxiter            500
DAMPING_PERCENTAGE 1
E_CONVERGENCE      1.0E-8
D_CONVERGENCE      1.0E-8
DIIS_MAX_VECS      400
MBIS_MAXITER       8000
guess              SAP
}

energy('b3lyp')
--------------------------------------------------------------------------

    Molecular point group: d2h
    Geometry (in Angstrom), charge = 0, multiplicity = 2:

       Center              X                  Y                   Z               Mass
    ------------   -----------------  -----------------  -----------------  -----------------
         N            0.000000000000     0.000000000000     0.000000000000    14.003074004430

  Charge       = 0
  Multiplicity = 2
  Basis Set: CC-PVTZ
    Blend: CC-PVTZ
  Basis Set: (CC-PVTZ AUX)
    Blend: CC-PVTZ-JKFIT

    Orbital Energies [Eh]
    ---------------------

    Alpha Occupied:

       1Ag   -14.455690     2Ag    -0.766103     1B1u   -0.356208
       1B2u   -0.291355

    Alpha Virtual:

       1B3u   -0.219230     2B1u    0.420111     2B3u    0.440622
       2B2u    0.451174     3Ag     0.497940     1B2g    0.979620
       4Ag     0.985180     1B3g    1.010542     1B1g    1.013970
       5Ag     1.027049     3B1u    2.731600     3B3u    2.762541
       3B2u    2.786781     4B1u    3.789177     4B3u    3.791037
       1Au     3.821278     4B2u    3.825905     5B1u    3.848265
       5B3u    3.849710     5B2u    3.856813     2B2g    4.317886
       6Ag     4.327384     2B3g    4.357398     2B1g    4.370699
       7Ag     4.389416     8Ag     5.144898

    Beta Occupied:

       1Ag   -14.435070     2Ag    -0.696781     1B2u   -0.271061

    Beta Virtual:

       1B3u   -0.197282     1B1u   -0.136596     2B3u    0.450375
       2B2u    0.459299     2B1u    0.485699     3Ag     0.525720
       1B1g    1.018244     4Ag     1.019085     1B2g    1.033471
       1B3g    1.054475     5Ag     1.060924     3B3u    2.778939
       3B2u    2.803178     3B1u    2.834727     4B2u    3.842530
       4B3u    3.844200     4B1u    3.856129     1Au     3.864624
       5B3u    3.872964     5B2u    3.905064     5B1u    3.908371
       2B1g    4.379401     6Ag     4.389113     2B2g    4.416011
       2B3g    4.435721     7Ag     4.451692     8Ag     5.184558

    Final Occupation by Irrep:
             Ag   B1g   B2g   B3g    Au   B1u   B2u   B3u
    DOCC [     2,    0,    0,    0,    0,    0,    1,    0 ]
    SOCC [     0,    0,    0,    0,    0,    1,    0,    0 ]
    NA   [     2,    0,    0,    0,    0,    1,    1,    0 ]
    NB   [     2,    0,    0,    0,    0,    0,    1,    0 ]

  @DF-UKS Final Energy:   -54.50000188405049

   => Energetics <=

    Nuclear Repulsion Energy =              0.0000000000000000
    One-Electron Energy =                 -73.8114602687078332
    Two-Electron Energy =                  24.7397087124607999
    DFT Exchange-Correlation Energy =      -5.4282503278034637
    Empirical Dispersion Energy =           0.0000000000000000
    VV10 Nonlocal Energy =                  0.0000000000000000
    Total Energy =                        -54.5000018840504978

  UHF NO Occupations:
  HONO-2 :    1B2u 1.9998431
  HONO-1 :    2 Ag 1.9991934
  HONO-0 :    1B1u 1.0000000
  LUNO+0 :    3 Ag 0.0008066
  LUNO+1 :    2B2u 0.0001569
  LUNO+2 :    4 Ag 0.0000007
  LUNO+3 :    5 Ag 0.0000000

Computation Completed

Properties will be evaluated at   0.000000,   0.000000,   0.000000 [a0]

Properties computed using the SCF density matrix

 Multipole Moments:

 ------------------------------------------------------------------------------------
     Multipole            Electronic (a.u.)      Nuclear  (a.u.)        Total (a.u.)
 ------------------------------------------------------------------------------------

 L = 1.  Multiply by 2.5417464519 to convert [e a0] to [Debye]
 Dipole X            :          0.0000000            0.0000000            0.0000000
 Dipole Y            :          0.0000000            0.0000000            0.0000000
 Dipole Z            :          0.0000000            0.0000000            0.0000000
 Magnitude           :                                                    0.0000000

 ------------------------------------------------------------------------------------

*** tstop() called on Joses-MacBook-Pro-2.local at Sat Jan 25 21:14:10 2025
Module time:
	user time   =       1.85 seconds =       0.03 minutes
	system time =       2.70 seconds =       0.05 minutes
	total time  =          0 seconds =       0.00 minutes
Total time:
	user time   =       1.85 seconds =       0.03 minutes
	system time =       2.70 seconds =       0.05 minutes
	total time  =          0 seconds =       0.00 minutes

    Psi4 stopped on: Saturday, 25 January 2025 09:14PM
    Psi4 wall time for execution: 0:00:00.48

*** Psi4 exiting successfully. Buy a developer a beer!
