                               Psi4 1.9.1 release

  ==> Input File <==

--------------------------------------------------------------------------
molecule {
0 2
Li           0.000000           0.000000           0.000000
}

set {
basis              cc-pvtz
reference          uks
maxiter            500
DAMPING_PERCENTAGE 1
E_CONVERGENCE      1.0E-8
D_CONVERGENCE      1.0E-8
DIIS_MAX_VECS      400
MBIS_MAXITER       8000
guess              SAP
}

energy('b3lyp')
--------------------------------------------------------------------------

    Molecular point group: d2h
    Geometry (in Angstrom), charge = 0, multiplicity = 2:

       Center              X                  Y                   Z               Mass
    ------------   -----------------  -----------------  -----------------  -----------------
         LI           0.000000000000     0.000000000000     0.000000000000     7.016003436600

  Charge       = 0
  Multiplicity = 2
  Basis Set: CC-PVTZ
    Blend: CC-PVTZ
  Basis Set: (CC-PVTZ AUX)
    Blend: DEF2-UNIVERSAL-JKFIT

    Orbital Energies [Eh]
    ---------------------

    Alpha Occupied:

       1Ag    -2.031497     2Ag    -0.133995

    Alpha Virtual:

       1B3u   -0.031530     1B2u   -0.031530     1B1u   -0.031530
       2B1u    0.050451     2B3u    0.050451     2B2u    0.050451
       3Ag     0.063835     1B3g    0.127017     1B2g    0.127017
       1B1g    0.127017     4Ag     0.127017     5Ag     0.127017
       3B3u    0.311223     3B2u    0.311223     3B1u    0.311223
       4B2u    0.420191     4B1u    0.420191     5B2u    0.420191
       4B3u    0.420191     5B1u    0.420191     1Au     0.420191
       5B3u    0.420191     2B2g    0.570897     2B3g    0.570897
       2B1g    0.570897     6Ag     0.570897     7Ag     0.570897
       8Ag     2.263320

    Beta Occupied:

       1Ag    -2.022267

    Beta Virtual:

       2Ag    -0.053985     1B2u   -0.000837     1B3u   -0.000837
       1B1u   -0.000837     2B1u    0.070151     2B3u    0.070151
       2B2u    0.070151     3Ag     0.085135     4Ag     0.164467
       1B1g    0.164467     1B2g    0.164467     5Ag     0.164467
       1B3g    0.164467     3B2u    0.324363     3B3u    0.324363
       3B1u    0.324363     4B3u    0.463069     4B1u    0.463069
       4B2u    0.463069     5B2u    0.463069     5B1u    0.463069
       5B3u    0.463069     1Au     0.463069     6Ag     0.605527
       2B1g    0.605527     2B2g    0.605527     7Ag     0.605527
       2B3g    0.605527     8Ag     2.273915

    Final Occupation by Irrep:
             Ag   B1g   B2g   B3g    Au   B1u   B2u   B3u
    DOCC [     1,    0,    0,    0,    0,    0,    0,    0 ]
    SOCC [     1,    0,    0,    0,    0,    0,    0,    0 ]
    NA   [     2,    0,    0,    0,    0,    0,    0,    0 ]
    NB   [     1,    0,    0,    0,    0,    0,    0,    0 ]

  @DF-UKS Final Energy:    -7.49201879571461

   => Energetics <=

    Nuclear Repulsion Energy =              0.0000000000000000
    One-Electron Energy =                  -9.7233450679624926
    Two-Electron Energy =                   3.7137496798025795
    DFT Exchange-Correlation Energy =      -1.4824234075546927
    Empirical Dispersion Energy =           0.0000000000000000
    VV10 Nonlocal Energy =                  0.0000000000000000
    Total Energy =                         -7.4920187957146060

  UHF NO Occupations:
  HONO-1 :    1 Ag 1.9999965
  HONO-0 :    2 Ag 1.0000000
  LUNO+0 :    3 Ag 0.0000035
  LUNO+1 :    4 Ag 0.0000000
  LUNO+2 :    5 Ag 0.0000000
  LUNO+3 :    6 Ag 0.0000000

Computation Completed

Properties will be evaluated at   0.000000,   0.000000,   0.000000 [a0]

Properties computed using the SCF density matrix

 Multipole Moments:

 ------------------------------------------------------------------------------------
     Multipole            Electronic (a.u.)      Nuclear  (a.u.)        Total (a.u.)
 ------------------------------------------------------------------------------------

 L = 1.  Multiply by 2.5417464519 to convert [e a0] to [Debye]
 Dipole X            :          0.0000000            0.0000000            0.0000000
 Dipole Y            :          0.0000000            0.0000000            0.0000000
 Dipole Z            :          0.0000000            0.0000000            0.0000000
 Magnitude           :                                                    0.0000000

 ------------------------------------------------------------------------------------

*** tstop() called on Joses-MacBook-Pro-2.local at Sat Jan 25 21:13:56 2025
Module time:
	user time   =       2.03 seconds =       0.03 minutes
	system time =       0.45 seconds =       0.01 minutes
	total time  =          0 seconds =       0.00 minutes
Total time:
	user time   =       2.03 seconds =       0.03 minutes
	system time =       0.45 seconds =       0.01 minutes
	total time  =          0 seconds =       0.00 minutes

    Psi4 stopped on: Saturday, 25 January 2025 09:13PM
    Psi4 wall time for execution: 0:00:00.38

*** Psi4 exiting successfully. Buy a developer a beer!
