                               Psi4 1.9.1 release

  ==> Input File <==

--------------------------------------------------------------------------
molecule {
0 4
P           0.000000           0.000000           0.000000
}

set {
basis              cc-pvtz
reference          uks
maxiter            500
DAMPING_PERCENTAGE 1
E_CONVERGENCE      1.0E-8
D_CONVERGENCE      1.0E-8
DIIS_MAX_VECS      400
MBIS_MAXITER       8000
guess              SAP
}

energy('b3lyp')
--------------------------------------------------------------------------

    Molecular point group: d2h
    Geometry (in Angstrom), charge = 0, multiplicity = 4:

       Center              X                  Y                   Z               Mass
    ------------   -----------------  -----------------  -----------------  -----------------
         P            0.000000000000     0.000000000000     0.000000000000    30.973761998420

  Charge       = 0
  Multiplicity = 4
  Basis Set: CC-PVTZ
    Blend: CC-PVTZ
  Basis Set: (CC-PVTZ AUX)
    Blend: CC-PVTZ-JKFIT

    Orbital Energies [Eh]
    ---------------------

    Alpha Occupied:

       1Ag   -77.131217     2Ag    -6.589413     1B3u   -4.753301
       1B2u   -4.753301     1B1u   -4.753301     3Ag    -0.598648
       2B1u   -0.259993     2B3u   -0.259993     2B2u   -0.259993

    Alpha Virtual:

       4Ag     0.234167     5Ag     0.255864     6Ag     0.255864
       1B1g    0.255864     1B2g    0.255864     1B3g    0.255864
       3B1u    0.261707     3B2u    0.261707     3B3u    0.261707
       7Ag     1.216838     8Ag     1.216838     2B1g    1.216838
       2B2g    1.216838     2B3g    1.216838     4B3u    1.298429
       4B1u    1.298429     5B1u    1.298429     1Au     1.298429
       4B2u    1.298429     5B2u    1.298429     5B3u    1.298429
       6B2u    1.850045     6B3u    1.850045     6B1u    1.850045
       9Ag     2.579768

    Beta Occupied:

       1Ag   -77.118478     2Ag    -6.576302     1B3u   -4.733566
       1B2u   -4.733566     1B1u   -4.733566     3Ag    -0.482652

    Beta Virtual:

       2B1u   -0.116121     2B3u   -0.116121     2B2u   -0.116121
       4Ag     0.273314     3B1u    0.303501     3B2u    0.303501
       3B3u    0.303501     5Ag     0.332637     6Ag     0.332637
       1B1g    0.332637     1B2g    0.332637     1B3g    0.332637
       7Ag     1.279504     8Ag     1.279504     2B1g    1.279504
       2B3g    1.279504     2B2g    1.279504     4B1u    1.379641
       4B3u    1.379641     5B1u    1.379641     1Au     1.379641
       4B2u    1.379641     5B2u    1.379641     5B3u    1.379641
       6B2u    1.896750     6B3u    1.896750     6B1u    1.896750
       9Ag     2.617101

    Final Occupation by Irrep:
             Ag   B1g   B2g   B3g    Au   B1u   B2u   B3u
    DOCC [     3,    0,    0,    0,    0,    1,    1,    1 ]
    SOCC [     0,    0,    0,    0,    0,    1,    1,    1 ]
    NA   [     3,    0,    0,    0,    0,    2,    2,    2 ]
    NB   [     3,    0,    0,    0,    0,    1,    1,    1 ]

  @DF-UKS Final Energy:  -341.28585578049154

   => Energetics <=

    Nuclear Repulsion Energy =              0.0000000000000000
    One-Electron Energy =                -471.5484453571471022
    Two-Electron Energy =                 148.9260012588229642
    DFT Exchange-Correlation Energy =     -18.6634116821674247
    Empirical Dispersion Energy =           0.0000000000000000
    VV10 Nonlocal Energy =                  0.0000000000000000
    Total Energy =                       -341.2858557804915449

  UHF NO Occupations:
  HONO-2 :    2B2u 1.0000000
  HONO-1 :    2B1u 1.0000000
  HONO-0 :    2B3u 1.0000000
  LUNO+0 :    4 Ag 0.0002025
  LUNO+1 :    3B1u 0.0000004
  LUNO+2 :    3B2u 0.0000004
  LUNO+3 :    3B3u 0.0000004

Computation Completed

Properties will be evaluated at   0.000000,   0.000000,   0.000000 [a0]

Properties computed using the SCF density matrix

 Multipole Moments:

 ------------------------------------------------------------------------------------
     Multipole            Electronic (a.u.)      Nuclear  (a.u.)        Total (a.u.)
 ------------------------------------------------------------------------------------

 L = 1.  Multiply by 2.5417464519 to convert [e a0] to [Debye]
 Dipole X            :          0.0000000            0.0000000            0.0000000
 Dipole Y            :          0.0000000            0.0000000            0.0000000
 Dipole Z            :          0.0000000            0.0000000            0.0000000
 Magnitude           :                                                    0.0000000

 ------------------------------------------------------------------------------------

*** tstop() called on Joses-MacBook-Pro-2.local at Sat Jan 25 21:14:44 2025
Module time:
	user time   =       3.25 seconds =       0.05 minutes
	system time =       1.20 seconds =       0.02 minutes
	total time  =          0 seconds =       0.00 minutes
Total time:
	user time   =       3.25 seconds =       0.05 minutes
	system time =       1.20 seconds =       0.02 minutes
	total time  =          0 seconds =       0.00 minutes

    Psi4 stopped on: Saturday, 25 January 2025 09:14PM
    Psi4 wall time for execution: 0:00:00.49

*** Psi4 exiting successfully. Buy a developer a beer!
