                               Psi4 1.9.1 release

  ==> Input File <==

--------------------------------------------------------------------------
molecule {
0 4
N           0.000000           0.000000           0.000000
}

set {
basis              cc-pvtz
reference          uks
maxiter            500
DAMPING_PERCENTAGE 1
E_CONVERGENCE      1.0E-8
D_CONVERGENCE      1.0E-8
DIIS_MAX_VECS      400
MBIS_MAXITER       8000
guess              SAP
}

energy('b3lyp')
--------------------------------------------------------------------------

    Molecular point group: d2h
    Geometry (in Angstrom), charge = 0, multiplicity = 4:

       Center              X                  Y                   Z               Mass
    ------------   -----------------  -----------------  -----------------  -----------------
         N            0.000000000000     0.000000000000     0.000000000000    14.003074004430

  Charge       = 0
  Multiplicity = 4
  Basis Set: CC-PVTZ
    Blend: CC-PVTZ
  Basis Set: (CC-PVTZ AUX)
    Blend: CC-PVTZ-JKFIT

    Orbital Energies [Eh]
    ---------------------

    Alpha Occupied:

       1Ag   -14.433865     2Ag    -0.809280     1B2u   -0.354462
       1B3u   -0.354462     1B1u   -0.354462

    Alpha Virtual:

       2B3u    0.423701     2B2u    0.423701     2B1u    0.423701
       3Ag     0.484710     4Ag     0.983079     1B3g    0.983079
       1B1g    0.983079     5Ag     0.983079     1B2g    0.983079
       3B2u    2.740884     3B3u    2.740884     3B1u    2.740884
       4B1u    3.803795     4B3u    3.803795     5B3u    3.803795
       4B2u    3.803795     1Au     3.803795     5B1u    3.803795
       5B2u    3.803795     2B1g    4.321473     2B3g    4.321473
       2B2g    4.321473     6Ag     4.321473     7Ag     4.321473
       8Ag     5.131001

    Beta Occupied:

       1Ag   -14.375577     2Ag    -0.614024

    Beta Virtual:

       1B2u   -0.106260     1B1u   -0.106260     1B3u   -0.106260
       2B3u    0.503931     2B2u    0.503931     2B1u    0.503931
       3Ag     0.563448     4Ag     1.079827     1B3g    1.079827
       1B1g    1.079827     5Ag     1.079827     1B2g    1.079827
       3B3u    2.866467     3B2u    2.866467     3B1u    2.866467
       4B1u    3.927926     4B3u    3.927926     5B3u    3.927926
       4B2u    3.927926     1Au     3.927926     5B1u    3.927926
       5B2u    3.927926     2B1g    4.491972     2B2g    4.491972
       2B3g    4.491972     6Ag     4.491972     7Ag     4.491972
       8Ag     5.239899

    Final Occupation by Irrep:
             Ag   B1g   B2g   B3g    Au   B1u   B2u   B3u
    DOCC [     2,    0,    0,    0,    0,    0,    0,    0 ]
    SOCC [     0,    0,    0,    0,    0,    1,    1,    1 ]
    NA   [     2,    0,    0,    0,    0,    1,    1,    1 ]
    NB   [     2,    0,    0,    0,    0,    0,    0,    0 ]

  @DF-UKS Final Energy:   -54.60178298032648

   => Energetics <=

    Nuclear Repulsion Energy =              0.0000000000000000
    One-Electron Energy =                 -73.9690855900518329
    Two-Electron Energy =                  24.8425586558196692
    DFT Exchange-Correlation Energy =      -5.4752560460943185
    Empirical Dispersion Energy =           0.0000000000000000
    VV10 Nonlocal Energy =                  0.0000000000000000
    Total Energy =                        -54.6017829803264760

  UHF NO Occupations:
  HONO-2 :    1B3u 1.0000000
  HONO-1 :    1B2u 1.0000000
  HONO-0 :    1B1u 1.0000000
  LUNO+0 :    3 Ag 0.0014112
  LUNO+1 :    4 Ag 0.0000020
  LUNO+2 :    2B1u 0.0000000
  LUNO+3 :    2B3u 0.0000000

Computation Completed

Properties will be evaluated at   0.000000,   0.000000,   0.000000 [a0]

Properties computed using the SCF density matrix

 Multipole Moments:

 ------------------------------------------------------------------------------------
     Multipole            Electronic (a.u.)      Nuclear  (a.u.)        Total (a.u.)
 ------------------------------------------------------------------------------------

 L = 1.  Multiply by 2.5417464519 to convert [e a0] to [Debye]
 Dipole X            :          0.0000000            0.0000000            0.0000000
 Dipole Y            :          0.0000000            0.0000000            0.0000000
 Dipole Z            :          0.0000000            0.0000000            0.0000000
 Magnitude           :                                                    0.0000000

 ------------------------------------------------------------------------------------

*** tstop() called on Joses-MacBook-Pro-2.local at Sat Jan 25 21:14:12 2025
Module time:
	user time   =       2.77 seconds =       0.05 minutes
	system time =       2.22 seconds =       0.04 minutes
	total time  =          1 seconds =       0.02 minutes
Total time:
	user time   =       2.77 seconds =       0.05 minutes
	system time =       2.22 seconds =       0.04 minutes
	total time  =          1 seconds =       0.02 minutes

    Psi4 stopped on: Saturday, 25 January 2025 09:14PM
    Psi4 wall time for execution: 0:00:00.52

*** Psi4 exiting successfully. Buy a developer a beer!
