                               Psi4 1.9.1 release

  ==> Input File <==

--------------------------------------------------------------------------
molecule {
0 4
Al           0.000000           0.000000           0.000000
}

set {
basis              cc-pvtz
reference          uks
maxiter            500
DAMPING_PERCENTAGE 1
E_CONVERGENCE      1.0E-8
D_CONVERGENCE      1.0E-8
DIIS_MAX_VECS      400
MBIS_MAXITER       8000
guess              SAP
}

energy('b3lyp')
--------------------------------------------------------------------------

    Molecular point group: d2h
    Geometry (in Angstrom), charge = 0, multiplicity = 4:

       Center              X                  Y                   Z               Mass
    ------------   -----------------  -----------------  -----------------  -----------------
         AL           0.000000000000     0.000000000000     0.000000000000    26.981538530000

  Charge       = 0
  Multiplicity = 4
  Basis Set: CC-PVTZ
    Blend: CC-PVTZ
  Basis Set: (CC-PVTZ AUX)
    Blend: CC-PVTZ-JKFIT

    Orbital Energies [Eh]
    ---------------------

    Alpha Occupied:

       1Ag   -56.124669     2Ag    -4.202468     1B3u   -2.757968
       1B2u   -2.754248     1B1u   -2.754248     3Ag    -0.372300
       2B2u   -0.163053     2B1u   -0.163053

    Alpha Virtual:

       2B3u   -0.105644     4Ag     0.100884     1B3g    0.123396
       5Ag     0.123396     1B1g    0.127315     1B2g    0.127315
       6Ag     0.136645     3B1u    0.160615     3B2u    0.160615
       3B3u    0.168527     2B1g    0.658434     2B2g    0.658434
       2B3g    0.658543     7Ag     0.658543     8Ag     0.664374
       1Au     0.698400     4B3u    0.698400     4B1u    0.700009
       4B2u    0.700009     5B1u    0.702377     5B2u    0.702377
       5B3u    0.707504     9Ag     1.323221     6B3u    1.881899
       6B2u    1.886199     6B1u    1.886199

    Beta Occupied:

       1Ag   -56.114587     2Ag    -4.188350     1B3u   -2.749460
       1B2u   -2.737702     1B1u   -2.737702

    Beta Virtual:

       3Ag    -0.212891     2B3u   -0.047512     2B1u   -0.020343
       2B2u   -0.020343     4Ag     0.146912     5Ag     0.192136
       1B2g    0.197291     1B1g    0.197291     3B3u    0.199886
       1B3g    0.215347     6Ag     0.215363     3B1u    0.219572
       3B2u    0.219572     7Ag     0.709888     2B2g    0.717205
       2B1g    0.717205     2B3g    0.739635     8Ag     0.739642
       4B3u    0.770952     4B1u    0.776390     4B2u    0.776390
       1Au     0.788115     5B3u    0.788138     5B2u    0.807118
       5B1u    0.807118     9Ag     1.364854     6B3u    1.901817
       6B2u    1.924090     6B1u    1.924090

    Final Occupation by Irrep:
             Ag   B1g   B2g   B3g    Au   B1u   B2u   B3u
    DOCC [     2,    0,    0,    0,    0,    1,    1,    1 ]
    SOCC [     1,    0,    0,    0,    0,    1,    1,    0 ]
    NA   [     3,    0,    0,    0,    0,    2,    2,    1 ]
    NB   [     2,    0,    0,    0,    0,    1,    1,    1 ]

  @DF-UKS Final Energy:  -242.24954076643601

   => Energetics <=

    Nuclear Repulsion Energy =              0.0000000000000000
    One-Electron Energy =                -336.0038347458862518
    Two-Electron Energy =                 108.7249681640683576
    DFT Exchange-Correlation Energy =     -14.9706741846181153
    Empirical Dispersion Energy =           0.0000000000000000
    VV10 Nonlocal Energy =                  0.0000000000000000
    Total Energy =                       -242.2495407664360130

  UHF NO Occupations:
  HONO-2 :    2B1u 1.0000000
  HONO-1 :    2B2u 1.0000000
  HONO-0 :    3 Ag 1.0000000
  LUNO+0 :    3B2u 0.0000018
  LUNO+1 :    3B1u 0.0000018
  LUNO+2 :    2B3u 0.0000013
  LUNO+3 :    4 Ag 0.0000009

Computation Completed

Properties will be evaluated at   0.000000,   0.000000,   0.000000 [a0]

Properties computed using the SCF density matrix

 Multipole Moments:

 ------------------------------------------------------------------------------------
     Multipole            Electronic (a.u.)      Nuclear  (a.u.)        Total (a.u.)
 ------------------------------------------------------------------------------------

 L = 1.  Multiply by 2.5417464519 to convert [e a0] to [Debye]
 Dipole X            :          0.0000000            0.0000000            0.0000000
 Dipole Y            :          0.0000000            0.0000000            0.0000000
 Dipole Z            :          0.0000000            0.0000000            0.0000000
 Magnitude           :                                                    0.0000000

 ------------------------------------------------------------------------------------

*** tstop() called on Joses-MacBook-Pro-2.local at Sat Jan 25 21:14:36 2025
Module time:
	user time   =       6.97 seconds =       0.12 minutes
	system time =       2.18 seconds =       0.04 minutes
	total time  =          1 seconds =       0.02 minutes
Total time:
	user time   =       6.97 seconds =       0.12 minutes
	system time =       2.18 seconds =       0.04 minutes
	total time  =          1 seconds =       0.02 minutes

    Psi4 stopped on: Saturday, 25 January 2025 09:14PM
    Psi4 wall time for execution: 0:00:00.99

*** Psi4 exiting successfully. Buy a developer a beer!
