                               Psi4 1.9.1 release

  ==> Input File <==

--------------------------------------------------------------------------
molecule {
0 4
Li           0.000000           0.000000           0.000000
}

set {
basis              cc-pvtz
reference          uks
maxiter            500
DAMPING_PERCENTAGE 1
E_CONVERGENCE      1.0E-8
D_CONVERGENCE      1.0E-8
DIIS_MAX_VECS      400
MBIS_MAXITER       8000
guess              SAP
}

energy('b3lyp')
--------------------------------------------------------------------------

    Molecular point group: d2h
    Geometry (in Angstrom), charge = 0, multiplicity = 4:

       Center              X                  Y                   Z               Mass
    ------------   -----------------  -----------------  -----------------  -----------------
         LI           0.000000000000     0.000000000000     0.000000000000     7.016003436600

  Charge       = 0
  Multiplicity = 4
  Basis Set: CC-PVTZ
    Blend: CC-PVTZ
  Basis Set: (CC-PVTZ AUX)
    Blend: DEF2-UNIVERSAL-JKFIT

    Orbital Energies [Eh]
    ---------------------

    Alpha Occupied:

       1Ag    -3.112988     2Ag    -0.229911     1B2u   -0.157685

    Alpha Virtual:

       1B3u   -0.084103     1B1u   -0.084103     2B2u    0.026892
       3Ag     0.033391     2B3u    0.034292     2B1u    0.034292
       1B3g    0.120922     1B1g    0.120922     4Ag     0.124352
       5Ag     0.126035     1B2g    0.126037     3B2u    0.189588
       3B3u    0.202364     3B1u    0.202364     1Au     0.406263
       4B2u    0.406263     5B2u    0.409358     4B1u    0.409936
       4B3u    0.409936     5B3u    0.410887     5B1u    0.410887
       2B3g    0.494228     2B1g    0.494228     6Ag     0.501542
       7Ag     0.511094     2B2g    0.511096     8Ag     1.638777

    Beta Occupied:

    Beta Virtual:

       1Ag    -2.038566     2Ag    -0.046678     1B3u    0.000608
       1B1u    0.000608     1B2u    0.016111     2B1u    0.067496
       2B3u    0.067496     2B2u    0.087114     3Ag     0.089905
       4Ag     0.171139     1B2g    0.171139     1B1g    0.180874
       1B3g    0.180874     5Ag     0.185083     3B1u    0.268027
       3B3u    0.268027     3B2u    0.298467     4B3u    0.467456
       4B1u    0.467456     1Au     0.479770     4B2u    0.479770
       5B3u    0.486680     5B1u    0.486680     5B2u    0.489565
       6Ag     0.592129     2B2g    0.592130     2B1g    0.619773
       2B3g    0.619773     7Ag     0.625183     8Ag     2.137716

    Final Occupation by Irrep:
             Ag   B1g   B2g   B3g    Au   B1u   B2u   B3u
    DOCC [     0,    0,    0,    0,    0,    0,    0,    0 ]
    SOCC [     2,    0,    0,    0,    0,    0,    1,    0 ]
    NA   [     2,    0,    0,    0,    0,    0,    1,    0 ]
    NB   [     0,    0,    0,    0,    0,    0,    0,    0 ]

  @DF-UKS Final Energy:    -5.35350486871790

   => Energetics <=

    Nuclear Repulsion Energy =              0.0000000000000000
    One-Electron Energy =                  -6.4130161490995654
    Two-Electron Energy =                   2.1543369621009139
    DFT Exchange-Correlation Energy =      -1.0948256817192497
    Empirical Dispersion Energy =           0.0000000000000000
    VV10 Nonlocal Energy =                  0.0000000000000000
    Total Energy =                         -5.3535048687179021

  UHF NO Occupations:
  HONO-2 :    1B2u 1.0000000
  HONO-1 :    1 Ag 1.0000000
  HONO-0 :    2 Ag 1.0000000
  LUNO+0 :    3 Ag 0.0000000
  LUNO+1 :    2B2u 0.0000000
  LUNO+2 :    4 Ag 0.0000000
  LUNO+3 :    5 Ag 0.0000000

Computation Completed

Properties will be evaluated at   0.000000,   0.000000,   0.000000 [a0]

Properties computed using the SCF density matrix

 Multipole Moments:

 ------------------------------------------------------------------------------------
     Multipole            Electronic (a.u.)      Nuclear  (a.u.)        Total (a.u.)
 ------------------------------------------------------------------------------------

 L = 1.  Multiply by 2.5417464519 to convert [e a0] to [Debye]
 Dipole X            :          0.0000000            0.0000000            0.0000000
 Dipole Y            :          0.0000000            0.0000000            0.0000000
 Dipole Z            :          0.0000000            0.0000000            0.0000000
 Magnitude           :                                                    0.0000000

 ------------------------------------------------------------------------------------

*** tstop() called on Joses-MacBook-Pro-2.local at Sat Jan 25 21:13:57 2025
Module time:
	user time   =       2.11 seconds =       0.04 minutes
	system time =       0.39 seconds =       0.01 minutes
	total time  =          0 seconds =       0.00 minutes
Total time:
	user time   =       2.11 seconds =       0.04 minutes
	system time =       0.39 seconds =       0.01 minutes
	total time  =          0 seconds =       0.00 minutes

    Psi4 stopped on: Saturday, 25 January 2025 09:13PM
    Psi4 wall time for execution: 0:00:00.36

*** Psi4 exiting successfully. Buy a developer a beer!
