                               Psi4 1.9.1 release

  ==> Input File <==

--------------------------------------------------------------------------
molecule {
0 4
Na           0.000000           0.000000           0.000000
}

set {
basis              cc-pvtz
reference          uks
maxiter            500
DAMPING_PERCENTAGE 1
E_CONVERGENCE      1.0E-8
D_CONVERGENCE      1.0E-8
DIIS_MAX_VECS      400
MBIS_MAXITER       8000
guess              SAP
}

energy('b3lyp')
--------------------------------------------------------------------------

    Molecular point group: d2h
    Geometry (in Angstrom), charge = 0, multiplicity = 4:

       Center              X                  Y                   Z               Mass
    ------------   -----------------  -----------------  -----------------  -----------------
         NA           0.000000000000     0.000000000000     0.000000000000    22.989769282000

  Charge       = 0
  Multiplicity = 4
  Basis Set: CC-PVTZ
    Blend: CC-PVTZ
  Basis Set: (CC-PVTZ AUX)
    Blend: DEF2-UNIVERSAL-JKFIT

    Orbital Energies [Eh]
    ---------------------

    Alpha Occupied:

       1Ag   -39.561039     2Ag    -2.942946     1B3u   -1.945122
       1B2u   -1.828310     1B1u   -1.828310     3Ag    -0.237624
       2B3u   -0.112689

    Alpha Virtual:

       2B1u   -0.059000     2B2u   -0.059000     4Ag     0.014733
       3B3u    0.018790     3B1u    0.025270     3B2u    0.025270
       1B1g    0.069591     1B2g    0.069591     5Ag     0.073437
       6Ag     0.081690     1B3g    0.081696     4B3u    0.149012
       4B2u    0.159602     4B1u    0.159602     2B1g    0.331662
       2B2g    0.331662     7Ag     0.333964     8Ag     0.344406
       2B3g    0.344413     1Au     0.366688     5B3u    0.366688
       6B3u    0.366868     5B2u    0.368607     5B1u    0.368607
       6B1u    0.377805     6B2u    0.377805     9Ag     1.046032

    Beta Occupied:

       1Ag   -39.514076     2Ag    -2.816183     1B2u   -1.779896
       1B1u   -1.779896

    Beta Virtual:

       1B3u   -1.537060     3Ag    -0.129291     2B2u   -0.022318
       2B1u   -0.022318     2B3u   -0.004835     4Ag     0.028029
       3B1u    0.036464     3B2u    0.036464     3B3u    0.047957
       1B3g    0.105277     5Ag     0.105278     1B1g    0.120237
       1B2g    0.120237     6Ag     0.128488     4B2u    0.174229
       4B1u    0.174229     4B3u    0.192648     7Ag     0.367921
       2B3g    0.367921     2B1g    0.383762     2B2g    0.383762
       8Ag     0.391594     5B1u    0.408374     5B2u    0.408374
       1Au     0.423662     5B3u    0.423663     6B2u    0.433144
       6B1u    0.433144     6B3u    0.439498     9Ag     1.104928

    Final Occupation by Irrep:
             Ag   B1g   B2g   B3g    Au   B1u   B2u   B3u
    DOCC [     2,    0,    0,    0,    0,    1,    1,    0 ]
    SOCC [     1,    0,    0,    0,    0,    0,    0,    2 ]
    NA   [     3,    0,    0,    0,    0,    1,    1,    2 ]
    NB   [     2,    0,    0,    0,    0,    1,    1,    0 ]

  @DF-UKS Final Energy:  -161.00888148368480

   => Energetics <=

    Nuclear Repulsion Energy =              0.0000000000000000
    One-Electron Energy =                -219.7368064685151694
    Two-Electron Energy =                  69.8080495560684824
    DFT Exchange-Correlation Energy =     -11.0801245712381142
    Empirical Dispersion Energy =           0.0000000000000000
    VV10 Nonlocal Energy =                  0.0000000000000000
    Total Energy =                       -161.0088814836848030

  UHF NO Occupations:
  HONO-2 :    3 Ag 1.0000000
  HONO-1 :    1B3u 1.0000000
  HONO-0 :    2B3u 1.0000000
  LUNO+0 :    4 Ag 0.0000463
  LUNO+1 :    2B1u 0.0000040
  LUNO+2 :    2B2u 0.0000040
  LUNO+3 :    5 Ag 0.0000000

Computation Completed

Properties will be evaluated at   0.000000,   0.000000,   0.000000 [a0]

Properties computed using the SCF density matrix

 Multipole Moments:

 ------------------------------------------------------------------------------------
     Multipole            Electronic (a.u.)      Nuclear  (a.u.)        Total (a.u.)
 ------------------------------------------------------------------------------------

 L = 1.  Multiply by 2.5417464519 to convert [e a0] to [Debye]
 Dipole X            :          0.0000000            0.0000000            0.0000000
 Dipole Y            :          0.0000000            0.0000000            0.0000000
 Dipole Z            :          0.0000000            0.0000000            0.0000000
 Magnitude           :                                                    0.0000000

 ------------------------------------------------------------------------------------

*** tstop() called on Joses-MacBook-Pro-2.local at Sat Jan 25 21:14:27 2025
Module time:
	user time   =       3.74 seconds =       0.06 minutes
	system time =       1.42 seconds =       0.02 minutes
	total time  =          0 seconds =       0.00 minutes
Total time:
	user time   =       3.74 seconds =       0.06 minutes
	system time =       1.42 seconds =       0.02 minutes
	total time  =          0 seconds =       0.00 minutes

    Psi4 stopped on: Saturday, 25 January 2025 09:14PM
    Psi4 wall time for execution: 0:00:00.65

*** Psi4 exiting successfully. Buy a developer a beer!
