                               Psi4 1.9.1 release

  ==> Input File <==

--------------------------------------------------------------------------
molecule {
0 5
S           0.000000           0.000000           0.000000
}

set {
basis              cc-pvtz
reference          uks
maxiter            500
DAMPING_PERCENTAGE 1
E_CONVERGENCE      1.0E-8
D_CONVERGENCE      1.0E-8
DIIS_MAX_VECS      400
MBIS_MAXITER       8000
guess              SAP
}

energy('b3lyp')
--------------------------------------------------------------------------

    Molecular point group: d2h
    Geometry (in Angstrom), charge = 0, multiplicity = 5:

       Center              X                  Y                   Z               Mass
    ------------   -----------------  -----------------  -----------------  -----------------
         S            0.000000000000     0.000000000000     0.000000000000    31.972071174400

  Charge       = 0
  Multiplicity = 5
  Basis Set: CC-PVTZ
    Blend: CC-PVTZ
  Basis Set: (CC-PVTZ AUX)
    Blend: CC-PVTZ-JKFIT

    Orbital Energies [Eh]
    ---------------------

    Alpha Occupied:

       1Ag   -89.069702     2Ag    -8.115307     1B2u   -6.081434
       1B3u   -6.081434     1B1u   -6.079433     3Ag    -0.841140
       2B3u   -0.423038     2B2u   -0.423038     2B1u   -0.418178
       3B1u    0.157749

    Alpha Virtual:

       3B2u    0.216657     3B3u    0.216657     1B1g    0.231153
       4Ag     0.231153     5Ag     0.233033     1B2g    0.240464
       1B3g    0.240464     6Ag     0.245817     2B2g    1.365428
       2B3g    1.365428     2B1g    1.365459     7Ag     1.365459
       8Ag     1.366964     4B2u    1.493312     4B3u    1.493312
       1Au     1.502822     4B1u    1.502822     5B3u    1.508881
       5B2u    1.508881     5B1u    1.510911     6B2u    1.771361
       6B3u    1.771361     6B1u    1.776035     9Ag     3.134744

    Beta Occupied:

       1Ag   -89.049446     2Ag    -8.095081     1B2u   -6.053308
       1B3u   -6.053308     1B1u   -6.044260     3Ag    -0.690879

    Beta Virtual:

       2B3u   -0.244592     2B2u   -0.244592     2B1u   -0.223608
       3B3u    0.263744     3B2u    0.263744     3B1u    0.285995
       4Ag     0.294365     5Ag     0.320741     1B1g    0.320741
       1B2g    0.334844     1B3g    0.334844     6Ag     0.341484
       7Ag     1.441094     2B1g    1.441094     2B2g    1.456137
       2B3g    1.456137     8Ag     1.462139     4B2u    1.587739
       4B3u    1.587739     4B1u    1.598480     1Au     1.598480
       5B3u    1.605262     5B2u    1.605262     5B1u    1.607502
       6B2u    1.833874     6B3u    1.833874     6B1u    1.850619
       9Ag     3.189979

    Final Occupation by Irrep:
             Ag   B1g   B2g   B3g    Au   B1u   B2u   B3u
    DOCC [     3,    0,    0,    0,    0,    1,    1,    1 ]
    SOCC [     0,    0,    0,    0,    0,    2,    1,    1 ]
    NA   [     3,    0,    0,    0,    0,    3,    2,    2 ]
    NB   [     3,    0,    0,    0,    0,    1,    1,    1 ]

  @DF-UKS Final Energy:  -397.67427200941205

   => Energetics <=

    Nuclear Repulsion Energy =              0.0000000000000000
    One-Electron Energy =                -547.3543798556991078
    Two-Electron Energy =                 170.2561736866357478
    DFT Exchange-Correlation Energy =     -20.5760658403487113
    Empirical Dispersion Energy =           0.0000000000000000
    VV10 Nonlocal Energy =                  0.0000000000000000
    Total Energy =                       -397.6742720094120500

  UHF NO Occupations:
  HONO-2 :    2B3u 1.0000000
  HONO-1 :    2B1u 1.0000000
  HONO-0 :    3B1u 1.0000000
  LUNO+0 :    4 Ag 0.0004315
  LUNO+1 :    4B1u 0.0000003
  LUNO+2 :    3B3u 0.0000002
  LUNO+3 :    3B2u 0.0000002

Computation Completed

Properties will be evaluated at   0.000000,   0.000000,   0.000000 [a0]

Properties computed using the SCF density matrix

 Multipole Moments:

 ------------------------------------------------------------------------------------
     Multipole            Electronic (a.u.)      Nuclear  (a.u.)        Total (a.u.)
 ------------------------------------------------------------------------------------

 L = 1.  Multiply by 2.5417464519 to convert [e a0] to [Debye]
 Dipole X            :          0.0000000            0.0000000            0.0000000
 Dipole Y            :          0.0000000            0.0000000            0.0000000
 Dipole Z            :          0.0000000            0.0000000            0.0000000
 Magnitude           :                                                    0.0000000

 ------------------------------------------------------------------------------------

*** tstop() called on Joses-MacBook-Pro-2.local at Sat Jan 25 21:14:50 2025
Module time:
	user time   =       4.17 seconds =       0.07 minutes
	system time =       1.46 seconds =       0.02 minutes
	total time  =          1 seconds =       0.02 minutes
Total time:
	user time   =       4.17 seconds =       0.07 minutes
	system time =       1.46 seconds =       0.02 minutes
	total time  =          1 seconds =       0.02 minutes

    Psi4 stopped on: Saturday, 25 January 2025 09:14PM
    Psi4 wall time for execution: 0:00:00.61

*** Psi4 exiting successfully. Buy a developer a beer!
