                               Psi4 1.9.1 release

  ==> Input File <==

--------------------------------------------------------------------------
molecule {
0 5
Ne           0.000000           0.000000           0.000000
}

set {
basis              cc-pvtz
reference          uks
maxiter            500
DAMPING_PERCENTAGE 1
E_CONVERGENCE      1.0E-8
D_CONVERGENCE      1.0E-8
DIIS_MAX_VECS      400
MBIS_MAXITER       8000
guess              SAP
}

energy('b3lyp')
--------------------------------------------------------------------------

    Molecular point group: d2h
    Geometry (in Angstrom), charge = 0, multiplicity = 5:

       Center              X                  Y                   Z               Mass
    ------------   -----------------  -----------------  -----------------  -----------------
         NE           0.000000000000     0.000000000000     0.000000000000    19.992440176200

  Charge       = 0
  Multiplicity = 5
  Basis Set: CC-PVTZ
    Blend: CC-PVTZ
  Basis Set: (CC-PVTZ AUX)
    Blend: CC-PVTZ-JKFIT

    Orbital Energies [Eh]
    ---------------------

    Alpha Occupied:

       1Ag   -31.661732     2Ag    -2.013034     1B2u   -1.167200
       1B3u   -1.166437     1B1u   -1.056296     2B2u    0.489777
       2B1u    0.528651

    Alpha Virtual:

       2B3u    0.590806     3Ag     0.796307     1B1g    2.061070
       4Ag     2.061423     1B2g    2.115893     1B3g    2.136761
       5Ag     2.150932     3B3u    4.956009     3B2u    4.957607
       3B1u    5.046507     4B3u    8.461232     4B2u    8.461260
       4B1u    8.527249     1Au     8.530000     5B3u    8.561776
       5B2u    8.582556     5B1u    8.589331     2B1g    9.825960
       6Ag     9.827135     2B2g    9.915399     2B3g    9.917055
       7Ag     9.944581     8Ag    10.411237

    Beta Occupied:

       1Ag   -31.554028     2Ag    -1.763610     1B1u   -0.922234

    Beta Virtual:

       1B3u   -0.736484     1B2u   -0.698262     2B3u    0.707340
       2B1u    0.733156     2B2u    0.757576     3Ag     0.959472
       1B2g    2.200464     4Ag     2.203167     1B1g    2.211156
       1B3g    2.228660     5Ag     2.236369     3B1u    5.156212
       3B3u    5.167800     3B2u    5.203944     4B1u    8.654693
       4B3u    8.661772     1Au     8.663831     4B2u    8.668038
       5B3u    8.676269     5B1u    8.688692     5B2u    8.693666
       2B2g   10.100024     6Ag    10.125288     2B3g   10.127515
       2B1g   10.152337     7Ag    10.161168     8Ag    10.588639

    Final Occupation by Irrep:
             Ag   B1g   B2g   B3g    Au   B1u   B2u   B3u
    DOCC [     2,    0,    0,    0,    0,    1,    0,    0 ]
    SOCC [     0,    0,    0,    0,    0,    1,    2,    1 ]
    NA   [     2,    0,    0,    0,    0,    2,    2,    1 ]
    NB   [     2,    0,    0,    0,    0,    1,    0,    0 ]

  @DF-UKS Final Energy:  -126.34579804255765

   => Energetics <=

    Nuclear Repulsion Energy =              0.0000000000000000
    One-Electron Energy =                -175.3599386180367219
    Two-Electron Energy =                  58.8510202930018309
    DFT Exchange-Correlation Energy =      -9.8368797175227467
    Empirical Dispersion Energy =           0.0000000000000000
    VV10 Nonlocal Energy =                  0.0000000000000000
    Total Energy =                       -126.3457980425576466

  UHF NO Occupations:
  HONO-2 :    2B1u 1.0000000
  HONO-1 :    1B3u 1.0000000
  HONO-0 :    2B2u 1.0000000
  LUNO+0 :    3 Ag 0.0006452
  LUNO+1 :    3B1u 0.0000872
  LUNO+2 :    4 Ag 0.0000015
  LUNO+3 :    4B1u 0.0000000

Computation Completed

Properties will be evaluated at   0.000000,   0.000000,   0.000000 [a0]

Properties computed using the SCF density matrix

 Multipole Moments:

 ------------------------------------------------------------------------------------
     Multipole            Electronic (a.u.)      Nuclear  (a.u.)        Total (a.u.)
 ------------------------------------------------------------------------------------

 L = 1.  Multiply by 2.5417464519 to convert [e a0] to [Debye]
 Dipole X            :          0.0000000            0.0000000            0.0000000
 Dipole Y            :          0.0000000            0.0000000            0.0000000
 Dipole Z            :          0.0000000            0.0000000            0.0000000
 Magnitude           :                                                    0.0000000

 ------------------------------------------------------------------------------------

*** tstop() called on Joses-MacBook-Pro-2.local at Sat Jan 25 21:14:24 2025
Module time:
	user time   =       1.82 seconds =       0.03 minutes
	system time =       2.86 seconds =       0.05 minutes
	total time  =          0 seconds =       0.00 minutes
Total time:
	user time   =       1.82 seconds =       0.03 minutes
	system time =       2.86 seconds =       0.05 minutes
	total time  =          0 seconds =       0.00 minutes

    Psi4 stopped on: Saturday, 25 January 2025 09:14PM
    Psi4 wall time for execution: 0:00:00.49

*** Psi4 exiting successfully. Buy a developer a beer!
