                               Psi4 1.9.1 release

  ==> Input File <==

--------------------------------------------------------------------------
molecule {
0 5
Ar           0.000000           0.000000           0.000000
}

set {
basis              cc-pvtz
reference          uks
maxiter            500
DAMPING_PERCENTAGE 1
E_CONVERGENCE      1.0E-8
D_CONVERGENCE      1.0E-8
DIIS_MAX_VECS      400
MBIS_MAXITER       8000
guess              SAP
}

energy('b3lyp')
--------------------------------------------------------------------------

    Molecular point group: d2h
    Geometry (in Angstrom), charge = 0, multiplicity = 5:

       Center              X                  Y                   Z               Mass
    ------------   -----------------  -----------------  -----------------  -----------------
         AR           0.000000000000     0.000000000000     0.000000000000    39.962383123700

  Charge       = 0
  Multiplicity = 5
  Basis Set: CC-PVTZ
    Blend: CC-PVTZ
  Basis Set: (CC-PVTZ AUX)
    Blend: CC-PVTZ-JKFIT

    Orbital Energies [Eh]
    ---------------------

    Alpha Occupied:

       1Ag  -115.412239     2Ag   -11.381183     1B2u   -8.949558
       1B3u   -8.948476     1B1u   -8.928940     3Ag    -1.170681
       2B2u   -0.631109     2B3u   -0.626301     2B1u   -0.573058
       4Ag     0.224761     3B3u    0.237031

    Alpha Virtual:

       3B2u    0.304052     3B1u    0.316756     1B1g    0.357629
       1B3g    0.364442     1B2g    0.367265     5Ag     0.372160
       6Ag     0.391624     7Ag     1.949723     2B1g    1.988453
       2B2g    1.999267     2B3g    2.004715     8Ag     2.008340
       4B2u    2.328165     4B3u    2.338466     5B3u    2.350796
       5B2u    2.355701     4B1u    2.361861     5B1u    2.372878
       1Au     2.398840     6B2u    2.400100     6B3u    2.400233
       6B1u    2.401412     9Ag     4.752999

    Beta Occupied:

       1Ag  -115.392263     2Ag   -11.360631     1B1u   -8.917513
       1B2u   -8.913504     1B3u   -8.905038     3Ag    -1.014894
       2B1u   -0.528144

    Beta Virtual:

       2B2u   -0.374475     2B3u   -0.360999     3B1u    0.337644
       3B2u    0.364756     3B3u    0.386704     1B3g    0.439235
       4Ag     0.439882     1B2g    0.451440     5Ag     0.462589
       1B1g    0.482027     6Ag     0.509219     2B3g    2.061157
       7Ag     2.062623     2B2g    2.073545     2B1g    2.093547
       8Ag     2.113542     4B1u    2.396231     4B2u    2.431620
       4B3u    2.444494     5B1u    2.468633     5B2u    2.471123
       1Au     2.480019     5B3u    2.480173     6B1u    2.498706
       6B2u    2.530644     6B3u    2.531982     9Ag     4.816305

    Final Occupation by Irrep:
             Ag   B1g   B2g   B3g    Au   B1u   B2u   B3u
    DOCC [     3,    0,    0,    0,    0,    2,    1,    1 ]
    SOCC [     1,    0,    0,    0,    0,    0,    1,    2 ]
    NA   [     4,    0,    0,    0,    0,    2,    2,    3 ]
    NB   [     3,    0,    0,    0,    0,    2,    1,    1 ]

  @DF-UKS Final Energy:  -526.09130094896636

   => Energetics <=

    Nuclear Repulsion Energy =              0.0000000000000000
    One-Electron Energy =                -723.3932355361978352
    Two-Electron Energy =                 222.0869260333727198
    DFT Exchange-Correlation Energy =     -24.7849914461412730
    Empirical Dispersion Energy =           0.0000000000000000
    VV10 Nonlocal Energy =                  0.0000000000000000
    Total Energy =                       -526.0913009489663636

  UHF NO Occupations:
  HONO-2 :    2B3u 1.0000000
  HONO-1 :    4 Ag 1.0000000
  HONO-0 :    3B3u 1.0000000
  LUNO+0 :    5 Ag 0.0022019
  LUNO+1 :    3B1u 0.0003213
  LUNO+2 :    3B2u 0.0000004
  LUNO+3 :    4B3u 0.0000003

Computation Completed

Properties will be evaluated at   0.000000,   0.000000,   0.000000 [a0]

Properties computed using the SCF density matrix

 Multipole Moments:

 ------------------------------------------------------------------------------------
     Multipole            Electronic (a.u.)      Nuclear  (a.u.)        Total (a.u.)
 ------------------------------------------------------------------------------------

 L = 1.  Multiply by 2.5417464519 to convert [e a0] to [Debye]
 Dipole X            :          0.0000000            0.0000000            0.0000000
 Dipole Y            :          0.0000000            0.0000000            0.0000000
 Dipole Z            :          0.0000000            0.0000000            0.0000000
 Magnitude           :                                                    0.0000000

 ------------------------------------------------------------------------------------

*** tstop() called on Joses-MacBook-Pro-2.local at Sat Jan 25 21:14:58 2025
Module time:
	user time   =       5.28 seconds =       0.09 minutes
	system time =       1.08 seconds =       0.02 minutes
	total time  =          1 seconds =       0.02 minutes
Total time:
	user time   =       5.28 seconds =       0.09 minutes
	system time =       1.08 seconds =       0.02 minutes
	total time  =          1 seconds =       0.02 minutes

    Psi4 stopped on: Saturday, 25 January 2025 09:14PM
    Psi4 wall time for execution: 0:00:00.68

*** Psi4 exiting successfully. Buy a developer a beer!
