                               Psi4 1.9.1 release

  ==> Input File <==

--------------------------------------------------------------------------
molecule {
0 5
Si           0.000000           0.000000           0.000000
}

set {
basis              cc-pvtz
reference          uks
maxiter            500
DAMPING_PERCENTAGE 1
E_CONVERGENCE      1.0E-8
D_CONVERGENCE      1.0E-8
DIIS_MAX_VECS      400
MBIS_MAXITER       8000
guess              SAP
}

energy('b3lyp')
--------------------------------------------------------------------------

    Molecular point group: d2h
    Geometry (in Angstrom), charge = 0, multiplicity = 5:

       Center              X                  Y                   Z               Mass
    ------------   -----------------  -----------------  -----------------  -----------------
         SI           0.000000000000     0.000000000000     0.000000000000    27.976926534650

  Charge       = 0
  Multiplicity = 5
  Basis Set: CC-PVTZ
    Blend: CC-PVTZ
  Basis Set: (CC-PVTZ AUX)
    Blend: CC-PVTZ-JKFIT

    Orbital Energies [Eh]
    ---------------------

    Alpha Occupied:

       1Ag   -66.217428     2Ag    -5.354902     1B1u   -3.715210
       1B2u   -3.715210     1B3u   -3.715210     3Ag    -0.507138
       2B2u   -0.225323     2B3u   -0.225323     2B1u   -0.225323

    Alpha Virtual:

       4Ag     0.153398     5Ag     0.175048     1B3g    0.175048
       1B2g    0.175048     1B1g    0.175048     6Ag     0.175048
       3B1u    0.221115     3B3u    0.221115     3B2u    0.221115
       2B2g    0.906883     2B1g    0.906883     2B3g    0.906883
       7Ag     0.906883     8Ag     0.906883     1Au     0.950619
       4B3u    0.950619     4B1u    0.950619     4B2u    0.950619
       5B1u    0.950619     5B3u    0.950619     5B2u    0.950619
       9Ag     1.877504     6B3u    2.035941     6B2u    2.035941
       6B1u    2.035941

    Beta Occupied:

       1Ag   -66.200190     2Ag    -5.332983     1B1u   -3.691272
       1B2u   -3.691272     1B3u   -3.691272

    Beta Virtual:

       3Ag    -0.279638     2B3u   -0.040782     2B2u   -0.040782
       2B1u   -0.040782     4Ag     0.225369     1B1g    0.293493
       1B2g    0.293493     5Ag     0.293493     6Ag     0.293493
       1B3g    0.293493     3B3u    0.296127     3B2u    0.296127
       3B1u    0.296127     2B1g    1.003915     2B2g    1.003915
       7Ag     1.003915     2B3g    1.003915     8Ag     1.003915
       4B3u    1.077903     1Au     1.077903     4B1u    1.077903
       5B3u    1.077903     4B2u    1.077903     5B1u    1.077903
       5B2u    1.077903     9Ag     1.941340     6B3u    2.094531
       6B2u    2.094531     6B1u    2.094531

    Final Occupation by Irrep:
             Ag   B1g   B2g   B3g    Au   B1u   B2u   B3u
    DOCC [     2,    0,    0,    0,    0,    1,    1,    1 ]
    SOCC [     1,    0,    0,    0,    0,    1,    1,    1 ]
    NA   [     3,    0,    0,    0,    0,    2,    2,    2 ]
    NB   [     2,    0,    0,    0,    0,    1,    1,    1 ]

  @DF-UKS Final Energy:  -289.23000552410792

   => Energetics <=

    Nuclear Repulsion Energy =              0.0000000000000000
    One-Electron Energy =                -399.9990097157279934
    Two-Electron Energy =                 127.5541185793186258
    DFT Exchange-Correlation Energy =     -16.7851143876985738
    Empirical Dispersion Energy =           0.0000000000000000
    VV10 Nonlocal Energy =                  0.0000000000000000
    Total Energy =                       -289.2300055241079235

  UHF NO Occupations:
  HONO-2 :    2B2u 1.0000000
  HONO-1 :    2B3u 1.0000000
  HONO-0 :    2B1u 1.0000000
  LUNO+0 :    3B2u 0.0000016
  LUNO+1 :    3B1u 0.0000016
  LUNO+2 :    3B3u 0.0000016
  LUNO+3 :    4 Ag 0.0000009

Computation Completed

Properties will be evaluated at   0.000000,   0.000000,   0.000000 [a0]

Properties computed using the SCF density matrix

 Multipole Moments:

 ------------------------------------------------------------------------------------
     Multipole            Electronic (a.u.)      Nuclear  (a.u.)        Total (a.u.)
 ------------------------------------------------------------------------------------

 L = 1.  Multiply by 2.5417464519 to convert [e a0] to [Debye]
 Dipole X            :          0.0000000            0.0000000            0.0000000
 Dipole Y            :          0.0000000            0.0000000            0.0000000
 Dipole Z            :          0.0000000            0.0000000            0.0000000
 Magnitude           :                                                    0.0000000

 ------------------------------------------------------------------------------------

*** tstop() called on Joses-MacBook-Pro-2.local at Sat Jan 25 21:14:41 2025
Module time:
	user time   =       4.91 seconds =       0.08 minutes
	system time =       1.46 seconds =       0.02 minutes
	total time  =          0 seconds =       0.00 minutes
Total time:
	user time   =       4.91 seconds =       0.08 minutes
	system time =       1.46 seconds =       0.02 minutes
	total time  =          0 seconds =       0.00 minutes

    Psi4 stopped on: Saturday, 25 January 2025 09:14PM
    Psi4 wall time for execution: 0:00:00.69

*** Psi4 exiting successfully. Buy a developer a beer!
