                               Psi4 1.9.1 release

  ==> Input File <==

--------------------------------------------------------------------------
molecule {
0 5
Mg           0.000000           0.000000           0.000000
}

set {
basis              cc-pvtz
reference          uks
maxiter            500
DAMPING_PERCENTAGE 1
E_CONVERGENCE      1.0E-8
D_CONVERGENCE      1.0E-8
DIIS_MAX_VECS      400
MBIS_MAXITER       8000
guess              SAP
}

energy('b3lyp')
--------------------------------------------------------------------------

    Molecular point group: d2h
    Geometry (in Angstrom), charge = 0, multiplicity = 5:

       Center              X                  Y                   Z               Mass
    ------------   -----------------  -----------------  -----------------  -----------------
         MG           0.000000000000     0.000000000000     0.000000000000    23.985041697000

  Charge       = 0
  Multiplicity = 5
  Basis Set: CC-PVTZ
    Blend: CC-PVTZ
  Basis Set: (CC-PVTZ AUX)
    Blend: DEF2-UNIVERSAL-JKFIT

    Orbital Energies [Eh]
    ---------------------

    Alpha Occupied:

       1Ag   -48.002899     2Ag    -3.870983     1B2u   -2.727822
       1B1u   -2.588446     1B3u   -2.583351     3Ag    -0.356143
       2B2u   -0.168917     2B3u   -0.157474

    Alpha Virtual:

       2B1u   -0.102220     4Ag     0.027004     3B2u    0.055379
       3B3u    0.057693     3B1u    0.062777     5Ag     0.139079
       1B1g    0.139231     1B3g    0.143273     1B2g    0.146442
       6Ag     0.154866     4B2u    0.405674     4B3u    0.418669
       4B1u    0.422681     7Ag     0.633882     2B3g    0.657887
       8Ag     0.658756     2B1g    0.659113     2B2g    0.668705
       9Ag     0.673175     5B1u    0.681918     5B2u    0.682252
       1Au     0.682560     5B3u    0.682657     6B2u    0.685659
       6B3u    0.689641     6B1u    0.693271

    Beta Occupied:

       1Ag   -47.941692     2Ag    -3.722011     1B1u   -2.528015
       1B3u   -2.517203

    Beta Virtual:

       1B2u   -2.239262     3Ag    -0.184832     2B1u   -0.040779
       2B3u   -0.016919     2B2u   -0.012573     4Ag     0.057234
       3B1u    0.086172     3B3u    0.101900     3B2u    0.106115
       5Ag     0.223128     1B2g    0.228943     1B3g    0.231417
       1B1g    0.252097     6Ag     0.252303     4B1u    0.447158
       4B3u    0.470071     4B2u    0.474179     7Ag     0.688414
       8Ag     0.707299     2B3g    0.709517     2B2g    0.712258
       2B1g    0.731489     9Ag     0.734587     5B1u    0.771005
       5B3u    0.776067     5B2u    0.778310     1Au     0.789422
       6B1u    0.790111     6B2u    0.810408     6B3u    0.811630

    Final Occupation by Irrep:
             Ag   B1g   B2g   B3g    Au   B1u   B2u   B3u
    DOCC [     2,    0,    0,    0,    0,    1,    0,    1 ]
    SOCC [     1,    0,    0,    0,    0,    0,    2,    1 ]
    NA   [     3,    0,    0,    0,    0,    1,    2,    2 ]
    NB   [     2,    0,    0,    0,    0,    1,    0,    1 ]

  @DF-UKS Final Energy:  -198.02759448925656

   => Energetics <=

    Nuclear Repulsion Energy =              0.0000000000000000
    One-Electron Energy =                -269.8143101700251236
    Two-Electron Energy =                  84.4796672181578003
    DFT Exchange-Correlation Energy =     -12.6929515373892219
    Empirical Dispersion Energy =           0.0000000000000000
    VV10 Nonlocal Energy =                  0.0000000000000000
    Total Energy =                       -198.0275944892565576

  UHF NO Occupations:
  HONO-2 :    1B2u 1.0000000
  HONO-1 :    2B2u 1.0000000
  HONO-0 :    3 Ag 1.0000000
  LUNO+0 :    4 Ag 0.0000365
  LUNO+1 :    2B1u 0.0000066
  LUNO+2 :    3B3u 0.0000039
  LUNO+3 :    5 Ag 0.0000000

Computation Completed

Properties will be evaluated at   0.000000,   0.000000,   0.000000 [a0]

Properties computed using the SCF density matrix

 Multipole Moments:

 ------------------------------------------------------------------------------------
     Multipole            Electronic (a.u.)      Nuclear  (a.u.)        Total (a.u.)
 ------------------------------------------------------------------------------------

 L = 1.  Multiply by 2.5417464519 to convert [e a0] to [Debye]
 Dipole X            :          0.0000000            0.0000000            0.0000000
 Dipole Y            :          0.0000000            0.0000000            0.0000000
 Dipole Z            :          0.0000000            0.0000000            0.0000000
 Magnitude           :                                                    0.0000000

 ------------------------------------------------------------------------------------

*** tstop() called on Joses-MacBook-Pro-2.local at Sat Jan 25 21:14:33 2025
Module time:
	user time   =       3.70 seconds =       0.06 minutes
	system time =       2.30 seconds =       0.04 minutes
	total time  =          1 seconds =       0.02 minutes
Total time:
	user time   =       3.70 seconds =       0.06 minutes
	system time =       2.30 seconds =       0.04 minutes
	total time  =          1 seconds =       0.02 minutes

    Psi4 stopped on: Saturday, 25 January 2025 09:14PM
    Psi4 wall time for execution: 0:00:00.71

*** Psi4 exiting successfully. Buy a developer a beer!
