                               Psi4 1.9.1 release

  ==> Input File <==

--------------------------------------------------------------------------
molecule {
0 5
C           0.000000           0.000000           0.000000
}

set {
basis              cc-pvtz
reference          uks
maxiter            500
DAMPING_PERCENTAGE 1
E_CONVERGENCE      1.0E-8
D_CONVERGENCE      1.0E-8
DIIS_MAX_VECS      400
MBIS_MAXITER       8000
guess              SAP
}

energy('b3lyp')
--------------------------------------------------------------------------

    Molecular point group: d2h
    Geometry (in Angstrom), charge = 0, multiplicity = 5:

       Center              X                  Y                   Z               Mass
    ------------   -----------------  -----------------  -----------------  -----------------
         C            0.000000000000     0.000000000000     0.000000000000    12.000000000000

  Charge       = 0
  Multiplicity = 5
  Basis Set: CC-PVTZ
    Blend: CC-PVTZ
  Basis Set: (CC-PVTZ AUX)
    Blend: CC-PVTZ-JKFIT

    Orbital Energies [Eh]
    ---------------------

    Alpha Occupied:

       1Ag   -10.311128     2Ag    -0.635404     1B1u   -0.291026
       1B3u   -0.291026     1B2u   -0.291026

    Alpha Virtual:

       2B3u    0.283546     2B2u    0.283546     2B1u    0.283546
       3Ag     0.329026     1B1g    0.631919     1B2g    0.631919
       4Ag     0.631919     1B3g    0.631919     5Ag     0.631919
       3B3u    1.892668     3B2u    1.892668     3B1u    1.892668
       4B3u    2.605776     4B2u    2.605776     5B3u    2.605776
       4B1u    2.605776     1Au     2.605776     5B1u    2.605776
       5B2u    2.605776     2B2g    2.853145     6Ag     2.853145
       2B1g    2.853145     2B3g    2.853145     7Ag     2.853145
       8Ag     3.669551

    Beta Occupied:

       1Ag   -10.240030

    Beta Virtual:

       2Ag    -0.271213     1B2u    0.004243     1B1u    0.004243
       1B3u    0.004243     2B2u    0.402644     2B1u    0.402644
       2B3u    0.402644     3Ag     0.457752     4Ag     0.789943
       1B3g    0.789943     1B2g    0.789943     1B1g    0.789943
       5Ag     0.789943     3B2u    2.045213     3B1u    2.045213
       3B3u    2.045213     4B3u    2.824970     4B1u    2.824970
       4B2u    2.824970     1Au     2.824970     5B3u    2.824970
       5B1u    2.824970     5B2u    2.824970     6Ag     3.091850
       2B3g    3.091850     2B1g    3.091850     2B2g    3.091850
       7Ag     3.091850     8Ag     3.816048

    Final Occupation by Irrep:
             Ag   B1g   B2g   B3g    Au   B1u   B2u   B3u
    DOCC [     1,    0,    0,    0,    0,    0,    0,    0 ]
    SOCC [     1,    0,    0,    0,    0,    1,    1,    1 ]
    NA   [     2,    0,    0,    0,    0,    1,    1,    1 ]
    NB   [     1,    0,    0,    0,    0,    0,    0,    0 ]

  @DF-UKS Final Energy:   -37.68629019040187

   => Energetics <=

    Nuclear Repulsion Energy =              0.0000000000000000
    One-Electron Energy =                 -50.2364729485424846
    Two-Electron Energy =                  16.8321132046607538
    DFT Exchange-Correlation Energy =      -4.2819304465201382
    Empirical Dispersion Energy =           0.0000000000000000
    VV10 Nonlocal Energy =                  0.0000000000000000
    Total Energy =                        -37.6862901904018628

  UHF NO Occupations:
  HONO-2 :    1B2u 1.0000000
  HONO-1 :    1B3u 1.0000000
  HONO-0 :    1B1u 1.0000000
  LUNO+0 :    3 Ag 0.0000019
  LUNO+1 :    4 Ag 0.0000000
  LUNO+2 :    5 Ag 0.0000000
  LUNO+3 :    2B3u 0.0000000

Computation Completed

Properties will be evaluated at   0.000000,   0.000000,   0.000000 [a0]

Properties computed using the SCF density matrix

 Multipole Moments:

 ------------------------------------------------------------------------------------
     Multipole            Electronic (a.u.)      Nuclear  (a.u.)        Total (a.u.)
 ------------------------------------------------------------------------------------

 L = 1.  Multiply by 2.5417464519 to convert [e a0] to [Debye]
 Dipole X            :          0.0000000            0.0000000            0.0000000
 Dipole Y            :          0.0000000            0.0000000            0.0000000
 Dipole Z            :          0.0000000            0.0000000            0.0000000
 Magnitude           :                                                    0.0000000

 ------------------------------------------------------------------------------------

*** tstop() called on Joses-MacBook-Pro-2.local at Sat Jan 25 21:14:09 2025
Module time:
	user time   =       2.54 seconds =       0.04 minutes
	system time =       1.72 seconds =       0.03 minutes
	total time  =          1 seconds =       0.02 minutes
Total time:
	user time   =       2.54 seconds =       0.04 minutes
	system time =       1.72 seconds =       0.03 minutes
	total time  =          1 seconds =       0.02 minutes

    Psi4 stopped on: Saturday, 25 January 2025 09:14PM
    Psi4 wall time for execution: 0:00:00.46

*** Psi4 exiting successfully. Buy a developer a beer!
