                               Psi4 1.9.1 release

  ==> Input File <==

--------------------------------------------------------------------------
molecule {
0 6
Al           0.000000           0.000000           0.000000
}

set {
basis              cc-pvtz
reference          uks
maxiter            500
DAMPING_PERCENTAGE 1
E_CONVERGENCE      1.0E-8
D_CONVERGENCE      1.0E-8
DIIS_MAX_VECS      400
MBIS_MAXITER       8000
guess              SAP
}

energy('b3lyp')
--------------------------------------------------------------------------

    Molecular point group: d2h
    Geometry (in Angstrom), charge = 0, multiplicity = 6:

       Center              X                  Y                   Z               Mass
    ------------   -----------------  -----------------  -----------------  -----------------
         AL           0.000000000000     0.000000000000     0.000000000000    26.981538530000

  Charge       = 0
  Multiplicity = 6
  Basis Set: CC-PVTZ
    Blend: CC-PVTZ
  Basis Set: (CC-PVTZ AUX)
    Blend: CC-PVTZ-JKFIT

    Orbital Energies [Eh]
    ---------------------

    Alpha Occupied:

       1Ag   -57.134579     2Ag    -4.877197     1B3u   -3.582668
       1B2u   -3.412012     1B1u   -3.412012     3Ag    -0.482877
       2B3u   -0.235929     2B1u   -0.219449     2B2u   -0.219449

    Alpha Virtual:

       4Ag     0.076119     5Ag     0.116603     1B1g    0.117273
       1B2g    0.117273     6Ag     0.119751     1B3g    0.119751
       3B3u    0.121262     3B1u    0.127927     3B2u    0.127927
       7Ag     0.586266     2B2g    0.589179     2B1g    0.589179
       8Ag     0.598307     2B3g    0.598307     4B3u    0.683369
       4B1u    0.683877     4B2u    0.683877     5B3u    0.685413
       1Au     0.685413     5B1u    0.688024     5B2u    0.688024
       9Ag     1.128857     6B3u    1.540006     6B2u    1.600484
       6B1u    1.600484

    Beta Occupied:

       1Ag   -57.050546     2Ag    -4.701652     1B2u   -3.324481
       1B1u   -3.324481

    Beta Virtual:

       1B3u   -3.003072     3Ag    -0.254850     2B2u   -0.043725
       2B1u   -0.043725     2B3u   -0.038904     4Ag     0.133765
       3B1u    0.185238     3B2u    0.185238     3B3u    0.189926
       1B1g    0.212670     1B2g    0.212670     1B3g    0.212716
       5Ag     0.212716     6Ag     0.214638     2B1g    0.695372
       2B2g    0.695372     2B3g    0.697377     7Ag     0.697377
       8Ag     0.698000     1Au     0.796024     4B3u    0.796024
       4B1u    0.796150     4B2u    0.796150     5B2u    0.797055
       5B1u    0.797055     5B3u    0.799394     9Ag     1.214172
       6B2u    1.671774     6B1u    1.671774     6B3u    1.692234

    Final Occupation by Irrep:
             Ag   B1g   B2g   B3g    Au   B1u   B2u   B3u
    DOCC [     2,    0,    0,    0,    0,    1,    1,    0 ]
    SOCC [     1,    0,    0,    0,    0,    1,    1,    2 ]
    NA   [     3,    0,    0,    0,    0,    2,    2,    2 ]
    NB   [     2,    0,    0,    0,    0,    1,    1,    0 ]

  @DF-UKS Final Energy:  -239.53118587327450

   => Energetics <=

    Nuclear Repulsion Energy =              0.0000000000000000
    One-Electron Energy =                -326.7459668242211137
    Two-Electron Energy =                 101.7001608304715035
    DFT Exchange-Correlation Energy =     -14.4853798795248760
    Empirical Dispersion Energy =           0.0000000000000000
    VV10 Nonlocal Energy =                  0.0000000000000000
    Total Energy =                       -239.5311858732744952

  UHF NO Occupations:
  HONO-2 :    2B1u 1.0000000
  HONO-1 :    2B3u 1.0000000
  HONO-0 :    3 Ag 1.0000000
  LUNO+0 :    4 Ag 0.0000353
  LUNO+1 :    3B1u 0.0000176
  LUNO+2 :    3B2u 0.0000176
  LUNO+3 :    5 Ag 0.0000000

Computation Completed

Properties will be evaluated at   0.000000,   0.000000,   0.000000 [a0]

Properties computed using the SCF density matrix

 Multipole Moments:

 ------------------------------------------------------------------------------------
     Multipole            Electronic (a.u.)      Nuclear  (a.u.)        Total (a.u.)
 ------------------------------------------------------------------------------------

 L = 1.  Multiply by 2.5417464519 to convert [e a0] to [Debye]
 Dipole X            :          0.0000000            0.0000000            0.0000000
 Dipole Y            :          0.0000000            0.0000000            0.0000000
 Dipole Z            :          0.0000000            0.0000000            0.0000000
 Magnitude           :                                                    0.0000000

 ------------------------------------------------------------------------------------

*** tstop() called on Joses-MacBook-Pro-2.local at Sat Jan 25 21:14:38 2025
Module time:
	user time   =       3.94 seconds =       0.07 minutes
	system time =       1.25 seconds =       0.02 minutes
	total time  =          1 seconds =       0.02 minutes
Total time:
	user time   =       3.94 seconds =       0.07 minutes
	system time =       1.25 seconds =       0.02 minutes
	total time  =          1 seconds =       0.02 minutes

    Psi4 stopped on: Saturday, 25 January 2025 09:14PM
    Psi4 wall time for execution: 0:00:00.56

*** Psi4 exiting successfully. Buy a developer a beer!
