                               Psi4 1.9.1 release

  ==> Input File <==

--------------------------------------------------------------------------
molecule {
0 6
B           0.000000           0.000000           0.000000
}

set {
basis              cc-pvtz
reference          uks
maxiter            500
DAMPING_PERCENTAGE 1
E_CONVERGENCE      1.0E-8
D_CONVERGENCE      1.0E-8
DIIS_MAX_VECS      400
MBIS_MAXITER       8000
guess              SAP
}

energy('b3lyp')
--------------------------------------------------------------------------

    Molecular point group: d2h
    Geometry (in Angstrom), charge = 0, multiplicity = 6:

       Center              X                  Y                   Z               Mass
    ------------   -----------------  -----------------  -----------------  -----------------
         B            0.000000000000     0.000000000000     0.000000000000    11.009305360000

  Charge       = 0
  Multiplicity = 6
  Basis Set: CC-PVTZ
    Blend: CC-PVTZ
  Basis Set: (CC-PVTZ AUX)
    Blend: CC-PVTZ-JKFIT

    Orbital Energies [Eh]
    ---------------------

    Alpha Occupied:

       1Ag    -8.559250     2Ag    -0.557250     1B1u   -0.301637
       1B3u   -0.301637     1B2u   -0.301637

    Alpha Virtual:

       2B3u    0.146486     2B2u    0.146486     2B1u    0.146486
       3Ag     0.176821     1B2g    0.403336     1B3g    0.403336
       1B1g    0.403336     4Ag     0.403336     5Ag     0.403336
       3B2u    0.982312     3B3u    0.982312     3B1u    0.982312
       4B3u    1.678893     4B2u    1.678893     4B1u    1.678893
       5B3u    1.678893     1Au     1.678893     5B2u    1.678893
       5B1u    1.678893     2B1g    1.684013     2B2g    1.684013
       2B3g    1.684013     6Ag     1.684013     7Ag     1.684013
       8Ag     2.035363

    Beta Occupied:

    Beta Virtual:

       1Ag    -7.070852     2Ag    -0.134129     1B1u    0.045360
       1B2u    0.045360     1B3u    0.045360     2B1u    0.303050
       2B2u    0.303050     2B3u    0.303050     3Ag     0.342480
       1B1g    0.524021     4Ag     0.524021     1B2g    0.524021
       5Ag     0.524021     1B3g    0.524021     3B1u    1.280111
       3B2u    1.280111     3B3u    1.280111     4B1u    1.878957
       4B2u    1.878957     4B3u    1.878957     1Au     1.878957
       5B1u    1.878957     5B3u    1.878957     5B2u    1.878957
       6Ag     1.986618     2B1g    1.986618     2B3g    1.986618
       7Ag     1.986618     2B2g    1.986618     8Ag     2.388456

    Final Occupation by Irrep:
             Ag   B1g   B2g   B3g    Au   B1u   B2u   B3u
    DOCC [     0,    0,    0,    0,    0,    0,    0,    0 ]
    SOCC [     2,    0,    0,    0,    0,    1,    1,    1 ]
    NA   [     2,    0,    0,    0,    0,    1,    1,    1 ]
    NB   [     0,    0,    0,    0,    0,    0,    0,    0 ]

  @DF-UKS Final Energy:   -17.64257969065390

   => Energetics <=

    Nuclear Repulsion Energy =              0.0000000000000000
    One-Electron Energy =                 -23.4055011955429038
    Two-Electron Energy =                   8.3701364784352492
    DFT Exchange-Correlation Energy =      -2.6072149735462489
    Empirical Dispersion Energy =           0.0000000000000000
    VV10 Nonlocal Energy =                  0.0000000000000000
    Total Energy =                        -17.6425796906539034

  UHF NO Occupations:
  HONO-2 :    1B2u 1.0000000
  HONO-1 :    1B1u 1.0000000
  HONO-0 :    2 Ag 1.0000000
  LUNO+0 :    3 Ag 0.0000000
  LUNO+1 :    2B3u 0.0000000
  LUNO+2 :    4 Ag 0.0000000
  LUNO+3 :    2B2u 0.0000000

Computation Completed

Properties will be evaluated at   0.000000,   0.000000,   0.000000 [a0]

Properties computed using the SCF density matrix

 Multipole Moments:

 ------------------------------------------------------------------------------------
     Multipole            Electronic (a.u.)      Nuclear  (a.u.)        Total (a.u.)
 ------------------------------------------------------------------------------------

 L = 1.  Multiply by 2.5417464519 to convert [e a0] to [Debye]
 Dipole X            :          0.0000000            0.0000000            0.0000000
 Dipole Y            :          0.0000000            0.0000000            0.0000000
 Dipole Z            :          0.0000000            0.0000000            0.0000000
 Magnitude           :                                                    0.0000000

 ------------------------------------------------------------------------------------

*** tstop() called on Joses-MacBook-Pro-2.local at Sat Jan 25 21:14:05 2025
Module time:
	user time   =       2.42 seconds =       0.04 minutes
	system time =       1.65 seconds =       0.03 minutes
	total time  =          0 seconds =       0.00 minutes
Total time:
	user time   =       2.42 seconds =       0.04 minutes
	system time =       1.65 seconds =       0.03 minutes
	total time  =          0 seconds =       0.00 minutes

    Psi4 stopped on: Saturday, 25 January 2025 09:14PM
    Psi4 wall time for execution: 0:00:00.43

*** Psi4 exiting successfully. Buy a developer a beer!
