                               Psi4 1.9.1 release

  ==> Input File <==

--------------------------------------------------------------------------
molecule {
0 6
Cl           0.000000           0.000000           0.000000
}

set {
basis              cc-pvtz
reference          uks
maxiter            500
DAMPING_PERCENTAGE 1
E_CONVERGENCE      1.0E-8
D_CONVERGENCE      1.0E-8
DIIS_MAX_VECS      400
MBIS_MAXITER       8000
guess              SAP
}

energy('b3lyp')
--------------------------------------------------------------------------

    Molecular point group: d2h
    Geometry (in Angstrom), charge = 0, multiplicity = 6:

       Center              X                  Y                   Z               Mass
    ------------   -----------------  -----------------  -----------------  -----------------
         CL           0.000000000000     0.000000000000     0.000000000000    34.968852682000

  Charge       = 0
  Multiplicity = 6
  Basis Set: CC-PVTZ
    Blend: CC-PVTZ
  Basis Set: (CC-PVTZ AUX)
    Blend: CC-PVTZ-JKFIT

    Orbital Energies [Eh]
    ---------------------

    Alpha Occupied:

       1Ag  -101.961816     2Ag    -9.852483     1B1u   -7.618638
       1B2u   -7.616766     1B3u   -7.616766     3Ag    -1.151676
       2B1u   -0.651924     2B3u   -0.644665     2B2u   -0.644665
       3B2u    0.125246     3B3u    0.125246

    Alpha Virtual:

       4Ag     0.176856     1B2g    0.179676     1B3g    0.179676
       3B1u    0.184803     1B1g    0.191209     5Ag     0.191209
       6Ag     0.215494     2B3g    1.565044     2B2g    1.565044
       7Ag     1.565607     2B1g    1.568043     8Ag     1.568043
       4B1u    1.760505     4B3u    1.762691     4B2u    1.762691
       1Au     1.769402     5B1u    1.769402     5B2u    1.780554
       5B3u    1.780554     6B1u    1.887147     6B2u    1.893705
       6B3u    1.893705     9Ag     3.761756

    Beta Occupied:

       1Ag  -101.933116     2Ag    -9.824804     1B1u   -7.581254
       1B2u   -7.572616     1B3u   -7.572616     3Ag    -0.969390

    Beta Virtual:

       2B1u   -0.437032     2B2u   -0.415382     2B3u   -0.415382
       3B1u    0.243131     3B2u    0.270798     3B3u    0.270798
       4Ag     0.284416     1B2g    0.291452     1B3g    0.291452
       5Ag     0.305868     1B1g    0.307242     6Ag     0.307242
       7Ag     1.658317     2B3g    1.662653     2B2g    1.662653
       2B1g    1.678476     8Ag     1.678476     4B1u    1.871594
       4B3u    1.873668     4B2u    1.873668     1Au     1.880261
       5B1u    1.880261     5B2u    1.891604     5B3u    1.891604
       6B1u    1.962204     6B2u    1.979361     6B3u    1.979361
       9Ag     3.837063

    Final Occupation by Irrep:
             Ag   B1g   B2g   B3g    Au   B1u   B2u   B3u
    DOCC [     3,    0,    0,    0,    0,    1,    1,    1 ]
    SOCC [     0,    0,    0,    0,    0,    1,    2,    2 ]
    NA   [     3,    0,    0,    0,    0,    2,    3,    3 ]
    NB   [     3,    0,    0,    0,    0,    1,    1,    1 ]

  @DF-UKS Final Energy:  -458.97816812429363

   => Energetics <=

    Nuclear Repulsion Energy =              0.0000000000000000
    One-Electron Energy =                -628.9924505580185041
    Two-Electron Energy =                 192.5359006806607169
    DFT Exchange-Correlation Energy =     -22.5216182469358124
    Empirical Dispersion Energy =           0.0000000000000000
    VV10 Nonlocal Energy =                  0.0000000000000000
    Total Energy =                       -458.9781681242936315

  UHF NO Occupations:
  HONO-2 :    3B3u 1.0000000
  HONO-1 :    2B1u 1.0000000
  HONO-0 :    3B2u 1.0000000
  LUNO+0 :    4 Ag 0.0004630
  LUNO+1 :    4B3u 0.0000002
  LUNO+2 :    4B2u 0.0000002
  LUNO+3 :    3B1u 0.0000002

Computation Completed

Properties will be evaluated at   0.000000,   0.000000,   0.000000 [a0]

Properties computed using the SCF density matrix

 Multipole Moments:

 ------------------------------------------------------------------------------------
     Multipole            Electronic (a.u.)      Nuclear  (a.u.)        Total (a.u.)
 ------------------------------------------------------------------------------------

 L = 1.  Multiply by 2.5417464519 to convert [e a0] to [Debye]
 Dipole X            :          0.0000000            0.0000000            0.0000000
 Dipole Y            :          0.0000000            0.0000000            0.0000000
 Dipole Z            :          0.0000000            0.0000000            0.0000000
 Magnitude           :                                                    0.0000000

 ------------------------------------------------------------------------------------

*** tstop() called on Joses-MacBook-Pro-2.local at Sat Jan 25 21:14:54 2025
Module time:
	user time   =       3.95 seconds =       0.07 minutes
	system time =       1.38 seconds =       0.02 minutes
	total time  =          0 seconds =       0.00 minutes
Total time:
	user time   =       3.95 seconds =       0.07 minutes
	system time =       1.38 seconds =       0.02 minutes
	total time  =          0 seconds =       0.00 minutes

    Psi4 stopped on: Saturday, 25 January 2025 09:14PM
    Psi4 wall time for execution: 0:00:00.58

*** Psi4 exiting successfully. Buy a developer a beer!
