                               Psi4 1.9.1 release

  ==> Input File <==

--------------------------------------------------------------------------
molecule {
0 6
Na           0.000000           0.000000           0.000000
}

set {
basis              cc-pvtz
reference          uks
maxiter            500
DAMPING_PERCENTAGE 1
E_CONVERGENCE      1.0E-8
D_CONVERGENCE      1.0E-8
DIIS_MAX_VECS      400
MBIS_MAXITER       8000
guess              SAP
}

energy('b3lyp')
--------------------------------------------------------------------------

    Molecular point group: d2h
    Geometry (in Angstrom), charge = 0, multiplicity = 6:

       Center              X                  Y                   Z               Mass
    ------------   -----------------  -----------------  -----------------  -----------------
         NA           0.000000000000     0.000000000000     0.000000000000    22.989769282000

  Charge       = 0
  Multiplicity = 6
  Basis Set: CC-PVTZ
    Blend: CC-PVTZ
  Basis Set: (CC-PVTZ AUX)
    Blend: DEF2-UNIVERSAL-JKFIT

    Orbital Energies [Eh]
    ---------------------

    Alpha Occupied:

       1Ag   -40.690774     2Ag    -3.685695     1B3u   -2.628761
       1B2u   -2.628761     1B1u   -2.512933     3Ag    -0.363019
       2B2u   -0.166339     2B3u   -0.166339

    Alpha Virtual:

       2B1u   -0.108493     4Ag     0.000389     3B3u    0.016950
       3B2u    0.016950     3B1u    0.018181     1B1g    0.049382
       5Ag     0.049382     1B2g    0.053682     1B3g    0.053682
       6Ag     0.061886     4B2u    0.126673     4B3u    0.126673
       4B1u    0.130451     2B1g    0.273724     7Ag     0.273724
       2B2g    0.277963     2B3g    0.277963     8Ag     0.285881
       1Au     0.336957     5B1u    0.336957     5B3u    0.337005
       5B2u    0.337005     6B3u    0.341131     6B2u    0.341131
       6B1u    0.346919     9Ag     0.721871

    Beta Occupied:

       1Ag   -40.598432     2Ag    -3.425904     1B1u   -2.419192

    Beta Virtual:

       1B3u   -2.166147     1B2u   -2.166147     3Ag    -0.212506
       2B1u   -0.056501     2B3u   -0.025998     2B2u   -0.025998
       4Ag     0.015756     3B1u    0.023128     3B2u    0.033367
       3B3u    0.033367     5Ag     0.100612     1B2g    0.102411
       1B3g    0.102411     6Ag     0.123333     1B1g    0.123337
       4B1u    0.143810     4B2u    0.163205     4B3u    0.163205
       7Ag     0.328304     2B2g    0.332718     2B3g    0.332718
       2B1g    0.353924     8Ag     0.353948     5B1u    0.391883
       5B3u    0.398993     5B2u    0.398993     6B1u    0.405230
       1Au     0.405321     6B3u    0.427998     6B2u    0.427998
       9Ag     0.818976

    Final Occupation by Irrep:
             Ag   B1g   B2g   B3g    Au   B1u   B2u   B3u
    DOCC [     2,    0,    0,    0,    0,    1,    0,    0 ]
    SOCC [     1,    0,    0,    0,    0,    0,    2,    2 ]
    NA   [     3,    0,    0,    0,    0,    1,    2,    2 ]
    NB   [     2,    0,    0,    0,    0,    1,    0,    0 ]

  @DF-UKS Final Energy:  -159.14253858896785

   => Energetics <=

    Nuclear Repulsion Energy =              0.0000000000000000
    One-Electron Energy =                -211.4497982621617780
    Two-Electron Energy =                  62.8406762363686866
    DFT Exchange-Correlation Energy =     -10.5334165631747734
    Empirical Dispersion Energy =           0.0000000000000000
    VV10 Nonlocal Energy =                  0.0000000000000000
    Total Energy =                       -159.1425385889678523

  UHF NO Occupations:
  HONO-2 :    1B3u 1.0000000
  HONO-1 :    2B3u 1.0000000
  HONO-0 :    2B2u 1.0000000
  LUNO+0 :    4 Ag 0.0001009
  LUNO+1 :    2B1u 0.0000053
  LUNO+2 :    5 Ag 0.0000000
  LUNO+3 :    3B2u 0.0000000

Computation Completed

Properties will be evaluated at   0.000000,   0.000000,   0.000000 [a0]

Properties computed using the SCF density matrix

 Multipole Moments:

 ------------------------------------------------------------------------------------
     Multipole            Electronic (a.u.)      Nuclear  (a.u.)        Total (a.u.)
 ------------------------------------------------------------------------------------

 L = 1.  Multiply by 2.5417464519 to convert [e a0] to [Debye]
 Dipole X            :          0.0000000            0.0000000            0.0000000
 Dipole Y            :          0.0000000            0.0000000            0.0000000
 Dipole Z            :          0.0000000            0.0000000            0.0000000
 Magnitude           :                                                    0.0000000

 ------------------------------------------------------------------------------------

*** tstop() called on Joses-MacBook-Pro-2.local at Sat Jan 25 21:14:29 2025
Module time:
	user time   =       3.98 seconds =       0.07 minutes
	system time =       1.35 seconds =       0.02 minutes
	total time  =          1 seconds =       0.02 minutes
Total time:
	user time   =       3.98 seconds =       0.07 minutes
	system time =       1.35 seconds =       0.02 minutes
	total time  =          1 seconds =       0.02 minutes

    Psi4 stopped on: Saturday, 25 January 2025 09:14PM
    Psi4 wall time for execution: 0:00:00.66

*** Psi4 exiting successfully. Buy a developer a beer!
