                               Psi4 1.9.1 release

  ==> Input File <==

--------------------------------------------------------------------------
molecule {
0 6
N           0.000000           0.000000           0.000000
}

set {
basis              cc-pvtz
reference          uks
maxiter            500
DAMPING_PERCENTAGE 1
E_CONVERGENCE      1.0E-8
D_CONVERGENCE      1.0E-8
DIIS_MAX_VECS      400
MBIS_MAXITER       8000
guess              SAP
}

energy('b3lyp')
--------------------------------------------------------------------------

    Molecular point group: d2h
    Geometry (in Angstrom), charge = 0, multiplicity = 6:

       Center              X                  Y                   Z               Mass
    ------------   -----------------  -----------------  -----------------  -----------------
         N            0.000000000000     0.000000000000     0.000000000000    14.003074004430

  Charge       = 0
  Multiplicity = 6
  Basis Set: CC-PVTZ
    Blend: CC-PVTZ
  Basis Set: (CC-PVTZ AUX)
    Blend: CC-PVTZ-JKFIT

    Orbital Energies [Eh]
    ---------------------

    Alpha Occupied:

       1Ag   -14.638530     2Ag    -0.985696     1B3u   -0.526049
       1B2u   -0.524001     1B1u   -0.524001     2B3u    0.261700

    Alpha Virtual:

       2B2u    0.341396     2B1u    0.341396     3Ag     0.378498
       1B3g    0.868417     4Ag     0.868417     1B1g    0.878828
       1B2g    0.878828     5Ag     0.884943     3B3u    2.581314
       3B2u    2.584746     3B1u    2.584746     4B1u    3.635767
       4B2u    3.635767     1Au     3.649206     4B3u    3.649206
       5B1u    3.657887     5B2u    3.657887     5B3u    3.660844
       2B2g    4.128957     2B1g    4.128957     6Ag     4.130305
       2B3g    4.130420     7Ag     4.130420     8Ag     4.964998

    Beta Occupied:

       1Ag   -14.528764

    Beta Virtual:

       2Ag    -0.512339     1B2u   -0.120792     1B1u   -0.120792
       1B3u   -0.094070     2B2u    0.488089     2B1u    0.488089
       2B3u    0.519620     3Ag     0.564788     4Ag     1.062754
       1B3g    1.062755     1B1g    1.078334     1B2g    1.078334
       5Ag     1.082831     3B2u    2.792396     3B1u    2.792396
       3B3u    2.815896     4B1u    3.908721     4B2u    3.908721
       4B3u    3.920010     1Au     3.920010     5B2u    3.927297
       5B1u    3.927297     5B3u    3.929676     6Ag     4.444614
       2B3g    4.444614     2B1g    4.468451     2B2g    4.468451
       7Ag     4.475585     8Ag     5.177743

    Final Occupation by Irrep:
             Ag   B1g   B2g   B3g    Au   B1u   B2u   B3u
    DOCC [     1,    0,    0,    0,    0,    0,    0,    0 ]
    SOCC [     1,    0,    0,    0,    0,    1,    1,    2 ]
    NA   [     2,    0,    0,    0,    0,    1,    1,    2 ]
    NB   [     1,    0,    0,    0,    0,    0,    0,    0 ]

  @DF-UKS Final Energy:   -53.67243619418978

   => Energetics <=

    Nuclear Repulsion Energy =              0.0000000000000000
    One-Electron Energy =                 -71.9650031485991235
    Two-Electron Energy =                  23.7548632000450226
    DFT Exchange-Correlation Energy =      -5.4622962456356827
    Empirical Dispersion Energy =           0.0000000000000000
    VV10 Nonlocal Energy =                  0.0000000000000000
    Total Energy =                        -53.6724361941897854

  UHF NO Occupations:
  HONO-2 :    1B2u 1.0000000
  HONO-1 :    1B1u 1.0000000
  HONO-0 :    2 Ag 1.0000000
  LUNO+0 :    3 Ag 0.0000034
  LUNO+1 :    4 Ag 0.0000000
  LUNO+2 :    5 Ag 0.0000000
  LUNO+3 :    2B2u 0.0000000

Computation Completed

Properties will be evaluated at   0.000000,   0.000000,   0.000000 [a0]

Properties computed using the SCF density matrix

 Multipole Moments:

 ------------------------------------------------------------------------------------
     Multipole            Electronic (a.u.)      Nuclear  (a.u.)        Total (a.u.)
 ------------------------------------------------------------------------------------

 L = 1.  Multiply by 2.5417464519 to convert [e a0] to [Debye]
 Dipole X            :          0.0000000            0.0000000            0.0000000
 Dipole Y            :          0.0000000            0.0000000            0.0000000
 Dipole Z            :          0.0000000            0.0000000            0.0000000
 Magnitude           :                                                    0.0000000

 ------------------------------------------------------------------------------------

*** tstop() called on Joses-MacBook-Pro-2.local at Sat Jan 25 21:14:13 2025
Module time:
	user time   =       2.08 seconds =       0.03 minutes
	system time =       2.03 seconds =       0.03 minutes
	total time  =          0 seconds =       0.00 minutes
Total time:
	user time   =       2.08 seconds =       0.03 minutes
	system time =       2.03 seconds =       0.03 minutes
	total time  =          0 seconds =       0.00 minutes

    Psi4 stopped on: Saturday, 25 January 2025 09:14PM
    Psi4 wall time for execution: 0:00:00.43

*** Psi4 exiting successfully. Buy a developer a beer!
