                               Psi4 1.9.1 release

  ==> Input File <==

--------------------------------------------------------------------------
molecule {
0 1
O           0.000000           0.000000           0.000000
}

set {
basis              cc-pvtz
reference          uks
maxiter            500
DAMPING_PERCENTAGE 1
E_CONVERGENCE      1.0E-8
D_CONVERGENCE      1.0E-8
DIIS_MAX_VECS      400
MBIS_MAXITER       8000
guess              SAP
}

energy('b3lyp')
--------------------------------------------------------------------------

    Molecular point group: d2h
    Geometry (in Angstrom), charge = 0, multiplicity = 1:

       Center              X                  Y                   Z               Mass
    ------------   -----------------  -----------------  -----------------  -----------------
         O            0.000000000000     0.000000000000     0.000000000000    15.994914619570

  Charge       = 0
  Multiplicity = 1
  Basis Set: CC-PVTZ
    Blend: CC-PVTZ
  Basis Set: (CC-PVTZ AUX)
    Blend: CC-PVTZ-JKFIT

    Orbital Energies [Eh]
    ---------------------

    Alpha Occupied:

       1Ag   -19.279204     2Ag    -0.953492     1B3u   -0.371395
       1B1u   -0.371395

    Alpha Virtual:

       1B2u   -0.289266     2B2u    0.539223     2B3u    0.553091
       2B1u    0.553091     3Ag     0.694028     4Ag     1.404135
       1B1g    1.406218     1B3g    1.406218     1B2g    1.444150
       5Ag     1.444150     3B2u    3.488639     3B3u    3.518836
       3B1u    3.518836     4B2u    5.023399     4B3u    5.023890
       4B1u    5.023890     1Au     5.043938     5B2u    5.043938
       5B3u    5.092983     5B1u    5.092983     2B1g    6.072051
       2B3g    6.072051     6Ag     6.079368     2B2g    6.120124
       7Ag     6.120124     8Ag     6.901082

    Beta Occupied:

       1Ag   -19.279204     2Ag    -0.953492     1B1u   -0.371395
       1B3u   -0.371395

    Beta Virtual:

       1B2u   -0.289266     2B2u    0.539223     2B3u    0.553091
       2B1u    0.553091     3Ag     0.694028     4Ag     1.404135
       1B1g    1.406218     1B3g    1.406218     1B2g    1.444150
       5Ag     1.444150     3B2u    3.488639     3B3u    3.518836
       3B1u    3.518836     4B2u    5.023399     4B3u    5.023890
       4B1u    5.023890     1Au     5.043938     5B2u    5.043938
       5B3u    5.092983     5B1u    5.092983     2B1g    6.072051
       2B3g    6.072051     6Ag     6.079368     2B2g    6.120124
       7Ag     6.120124     8Ag     6.901082

    Final Occupation by Irrep:
             Ag   B1g   B2g   B3g    Au   B1u   B2u   B3u
    DOCC [     2,    0,    0,    0,    0,    1,    0,    1 ]
    SOCC [     0,    0,    0,    0,    0,    0,    0,    0 ]
    NA   [     2,    0,    0,    0,    0,    1,    0,    1 ]
    NB   [     2,    0,    0,    0,    0,    1,    0,    1 ]

  @DF-UKS Final Energy:   -74.99025937236276

   => Energetics <=

    Nuclear Repulsion Energy =              0.0000000000000000
    One-Electron Energy =                -103.1328158122380785
    Two-Electron Energy =                  34.9448487622395234
    DFT Exchange-Correlation Energy =      -6.8022923223641936
    Empirical Dispersion Energy =           0.0000000000000000
    VV10 Nonlocal Energy =                  0.0000000000000000
    Total Energy =                        -74.9902593723627433

  UHF NO Occupations:
  HONO-2 :    1 Ag 2.0000000
  HONO-1 :    1B3u 2.0000000
  HONO-0 :    2 Ag 2.0000000
  LUNO+0 :    3 Ag 0.0000000
  LUNO+1 :    2B1u 0.0000000
  LUNO+2 :    3B1u 0.0000000
  LUNO+3 :    2B3u 0.0000000

Computation Completed

Properties will be evaluated at   0.000000,   0.000000,   0.000000 [a0]

Properties computed using the SCF density matrix

 Multipole Moments:

 ------------------------------------------------------------------------------------
     Multipole            Electronic (a.u.)      Nuclear  (a.u.)        Total (a.u.)
 ------------------------------------------------------------------------------------

 L = 1.  Multiply by 2.5417464519 to convert [e a0] to [Debye]
 Dipole X            :          0.0000000            0.0000000            0.0000000
 Dipole Y            :          0.0000000            0.0000000            0.0000000
 Dipole Z            :          0.0000000            0.0000000            0.0000000
 Magnitude           :                                                    0.0000000

 ------------------------------------------------------------------------------------

*** tstop() called on Joses-MacBook-Pro-2.local at Sat Jan 25 21:14:14 2025
Module time:
	user time   =       2.46 seconds =       0.04 minutes
	system time =       2.03 seconds =       0.03 minutes
	total time  =          1 seconds =       0.02 minutes
Total time:
	user time   =       2.46 seconds =       0.04 minutes
	system time =       2.03 seconds =       0.03 minutes
	total time  =          1 seconds =       0.02 minutes

    Psi4 stopped on: Saturday, 25 January 2025 09:14PM
    Psi4 wall time for execution: 0:00:00.47

*** Psi4 exiting successfully. Buy a developer a beer!
