                               Psi4 1.9.1 release

  ==> Input File <==

--------------------------------------------------------------------------
molecule {
0 1
S           0.000000           0.000000           0.000000
}

set {
basis              cc-pvtz
reference          uks
maxiter            500
DAMPING_PERCENTAGE 1
E_CONVERGENCE      1.0E-8
D_CONVERGENCE      1.0E-8
DIIS_MAX_VECS      400
MBIS_MAXITER       8000
guess              SAP
}

energy('b3lyp')
--------------------------------------------------------------------------

    Molecular point group: d2h
    Geometry (in Angstrom), charge = 0, multiplicity = 1:

       Center              X                  Y                   Z               Mass
    ------------   -----------------  -----------------  -----------------  -----------------
         S            0.000000000000     0.000000000000     0.000000000000    31.972071174400

  Charge       = 0
  Multiplicity = 1
  Basis Set: CC-PVTZ
    Blend: CC-PVTZ
  Basis Set: (CC-PVTZ AUX)
    Blend: CC-PVTZ-JKFIT

    Orbital Energies [Eh]
    ---------------------

    Alpha Occupied:

       1Ag   -88.959647     2Ag    -8.005138     1B3u   -5.982298
       1B2u   -5.957335     1B1u   -5.957335     3Ag    -0.687785
       2B1u   -0.281826     2B2u   -0.281826

    Alpha Virtual:

       2B3u   -0.244197     3B3u    0.271270     3B2u    0.288711
       3B1u    0.288711     4Ag     0.314723     1B2g    0.334864
       1B1g    0.334864     5Ag     0.335256     1B3g    0.362144
       6Ag     0.362144     7Ag     1.470691     2B1g    1.475332
       2B2g    1.475332     2B3g    1.509210     8Ag     1.509210
       4B3u    1.606917     4B1u    1.607968     4B2u    1.607968
       1Au     1.621230     5B3u    1.621230     5B2u    1.652991
       5B1u    1.652991     6B3u    1.858896     6B1u    1.896464
       6B2u    1.896464     9Ag     3.244061

    Beta Occupied:

       1Ag   -88.959647     2Ag    -8.005138     1B3u   -5.982298
       1B2u   -5.957335     1B1u   -5.957335     3Ag    -0.687785
       2B1u   -0.281826     2B2u   -0.281826

    Beta Virtual:

       2B3u   -0.244197     3B3u    0.271270     3B2u    0.288711
       3B1u    0.288711     4Ag     0.314723     1B2g    0.334864
       1B1g    0.334864     5Ag     0.335256     1B3g    0.362144
       6Ag     0.362144     7Ag     1.470691     2B1g    1.475332
       2B2g    1.475332     2B3g    1.509210     8Ag     1.509210
       4B3u    1.606917     4B1u    1.607968     4B2u    1.607968
       1Au     1.621230     5B3u    1.621230     5B2u    1.652991
       5B1u    1.652991     6B3u    1.858896     6B1u    1.896464
       6B2u    1.896464     9Ag     3.244061

    Final Occupation by Irrep:
             Ag   B1g   B2g   B3g    Au   B1u   B2u   B3u
    DOCC [     3,    0,    0,    0,    0,    2,    2,    1 ]
    SOCC [     0,    0,    0,    0,    0,    0,    0,    0 ]
    NA   [     3,    0,    0,    0,    0,    2,    2,    1 ]
    NB   [     3,    0,    0,    0,    0,    2,    2,    1 ]

  @DF-UKS Final Energy:  -398.07722556984623

   => Energetics <=

    Nuclear Repulsion Energy =              0.0000000000000000
    One-Electron Energy =                -549.2652963533203092
    Two-Electron Energy =                 171.7966616808549816
    DFT Exchange-Correlation Energy =     -20.6085908973809318
    Empirical Dispersion Energy =           0.0000000000000000
    VV10 Nonlocal Energy =                  0.0000000000000000
    Total Energy =                       -398.0772255698462345

  UHF NO Occupations:
  HONO-2 :    2 Ag 2.0000000
  HONO-1 :    3 Ag 2.0000000
  HONO-0 :    2B1u 2.0000000
  LUNO+0 :    4 Ag 0.0000000
  LUNO+1 :    3B2u 0.0000000
  LUNO+2 :    5 Ag 0.0000000
  LUNO+3 :    3B1u 0.0000000

Computation Completed

Properties will be evaluated at   0.000000,   0.000000,   0.000000 [a0]

Properties computed using the SCF density matrix

 Multipole Moments:

 ------------------------------------------------------------------------------------
     Multipole            Electronic (a.u.)      Nuclear  (a.u.)        Total (a.u.)
 ------------------------------------------------------------------------------------

 L = 1.  Multiply by 2.5417464519 to convert [e a0] to [Debye]
 Dipole X            :          0.0000000            0.0000000            0.0000000
 Dipole Y            :          0.0000000            0.0000000            0.0000000
 Dipole Z            :          0.0000000            0.0000000            0.0000000
 Magnitude           :                                                    0.0000000

 ------------------------------------------------------------------------------------

*** tstop() called on Joses-MacBook-Pro-2.local at Sat Jan 25 21:14:47 2025
Module time:
	user time   =       4.28 seconds =       0.07 minutes
	system time =       0.78 seconds =       0.01 minutes
	total time  =          1 seconds =       0.02 minutes
Total time:
	user time   =       4.28 seconds =       0.07 minutes
	system time =       0.78 seconds =       0.01 minutes
	total time  =          1 seconds =       0.02 minutes

    Psi4 stopped on: Saturday, 25 January 2025 09:14PM
    Psi4 wall time for execution: 0:00:00.56

*** Psi4 exiting successfully. Buy a developer a beer!
