                               Psi4 1.9.1 release

  ==> Input File <==

--------------------------------------------------------------------------
molecule {
0 1
Be           0.000000           0.000000           0.000000
}

set {
basis              cc-pvtz
reference          uks
maxiter            500
DAMPING_PERCENTAGE 1
E_CONVERGENCE      1.0E-8
D_CONVERGENCE      1.0E-8
DIIS_MAX_VECS      400
MBIS_MAXITER       8000
guess              SAP
}

energy('b3lyp')
--------------------------------------------------------------------------

    Molecular point group: d2h
    Geometry (in Angstrom), charge = 0, multiplicity = 1:

       Center              X                  Y                   Z               Mass
    ------------   -----------------  -----------------  -----------------  -----------------
         BE           0.000000000000     0.000000000000     0.000000000000     9.012183065000

  Charge       = 0
  Multiplicity = 1
  Basis Set: CC-PVTZ
    Blend: CC-PVTZ
  Basis Set: (CC-PVTZ AUX)
    Blend: DEF2-UNIVERSAL-JKFIT

    Orbital Energies [Eh]
    ---------------------

    Alpha Occupied:

       1Ag    -4.086056     2Ag    -0.232309

    Alpha Virtual:

       1B2u   -0.051349     1B3u   -0.051349     1B1u   -0.051349
       3Ag     0.101566     2B1u    0.135995     2B3u    0.135995
       2B2u    0.135995     1B3g    0.327943     1B2g    0.327943
       4Ag     0.327943     1B1g    0.327943     5Ag     0.327943
       3B3u    0.771994     3B2u    0.771994     3B1u    0.771994
       6Ag     1.162505     2B1g    1.162505     2B3g    1.162505
       2B2g    1.162505     7Ag     1.162505     4B3u    1.183111
       4B1u    1.183111     1Au     1.183111     5B3u    1.183111
       4B2u    1.183111     5B1u    1.183111     5B2u    1.183111
       8Ag     1.225291

    Beta Occupied:

       1Ag    -4.086056     2Ag    -0.232309

    Beta Virtual:

       1B3u   -0.051349     1B2u   -0.051349     1B1u   -0.051349
       3Ag     0.101566     2B1u    0.135995     2B2u    0.135995
       2B3u    0.135995     1B3g    0.327943     4Ag     0.327943
       1B2g    0.327943     1B1g    0.327943     5Ag     0.327943
       3B3u    0.771994     3B2u    0.771994     3B1u    0.771994
       6Ag     1.162505     2B1g    1.162505     2B3g    1.162505
       2B2g    1.162505     7Ag     1.162505     4B3u    1.183111
       4B1u    1.183111     1Au     1.183111     5B3u    1.183111
       4B2u    1.183111     5B2u    1.183111     5B1u    1.183111
       8Ag     1.225291

    Final Occupation by Irrep:
             Ag   B1g   B2g   B3g    Au   B1u   B2u   B3u
    DOCC [     2,    0,    0,    0,    0,    0,    0,    0 ]
    SOCC [     0,    0,    0,    0,    0,    0,    0,    0 ]
    NA   [     2,    0,    0,    0,    0,    0,    0,    0 ]
    NB   [     2,    0,    0,    0,    0,    0,    0,    0 ]

  @DF-UKS Final Energy:   -14.67245208366964

   => Energetics <=

    Nuclear Repulsion Energy =              0.0000000000000000
    One-Electron Energy =                 -19.0900594356594340
    Two-Electron Energy =                   6.6493587944658152
    DFT Exchange-Correlation Energy =      -2.2317514424760199
    Empirical Dispersion Energy =           0.0000000000000000
    VV10 Nonlocal Energy =                  0.0000000000000000
    Total Energy =                        -14.6724520836696382

  UHF NO Occupations:
  HONO-1 :    1 Ag 2.0000000
  HONO-0 :    2 Ag 2.0000000
  LUNO+0 :    3 Ag 0.0000000
  LUNO+1 :    4 Ag 0.0000000
  LUNO+2 :    5 Ag 0.0000000
  LUNO+3 :    6 Ag 0.0000000

Computation Completed

Properties will be evaluated at   0.000000,   0.000000,   0.000000 [a0]

Properties computed using the SCF density matrix

 Multipole Moments:

 ------------------------------------------------------------------------------------
     Multipole            Electronic (a.u.)      Nuclear  (a.u.)        Total (a.u.)
 ------------------------------------------------------------------------------------

 L = 1.  Multiply by 2.5417464519 to convert [e a0] to [Debye]
 Dipole X            :          0.0000000            0.0000000            0.0000000
 Dipole Y            :          0.0000000            0.0000000            0.0000000
 Dipole Z            :          0.0000000            0.0000000            0.0000000
 Magnitude           :                                                    0.0000000

 ------------------------------------------------------------------------------------

*** tstop() called on Joses-MacBook-Pro-2.local at Sat Jan 25 21:13:59 2025
Module time:
	user time   =       1.86 seconds =       0.03 minutes
	system time =       0.66 seconds =       0.01 minutes
	total time  =          0 seconds =       0.00 minutes
Total time:
	user time   =       1.86 seconds =       0.03 minutes
	system time =       0.66 seconds =       0.01 minutes
	total time  =          0 seconds =       0.00 minutes

    Psi4 stopped on: Saturday, 25 January 2025 09:13PM
    Psi4 wall time for execution: 0:00:00.37

*** Psi4 exiting successfully. Buy a developer a beer!
