                               Psi4 1.9.1 release

  ==> Input File <==

--------------------------------------------------------------------------
molecule {
0 3
Ne           0.000000           0.000000           0.000000
}

set {
basis              cc-pvtz
reference          uks
maxiter            500
DAMPING_PERCENTAGE 1
E_CONVERGENCE      1.0E-8
D_CONVERGENCE      1.0E-8
DIIS_MAX_VECS      400
MBIS_MAXITER       8000
guess              SAP
}

energy('b3lyp')
--------------------------------------------------------------------------

    Molecular point group: d2h
    Geometry (in Angstrom), charge = 0, multiplicity = 3:

       Center              X                  Y                   Z               Mass
    ------------   -----------------  -----------------  -----------------  -----------------
         NE           0.000000000000     0.000000000000     0.000000000000    19.992440176200

  Charge       = 0
  Multiplicity = 3
  Basis Set: CC-PVTZ
    Blend: CC-PVTZ
  Basis Set: (CC-PVTZ AUX)
    Blend: CC-PVTZ-JKFIT

    Orbital Energies [Eh]
    ---------------------

    Alpha Occupied:

       1Ag   -31.253155     2Ag    -1.699222     1B2u   -0.885030
       1B1u   -0.774025     1B3u   -0.774025     2B2u    0.603323

    Alpha Virtual:

       2B1u    0.750070     2B3u    0.750070     3Ag     0.977427
       4Ag     2.283476     1B3g    2.292298     1B1g    2.292298
       1B2g    2.328323     5Ag     2.328323     3B2u    5.225886
       3B1u    5.316212     3B3u    5.316212     4B2u    8.777379
       4B1u    8.785937     4B3u    8.785937     5B2u    8.810845
       1Au     8.810845     5B1u    8.855012     5B3u    8.855012
       6Ag    10.183261     2B3g   10.212704     2B1g   10.212704
       2B2g   10.301331     7Ag    10.301331     8Ag    10.719548

    Beta Occupied:

       1Ag   -31.200775     2Ag    -1.577291     1B1u   -0.728052
       1B3u   -0.728052

    Beta Virtual:

       1B2u   -0.479046     2B1u    0.784269     2B3u    0.784269
       2B2u    0.853120     3Ag     1.063831     1B2g    2.337758
       4Ag     2.337758     1B3g    2.370130     1B1g    2.370130
       5Ag     2.388876     3B1u    5.353757     3B3u    5.353757
       3B2u    5.437989     4B1u    8.860969     4B3u    8.860969
       1Au     8.877623     4B2u    8.877623     5B1u    8.895721
       5B3u    8.895721     5B2u    8.909287     2B2g   10.326233
       6Ag    10.326233     2B3g   10.378495     2B1g   10.378495
       7Ag    10.419446     8Ag    10.810543

    Final Occupation by Irrep:
             Ag   B1g   B2g   B3g    Au   B1u   B2u   B3u
    DOCC [     2,    0,    0,    0,    0,    1,    0,    1 ]
    SOCC [     0,    0,    0,    0,    0,    0,    2,    0 ]
    NA   [     2,    0,    0,    0,    0,    1,    2,    1 ]
    NB   [     2,    0,    0,    0,    0,    1,    0,    1 ]

  @DF-UKS Final Energy:  -127.71523588035102

   => Energetics <=

    Nuclear Repulsion Energy =              0.0000000000000000
    One-Electron Energy =                -179.2629741354456883
    Two-Electron Energy =                  61.5289748698430330
    DFT Exchange-Correlation Energy =      -9.9812366147483633
    Empirical Dispersion Energy =           0.0000000000000000
    VV10 Nonlocal Energy =                  0.0000000000000000
    Total Energy =                       -127.7152358803510168

  UHF NO Occupations:
  HONO-2 :    2 Ag 1.9995569
  HONO-1 :    1B2u 1.0000000
  HONO-0 :    2B2u 1.0000000
  LUNO+0 :    3 Ag 0.0004431
  LUNO+1 :    2B1u 0.0000687
  LUNO+2 :    2B3u 0.0000687
  LUNO+3 :    4 Ag 0.0000008

Computation Completed

Properties will be evaluated at   0.000000,   0.000000,   0.000000 [a0]

Properties computed using the SCF density matrix

 Multipole Moments:

 ------------------------------------------------------------------------------------
     Multipole            Electronic (a.u.)      Nuclear  (a.u.)        Total (a.u.)
 ------------------------------------------------------------------------------------

 L = 1.  Multiply by 2.5417464519 to convert [e a0] to [Debye]
 Dipole X            :          0.0000000            0.0000000            0.0000000
 Dipole Y            :          0.0000000            0.0000000            0.0000000
 Dipole Z            :          0.0000000            0.0000000            0.0000000
 Magnitude           :                                                    0.0000000

 ------------------------------------------------------------------------------------

*** tstop() called on Joses-MacBook-Pro-2.local at Sat Jan 25 21:14:23 2025
Module time:
	user time   =       2.27 seconds =       0.04 minutes
	system time =       1.95 seconds =       0.03 minutes
	total time  =          1 seconds =       0.02 minutes
Total time:
	user time   =       2.27 seconds =       0.04 minutes
	system time =       1.95 seconds =       0.03 minutes
	total time  =          1 seconds =       0.02 minutes

    Psi4 stopped on: Saturday, 25 January 2025 09:14PM
    Psi4 wall time for execution: 0:00:00.44

*** Psi4 exiting successfully. Buy a developer a beer!
