                               Psi4 1.9.1 release

  ==> Input File <==

--------------------------------------------------------------------------
molecule {
0 3
C           0.000000           0.000000           0.000000
}

set {
basis              cc-pvtz
reference          uks
maxiter            500
DAMPING_PERCENTAGE 1
E_CONVERGENCE      1.0E-8
D_CONVERGENCE      1.0E-8
DIIS_MAX_VECS      400
MBIS_MAXITER       8000
guess              SAP
}

energy('b3lyp')
--------------------------------------------------------------------------

    Molecular point group: d2h
    Geometry (in Angstrom), charge = 0, multiplicity = 3:

       Center              X                  Y                   Z               Mass
    ------------   -----------------  -----------------  -----------------  -----------------
         C            0.000000000000     0.000000000000     0.000000000000    12.000000000000

  Charge       = 0
  Multiplicity = 3
  Basis Set: CC-PVTZ
    Blend: CC-PVTZ
  Basis Set: (CC-PVTZ AUX)
    Blend: CC-PVTZ-JKFIT

    Orbital Energies [Eh]
    ---------------------

    Alpha Occupied:

       1Ag   -10.307186     2Ag    -0.587865     1B1u   -0.266759
       1B3u   -0.266759

    Alpha Virtual:

       1B2u   -0.154034     2B3u    0.290177     2B1u    0.290177
       2B2u    0.308635     3Ag     0.343344     1B2g    0.650374
       4Ag     0.650374     1B1g    0.653978     1B3g    0.653978
       5Ag     0.662490     3B3u    1.902053     3B1u    1.902053
       3B2u    1.928365     1Au     2.631511     4B2u    2.631511
       4B1u    2.634290     4B3u    2.634290     5B1u    2.636465
       5B3u    2.636465     5B2u    2.642682     2B2g    2.877373
       6Ag     2.877373     2B1g    2.888680     2B3g    2.888680
       7Ag     2.908012     8Ag     3.690174

    Beta Occupied:

       1Ag   -10.278127     2Ag    -0.478718

    Beta Virtual:

       1B2u   -0.125069     1B1u   -0.078209     1B3u   -0.078209
       2B2u    0.321160     2B3u    0.350064     2B1u    0.350064
       3Ag     0.387256     4Ag     0.689940     1B1g    0.698890
       1B3g    0.698890     1B2g    0.725716     5Ag     0.725716
       3B2u    1.947309     3B3u    1.991368     3B1u    1.991368
       4B2u    2.681646     4B1u    2.688392     4B3u    2.688392
       1Au     2.706507     5B2u    2.706507     5B1u    2.736759
       5B3u    2.736759     6Ag     2.952187     2B1g    2.966846
       2B3g    2.966846     2B2g    3.010069     7Ag     3.010069
       8Ag     3.746390

    Final Occupation by Irrep:
             Ag   B1g   B2g   B3g    Au   B1u   B2u   B3u
    DOCC [     2,    0,    0,    0,    0,    0,    0,    0 ]
    SOCC [     0,    0,    0,    0,    0,    1,    0,    1 ]
    NA   [     2,    0,    0,    0,    0,    1,    0,    1 ]
    NB   [     2,    0,    0,    0,    0,    0,    0,    0 ]

  @DF-UKS Final Energy:   -37.85857627562391

   => Energetics <=

    Nuclear Repulsion Energy =              0.0000000000000000
    One-Electron Energy =                 -50.4846596615049990
    Two-Electron Energy =                  16.8458095924214604
    DFT Exchange-Correlation Energy =      -4.2197262065403738
    Empirical Dispersion Energy =           0.0000000000000000
    VV10 Nonlocal Energy =                  0.0000000000000000
    Total Energy =                        -37.8585762756239106

  UHF NO Occupations:
  HONO-2 :    2 Ag 1.9983551
  HONO-1 :    1B3u 1.0000000
  HONO-0 :    1B1u 1.0000000
  LUNO+0 :    3 Ag 0.0016449
  LUNO+1 :    4 Ag 0.0000014
  LUNO+2 :    5 Ag 0.0000000
  LUNO+3 :    2B1u 0.0000000

Computation Completed

Properties will be evaluated at   0.000000,   0.000000,   0.000000 [a0]

Properties computed using the SCF density matrix

 Multipole Moments:

 ------------------------------------------------------------------------------------
     Multipole            Electronic (a.u.)      Nuclear  (a.u.)        Total (a.u.)
 ------------------------------------------------------------------------------------

 L = 1.  Multiply by 2.5417464519 to convert [e a0] to [Debye]
 Dipole X            :          0.0000000            0.0000000            0.0000000
 Dipole Y            :          0.0000000            0.0000000            0.0000000
 Dipole Z            :          0.0000000            0.0000000            0.0000000
 Magnitude           :                                                    0.0000000

 ------------------------------------------------------------------------------------

*** tstop() called on Joses-MacBook-Pro-2.local at Sat Jan 25 21:14:08 2025
Module time:
	user time   =       2.69 seconds =       0.04 minutes
	system time =       1.49 seconds =       0.02 minutes
	total time  =          1 seconds =       0.02 minutes
Total time:
	user time   =       2.69 seconds =       0.04 minutes
	system time =       1.49 seconds =       0.02 minutes
	total time  =          1 seconds =       0.02 minutes

    Psi4 stopped on: Saturday, 25 January 2025 09:14PM
    Psi4 wall time for execution: 0:00:00.44

*** Psi4 exiting successfully. Buy a developer a beer!
