                               Psi4 1.9.1 release

  ==> Input File <==

--------------------------------------------------------------------------
molecule {
0 3
Ar           0.000000           0.000000           0.000000
}

set {
basis              cc-pvtz
reference          uks
maxiter            500
DAMPING_PERCENTAGE 1
E_CONVERGENCE      1.0E-8
D_CONVERGENCE      1.0E-8
DIIS_MAX_VECS      400
MBIS_MAXITER       8000
guess              SAP
}

energy('b3lyp')
--------------------------------------------------------------------------

    Molecular point group: d2h
    Geometry (in Angstrom), charge = 0, multiplicity = 3:

       Center              X                  Y                   Z               Mass
    ------------   -----------------  -----------------  -----------------  -----------------
         AR           0.000000000000     0.000000000000     0.000000000000    39.962383123700

  Charge       = 0
  Multiplicity = 3
  Basis Set: CC-PVTZ
    Blend: CC-PVTZ
  Basis Set: (CC-PVTZ AUX)
    Blend: CC-PVTZ-JKFIT

    Orbital Energies [Eh]
    ---------------------

    Alpha Occupied:

       1Ag  -115.280945     2Ag   -11.300693     1B3u   -8.874355
       1B2u   -8.846166     1B1u   -8.843889     3Ag    -1.120683
       2B3u   -0.606738     2B2u   -0.542498     2B1u   -0.538076
       3B1u    0.260410

    Alpha Virtual:

       3B3u    0.301370     3B2u    0.325725     4Ag     0.359022
       1B1g    0.368136     1B2g    0.378691     5Ag     0.408918
       1B3g    0.420462     6Ag     0.423528     7Ag     2.002387
       2B1g    2.014144     2B2g    2.015674     2B3g    2.056000
       8Ag     2.057101     4B3u    2.350067     4B2u    2.386061
       5B3u    2.387489     4B1u    2.393092     5B2u    2.404845
       5B1u    2.414787     1Au     2.419663     6B3u    2.422565
       6B2u    2.463855     6B1u    2.464168     9Ag     4.799013

    Beta Occupied:

       1Ag  -115.269316     2Ag   -11.289518     1B3u   -8.845226
       1B2u   -8.839569     1B1u   -8.828933     3Ag    -1.047732
       2B2u   -0.520745     2B1u   -0.494296

    Beta Virtual:

       2B3u   -0.412944     3B2u    0.341715     3B3u    0.344731
       3B1u    0.368037     1B1g    0.423261     4Ag     0.425852
       1B3g    0.435998     5Ag     0.440011     1B2g    0.441665
       6Ag     0.460996     2B1g    2.059461     7Ag     2.062828
       2B2g    2.076883     2B3g    2.079822     8Ag     2.087014
       4B2u    2.415684     4B3u    2.418298     4B1u    2.437958
       5B2u    2.452424     5B3u    2.453134     1Au     2.463030
       5B1u    2.465972     6B2u    2.474406     6B3u    2.476230
       6B1u    2.478576     9Ag     4.830322

    Final Occupation by Irrep:
             Ag   B1g   B2g   B3g    Au   B1u   B2u   B3u
    DOCC [     3,    0,    0,    0,    0,    2,    2,    1 ]
    SOCC [     0,    0,    0,    0,    0,    1,    0,    1 ]
    NA   [     3,    0,    0,    0,    0,    3,    2,    2 ]
    NB   [     3,    0,    0,    0,    0,    2,    2,    1 ]

  @DF-UKS Final Energy:  -526.81658701056608

   => Energetics <=

    Nuclear Repulsion Energy =              0.0000000000000000
    One-Electron Energy =                -725.2095725839465103
    Two-Electron Energy =                 223.1698904872847606
    DFT Exchange-Correlation Energy =     -24.7769049139042821
    Empirical Dispersion Energy =           0.0000000000000000
    VV10 Nonlocal Energy =                  0.0000000000000000
    Total Energy =                       -526.8165870105660815

  UHF NO Occupations:
  HONO-2 :    3 Ag 1.9990187
  HONO-1 :    3B1u 1.0000000
  HONO-0 :    2B3u 1.0000000
  LUNO+0 :    4 Ag 0.0009813
  LUNO+1 :    3B2u 0.0000970
  LUNO+2 :    4B1u 0.0000913
  LUNO+3 :    3B3u 0.0000002

Computation Completed

Properties will be evaluated at   0.000000,   0.000000,   0.000000 [a0]

Properties computed using the SCF density matrix

 Multipole Moments:

 ------------------------------------------------------------------------------------
     Multipole            Electronic (a.u.)      Nuclear  (a.u.)        Total (a.u.)
 ------------------------------------------------------------------------------------

 L = 1.  Multiply by 2.5417464519 to convert [e a0] to [Debye]
 Dipole X            :          0.0000000            0.0000000            0.0000000
 Dipole Y            :          0.0000000            0.0000000            0.0000000
 Dipole Z            :          0.0000000            0.0000000            0.0000000
 Magnitude           :                                                    0.0000000

 ------------------------------------------------------------------------------------

*** tstop() called on Joses-MacBook-Pro-2.local at Sat Jan 25 21:14:56 2025
Module time:
	user time   =       3.64 seconds =       0.06 minutes
	system time =       1.39 seconds =       0.02 minutes
	total time  =          0 seconds =       0.00 minutes
Total time:
	user time   =       3.64 seconds =       0.06 minutes
	system time =       1.39 seconds =       0.02 minutes
	total time  =          0 seconds =       0.00 minutes

    Psi4 stopped on: Saturday, 25 January 2025 09:14PM
    Psi4 wall time for execution: 0:00:00.55

*** Psi4 exiting successfully. Buy a developer a beer!
