                               Psi4 1.9.1 release

  ==> Input File <==

--------------------------------------------------------------------------
molecule {
0 3
Be           0.000000           0.000000           0.000000
}

set {
basis              cc-pvtz
reference          uks
maxiter            500
DAMPING_PERCENTAGE 1
E_CONVERGENCE      1.0E-8
D_CONVERGENCE      1.0E-8
DIIS_MAX_VECS      400
MBIS_MAXITER       8000
guess              SAP
}

energy('b3lyp')
--------------------------------------------------------------------------

    Molecular point group: d2h
    Geometry (in Angstrom), charge = 0, multiplicity = 3:

       Center              X                  Y                   Z               Mass
    ------------   -----------------  -----------------  -----------------  -----------------
         BE           0.000000000000     0.000000000000     0.000000000000     9.012183065000

  Charge       = 0
  Multiplicity = 3
  Basis Set: CC-PVTZ
    Blend: CC-PVTZ
  Basis Set: (CC-PVTZ AUX)
    Blend: DEF2-UNIVERSAL-JKFIT

    Orbital Energies [Eh]
    ---------------------

    Alpha Occupied:

       1Ag    -4.114995     2Ag    -0.269833     1B1u   -0.139388

    Alpha Virtual:

       1B2u   -0.067787     1B3u   -0.067787     3Ag     0.089931
       2B1u    0.111176     2B2u    0.126914     2B3u    0.126914
       1B3g    0.301444     1B2g    0.301444     4Ag     0.306513
       5Ag     0.315399     1B1g    0.315399     3B1u    0.741826
       3B3u    0.760820     3B2u    0.760820     2B3g    1.124957
       2B2g    1.124957     6Ag     1.130986     7Ag     1.143322
       2B1g    1.143322     1Au     1.152045     4B1u    1.152045
       5B1u    1.154422     4B2u    1.156088     4B3u    1.156088
       5B3u    1.164621     5B2u    1.164621     8Ag     1.207913

    Beta Occupied:

       1Ag    -4.094219

    Beta Virtual:

       2Ag    -0.127532     1B3u   -0.018934     1B2u   -0.018934
       1B1u    0.005576     3Ag     0.129104     2B3u    0.158457
       2B2u    0.158457     2B1u    0.178608     1B1g    0.348724
       4Ag     0.359631     1B2g    0.366558     1B3g    0.366558
       5Ag     0.393203     3B3u    0.774770     3B2u    0.774770
       3B1u    0.803470     2B1g    1.184366     6Ag     1.186344
       2B2g    1.215428     2B3g    1.215428     7Ag     1.218687
       4B2u    1.220663     4B3u    1.220663     1Au     1.233495
       4B1u    1.243799     8Ag     1.245383     5B2u    1.256448
       5B3u    1.256448     5B1u    1.259474

    Final Occupation by Irrep:
             Ag   B1g   B2g   B3g    Au   B1u   B2u   B3u
    DOCC [     1,    0,    0,    0,    0,    0,    0,    0 ]
    SOCC [     1,    0,    0,    0,    0,    1,    0,    0 ]
    NA   [     2,    0,    0,    0,    0,    1,    0,    0 ]
    NB   [     1,    0,    0,    0,    0,    0,    0,    0 ]

  @DF-UKS Final Energy:   -14.58187150948223

   => Energetics <=

    Nuclear Repulsion Energy =              0.0000000000000000
    One-Electron Energy =                 -18.9173967932821583
    Two-Electron Energy =                   6.5855983511880698
    DFT Exchange-Correlation Energy =      -2.2500730673881426
    Empirical Dispersion Energy =           0.0000000000000000
    VV10 Nonlocal Energy =                  0.0000000000000000
    Total Energy =                        -14.5818715094822302

  UHF NO Occupations:
  HONO-2 :    1 Ag 1.9999978
  HONO-1 :    1B1u 1.0000000
  HONO-0 :    2 Ag 1.0000000
  LUNO+0 :    3 Ag 0.0000022
  LUNO+1 :    4 Ag 0.0000000
  LUNO+2 :    5 Ag 0.0000000
  LUNO+3 :    6 Ag 0.0000000

Computation Completed

Properties will be evaluated at   0.000000,   0.000000,   0.000000 [a0]

Properties computed using the SCF density matrix

 Multipole Moments:

 ------------------------------------------------------------------------------------
     Multipole            Electronic (a.u.)      Nuclear  (a.u.)        Total (a.u.)
 ------------------------------------------------------------------------------------

 L = 1.  Multiply by 2.5417464519 to convert [e a0] to [Debye]
 Dipole X            :          0.0000000            0.0000000            0.0000000
 Dipole Y            :          0.0000000            0.0000000            0.0000000
 Dipole Z            :          0.0000000            0.0000000            0.0000000
 Magnitude           :                                                    0.0000000

 ------------------------------------------------------------------------------------

*** tstop() called on Joses-MacBook-Pro-2.local at Sat Jan 25 21:14:00 2025
Module time:
	user time   =       0.76 seconds =       0.01 minutes
	system time =       1.79 seconds =       0.03 minutes
	total time  =          0 seconds =       0.00 minutes
Total time:
	user time   =       0.76 seconds =       0.01 minutes
	system time =       1.79 seconds =       0.03 minutes
	total time  =          0 seconds =       0.00 minutes

    Psi4 stopped on: Saturday, 25 January 2025 09:14PM
    Psi4 wall time for execution: 0:00:00.37

*** Psi4 exiting successfully. Buy a developer a beer!
