                               Psi4 1.9.1 release

  ==> Input File <==

--------------------------------------------------------------------------
molecule {
0 3
S           0.000000           0.000000           0.000000
}

set {
basis              cc-pvtz
reference          uks
maxiter            500
DAMPING_PERCENTAGE 1
E_CONVERGENCE      1.0E-8
D_CONVERGENCE      1.0E-8
DIIS_MAX_VECS      400
MBIS_MAXITER       8000
guess              SAP
}

energy('b3lyp')
--------------------------------------------------------------------------

    Molecular point group: d2h
    Geometry (in Angstrom), charge = 0, multiplicity = 3:

       Center              X                  Y                   Z               Mass
    ------------   -----------------  -----------------  -----------------  -----------------
         S            0.000000000000     0.000000000000     0.000000000000    31.972071174400

  Charge       = 0
  Multiplicity = 3
  Basis Set: CC-PVTZ
    Blend: CC-PVTZ
  Basis Set: (CC-PVTZ AUX)
    Blend: CC-PVTZ-JKFIT

    Orbital Energies [Eh]
    ---------------------

    Alpha Occupied:

       1Ag   -88.948265     2Ag    -7.995604     1B2u   -5.965181
       1B3u   -5.965181     1B1u   -5.946051     3Ag    -0.725434
       2B3u   -0.334827     2B2u   -0.334827     2B1u   -0.287406

    Alpha Virtual:

       3B2u    0.267267     3B3u    0.267267     3B1u    0.288478
       4Ag     0.301282     1B1g    0.301282     5Ag     0.305769
       1B2g    0.332368     1B3g    0.332368     6Ag     0.344186
       7Ag     1.450806     2B1g    1.450806     2B2g    1.482082
       2B3g    1.482082     8Ag     1.493304     4B2u    1.572551
       4B3u    1.572551     1Au     1.600972     4B1u    1.600972
       5B3u    1.618225     5B2u    1.618225     5B1u    1.624340
       6B2u    1.860051     6B3u    1.860051     6B1u    1.897767
       9Ag     3.239015

    Beta Occupied:

       1Ag   -88.937345     2Ag    -7.984660     1B2u   -5.943547
       1B3u   -5.943547     1B1u   -5.939707     3Ag    -0.632521
       2B1u   -0.262627

    Beta Virtual:

       2B2u   -0.177240     2B3u   -0.177240     3B1u    0.296251
       3B3u    0.304672     3B2u    0.304672     4Ag     0.336772
       1B2g    0.376802     1B3g    0.376802     5Ag     0.378915
       1B1g    0.388732     6Ag     0.388732     2B2g    1.519841
       2B3g    1.519841     7Ag     1.522463     2B1g    1.524255
       8Ag     1.524255     1Au     1.660732     4B1u    1.660732
       5B1u    1.661997     4B3u    1.662741     4B2u    1.662741
       5B2u    1.668442     5B3u    1.668442     6B1u    1.911267
       6B2u    1.913736     6B3u    1.913736     9Ag     3.269603

    Final Occupation by Irrep:
             Ag   B1g   B2g   B3g    Au   B1u   B2u   B3u
    DOCC [     3,    0,    0,    0,    0,    2,    1,    1 ]
    SOCC [     0,    0,    0,    0,    0,    0,    1,    1 ]
    NA   [     3,    0,    0,    0,    0,    2,    2,    2 ]
    NB   [     3,    0,    0,    0,    0,    2,    1,    1 ]

  @DF-UKS Final Energy:  -398.13869508470418

   => Energetics <=

    Nuclear Repulsion Energy =              0.0000000000000000
    One-Electron Energy =                -549.4542930351617542
    Two-Electron Energy =                 171.9473740431432986
    DFT Exchange-Correlation Energy =     -20.6317760926857794
    Empirical Dispersion Energy =           0.0000000000000000
    VV10 Nonlocal Energy =                  0.0000000000000000
    Total Energy =                       -398.1386950847041817

  UHF NO Occupations:
  HONO-2 :    3 Ag 1.9985534
  HONO-1 :    2B2u 1.0000000
  HONO-0 :    2B3u 1.0000000
  LUNO+0 :    4 Ag 0.0014466
  LUNO+1 :    3B1u 0.0003731
  LUNO+2 :    3B3u 0.0000002
  LUNO+3 :    3B2u 0.0000002

Computation Completed

Properties will be evaluated at   0.000000,   0.000000,   0.000000 [a0]

Properties computed using the SCF density matrix

 Multipole Moments:

 ------------------------------------------------------------------------------------
     Multipole            Electronic (a.u.)      Nuclear  (a.u.)        Total (a.u.)
 ------------------------------------------------------------------------------------

 L = 1.  Multiply by 2.5417464519 to convert [e a0] to [Debye]
 Dipole X            :          0.0000000            0.0000000            0.0000000
 Dipole Y            :          0.0000000            0.0000000            0.0000000
 Dipole Z            :          0.0000000            0.0000000            0.0000000
 Magnitude           :                                                    0.0000000

 ------------------------------------------------------------------------------------

*** tstop() called on Joses-MacBook-Pro-2.local at Sat Jan 25 21:14:48 2025
Module time:
	user time   =       4.82 seconds =       0.08 minutes
	system time =       1.10 seconds =       0.02 minutes
	total time  =          0 seconds =       0.00 minutes
Total time:
	user time   =       4.82 seconds =       0.08 minutes
	system time =       1.10 seconds =       0.02 minutes
	total time  =          0 seconds =       0.00 minutes

    Psi4 stopped on: Saturday, 25 January 2025 09:14PM
    Psi4 wall time for execution: 0:00:00.64

*** Psi4 exiting successfully. Buy a developer a beer!
