                               Psi4 1.9.1 release

  ==> Input File <==

--------------------------------------------------------------------------
molecule {
0 3
Si           0.000000           0.000000           0.000000
}

set {
basis              cc-pvtz
reference          uks
maxiter            500
DAMPING_PERCENTAGE 1
E_CONVERGENCE      1.0E-8
D_CONVERGENCE      1.0E-8
DIIS_MAX_VECS      400
MBIS_MAXITER       8000
guess              SAP
}

energy('b3lyp')
--------------------------------------------------------------------------

    Molecular point group: d2h
    Geometry (in Angstrom), charge = 0, multiplicity = 3:

       Center              X                  Y                   Z               Mass
    ------------   -----------------  -----------------  -----------------  -----------------
         SI           0.000000000000     0.000000000000     0.000000000000    27.976926534650

  Charge       = 0
  Multiplicity = 3
  Basis Set: CC-PVTZ
    Blend: CC-PVTZ
  Basis Set: (CC-PVTZ AUX)
    Blend: CC-PVTZ-JKFIT

    Orbital Energies [Eh]
    ---------------------

    Alpha Occupied:

       1Ag   -66.178444     2Ag    -5.313773     1B3u   -3.675609
       1B1u   -3.672002     1B2u   -3.672002     3Ag    -0.454137
       2B2u   -0.192416     2B1u   -0.192416

    Alpha Virtual:

       2B3u   -0.126948     4Ag     0.169821     1B3g    0.197611
       5Ag     0.197611     1B1g    0.202121     1B2g    0.202121
       6Ag     0.209782     3B1u    0.239608     3B2u    0.239608
       3B3u    0.247367     2B3g    0.943763     7Ag     0.943763
       2B1g    0.943919     2B2g    0.943919     8Ag     0.948423
       1Au     0.980890     4B3u    0.980890     4B1u    0.982070
       4B2u    0.982070     5B1u    0.984606     5B2u    0.984606
       5B3u    0.988359     9Ag     1.907106     6B3u    2.068883
       6B2u    2.071711     6B1u    2.071711

    Beta Occupied:

       1Ag   -66.172084     2Ag    -5.306994     1B3u   -3.672156
       1B1u   -3.658503     1B2u   -3.658503     3Ag    -0.389964

    Beta Virtual:

       2B3u   -0.110853     2B2u   -0.078706     2B1u   -0.078706
       4Ag     0.191144     5Ag     0.232108     1B1g    0.237906
       1B2g    0.237906     3B3u    0.253702     1B3g    0.259494
       6Ag     0.259494     3B1u    0.276529     3B2u    0.276529
       7Ag     0.964341     2B1g    0.971862     2B2g    0.971862
       2B3g    0.996300     8Ag     0.996300     4B3u    1.014049
       4B1u    1.018487     4B2u    1.018487     1Au     1.030526
       5B3u    1.030526     5B1u    1.051367     5B2u    1.051367
       9Ag     1.927940     6B3u    2.074607     6B2u    2.101398
       6B1u    2.101398

    Final Occupation by Irrep:
             Ag   B1g   B2g   B3g    Au   B1u   B2u   B3u
    DOCC [     3,    0,    0,    0,    0,    1,    1,    1 ]
    SOCC [     0,    0,    0,    0,    0,    1,    1,    0 ]
    NA   [     3,    0,    0,    0,    0,    2,    2,    1 ]
    NB   [     3,    0,    0,    0,    0,    1,    1,    1 ]

  @DF-UKS Final Energy:  -289.39633555190403

   => Energetics <=

    Nuclear Repulsion Energy =              0.0000000000000000
    One-Electron Energy =                -400.6346025862599163
    Two-Electron Energy =                 128.0024399093919385
    DFT Exchange-Correlation Energy =     -16.7641728750361096
    Empirical Dispersion Energy =           0.0000000000000000
    VV10 Nonlocal Energy =                  0.0000000000000000
    Total Energy =                       -289.3963355519041443

  UHF NO Occupations:
  HONO-2 :    3 Ag 1.9980549
  HONO-1 :    2B2u 1.0000000
  HONO-0 :    2B1u 1.0000000
  LUNO+0 :    4 Ag 0.0019451
  LUNO+1 :    3B1u 0.0000007
  LUNO+2 :    3B2u 0.0000007
  LUNO+3 :    2B3u 0.0000003

Computation Completed

Properties will be evaluated at   0.000000,   0.000000,   0.000000 [a0]

Properties computed using the SCF density matrix

 Multipole Moments:

 ------------------------------------------------------------------------------------
     Multipole            Electronic (a.u.)      Nuclear  (a.u.)        Total (a.u.)
 ------------------------------------------------------------------------------------

 L = 1.  Multiply by 2.5417464519 to convert [e a0] to [Debye]
 Dipole X            :          0.0000000            0.0000000            0.0000000
 Dipole Y            :          0.0000000            0.0000000            0.0000000
 Dipole Z            :          0.0000000            0.0000000            0.0000000
 Magnitude           :                                                    0.0000000

 ------------------------------------------------------------------------------------

*** tstop() called on Joses-MacBook-Pro-2.local at Sat Jan 25 21:14:40 2025
Module time:
	user time   =       3.44 seconds =       0.06 minutes
	system time =       1.01 seconds =       0.02 minutes
	total time  =          1 seconds =       0.02 minutes
Total time:
	user time   =       3.44 seconds =       0.06 minutes
	system time =       1.01 seconds =       0.02 minutes
	total time  =          1 seconds =       0.02 minutes

    Psi4 stopped on: Saturday, 25 January 2025 09:14PM
    Psi4 wall time for execution: 0:00:00.50

*** Psi4 exiting successfully. Buy a developer a beer!
