                               Psi4 1.9.1 release

  ==> Input File <==

--------------------------------------------------------------------------
molecule {
1 2
Ne           0.000000           0.000000           0.000000
}

set {
basis              cc-pvtz
reference          uks
maxiter            500
DAMPING_PERCENTAGE 1
E_CONVERGENCE      1.0E-8
D_CONVERGENCE      1.0E-8
DIIS_MAX_VECS      400
MBIS_MAXITER       8000
guess              SAP
}

energy('b3lyp')
--------------------------------------------------------------------------

    Molecular point group: d2h
    Geometry (in Angstrom), charge = 1, multiplicity = 2:

       Center              X                  Y                   Z               Mass
    ------------   -----------------  -----------------  -----------------  -----------------
         NE           0.000000000000     0.000000000000     0.000000000000    19.992440176200

  Charge       = 1
  Multiplicity = 2
  Basis Set: CC-PVTZ
    Blend: CC-PVTZ
  Basis Set: (CC-PVTZ AUX)
    Blend: CC-PVTZ-JKFIT

    Orbital Energies [Eh]
    ---------------------

    Alpha Occupied:

       1Ag   -31.825938     2Ag    -2.215385     1B2u   -1.393680
       1B3u   -1.283004     1B1u   -1.283004

    Alpha Virtual:

       2B2u    0.311347     2B1u    0.350584     2B3u    0.350584
       3Ag     0.558691     4Ag     1.776418     1B3g    1.794116
       1B1g    1.794116     5Ag     1.850175     1B2g    1.850175
       3B2u    4.720813     3B1u    4.810717     3B3u    4.810717
       4B2u    8.242868     4B1u    8.255125     4B3u    8.255125
       5B2u    8.291076     1Au     8.291076     5B1u    8.352283
       5B3u    8.352283     6Ag     9.660849     2B1g    9.692329
       2B3g    9.692329     7Ag     9.781455     2B2g    9.781455
       8Ag    10.213035

    Beta Occupied:

       1Ag   -31.785620     2Ag    -2.107080     1B1u   -1.244167
       1B3u   -1.244167

    Beta Virtual:

       1B2u   -1.027944     2B1u    0.360913     2B3u    0.360913
       2B2u    0.382973     3Ag     0.596755     1B2g    1.859114
       4Ag     1.859114     1B3g    1.864605     1B1g    1.864605
       5Ag     1.876411     3B1u    4.840366     3B3u    4.840366
       3B2u    4.887442     1Au     8.353282     4B2u    8.353283
       4B1u    8.358656     4B3u    8.358656     5B1u    8.359349
       5B3u    8.359349     5B2u    8.369298     2B2g    9.801102
       6Ag     9.801102     2B1g    9.823083     2B3g    9.823083
       7Ag     9.856873     8Ag    10.279514

    Final Occupation by Irrep:
             Ag   B1g   B2g   B3g    Au   B1u   B2u   B3u
    DOCC [     2,    0,    0,    0,    0,    1,    0,    1 ]
    SOCC [     0,    0,    0,    0,    0,    0,    1,    0 ]
    NA   [     2,    0,    0,    0,    0,    1,    1,    1 ]
    NB   [     2,    0,    0,    0,    0,    1,    0,    1 ]

  @DF-UKS Final Energy:  -128.16744507279878

   => Energetics <=

    Nuclear Repulsion Energy =              0.0000000000000000
    One-Electron Energy =                -175.0289515738521686
    Two-Electron Energy =                  56.5241128290306349
    DFT Exchange-Correlation Energy =      -9.6626063279772723
    Empirical Dispersion Energy =           0.0000000000000000
    VV10 Nonlocal Energy =                  0.0000000000000000
    Total Energy =                       -128.1674450727988130

  UHF NO Occupations:
  HONO-2 :    1B3u 1.9999298
  HONO-1 :    2 Ag 1.9996365
  HONO-0 :    1B2u 1.0000000
  LUNO+0 :    3 Ag 0.0003635
  LUNO+1 :    2B1u 0.0000702
  LUNO+2 :    2B3u 0.0000702
  LUNO+3 :    4 Ag 0.0000005

Computation Completed

Properties will be evaluated at   0.000000,   0.000000,   0.000000 [a0]

Properties computed using the SCF density matrix

 Multipole Moments:

 ------------------------------------------------------------------------------------
     Multipole            Electronic (a.u.)      Nuclear  (a.u.)        Total (a.u.)
 ------------------------------------------------------------------------------------

 L = 1.  Multiply by 2.5417464519 to convert [e a0] to [Debye]
 Dipole X            :          0.0000000            0.0000000            0.0000000
 Dipole Y            :          0.0000000            0.0000000            0.0000000
 Dipole Z            :          0.0000000            0.0000000            0.0000000
 Magnitude           :                                                    0.0000000

 ------------------------------------------------------------------------------------

*** tstop() called on Joses-MacBook-Pro-2.local at Sat Jan 25 21:32:37 2025
Module time:
	user time   =       1.54 seconds =       0.03 minutes
	system time =       3.06 seconds =       0.05 minutes
	total time  =          1 seconds =       0.02 minutes
Total time:
	user time   =       1.54 seconds =       0.03 minutes
	system time =       3.06 seconds =       0.05 minutes
	total time  =          1 seconds =       0.02 minutes

    Psi4 stopped on: Saturday, 25 January 2025 09:32PM
    Psi4 wall time for execution: 0:00:00.48

*** Psi4 exiting successfully. Buy a developer a beer!
