                               Psi4 1.9.1 release

  ==> Input File <==

--------------------------------------------------------------------------
molecule {
1 2
S           0.000000           0.000000           0.000000
}

set {
basis              cc-pvtz
reference          uks
maxiter            500
DAMPING_PERCENTAGE 1
E_CONVERGENCE      1.0E-8
D_CONVERGENCE      1.0E-8
DIIS_MAX_VECS      400
MBIS_MAXITER       8000
guess              SAP
}

energy('b3lyp')
--------------------------------------------------------------------------

    Molecular point group: d2h
    Geometry (in Angstrom), charge = 1, multiplicity = 2:

       Center              X                  Y                   Z               Mass
    ------------   -----------------  -----------------  -----------------  -----------------
         S            0.000000000000     0.000000000000     0.000000000000    31.972071174400

  Charge       = 1
  Multiplicity = 2
  Basis Set: CC-PVTZ
    Blend: CC-PVTZ
  Basis Set: (CC-PVTZ AUX)
    Blend: CC-PVTZ-JKFIT

    Orbital Energies [Eh]
    ---------------------

    Alpha Occupied:

       1Ag   -89.403262     2Ag    -8.438782     1B3u   -6.412843
       1B2u   -6.406885     1B1u   -6.384515     3Ag    -1.089663
       2B2u   -0.695407     2B1u   -0.642686

    Alpha Virtual:

       2B3u   -0.602562     1B1g   -0.032042     4Ag    -0.027408
       1B3g   -0.004003     1B2g    0.000097     3B2u    0.001767
       3B3u    0.004108     5Ag     0.006772     6Ag     0.014618
       3B1u    0.019909     2B1g    1.082994     7Ag     1.087236
       2B2g    1.115593     2B3g    1.117862     8Ag     1.130825
       4B2u    1.214726     4B3u    1.215773     1Au     1.240482
       4B1u    1.243843     5B2u    1.261756     5B3u    1.262360
       5B1u    1.268391     6B2u    1.494835     6B3u    1.496382
       6B1u    1.534812     9Ag     2.860460

    Beta Occupied:

       1Ag   -89.396943     2Ag    -8.432481     1B3u   -6.409412
       1B2u   -6.385339     1B1u   -6.380914     3Ag    -1.038457
       2B1u   -0.628769

    Beta Virtual:

       2B3u   -0.586567     2B2u   -0.533801     1B2g    0.004493
       4Ag     0.005356     3B3u    0.007605     1B1g    0.019705
       3B1u    0.022716     5Ag     0.023789     3B2u    0.029432
       1B3g    0.039431     6Ag     0.045134     7Ag     1.113588
       2B2g    1.118523     2B1g    1.125084     2B3g    1.154700
       8Ag     1.158370     4B1u    1.256850     4B3u    1.257253
       4B2u    1.266745     1Au     1.274857     5B3u    1.280165
       5B1u    1.306771     5B2u    1.308664     6B3u    1.504621
       6B1u    1.542021     6B2u    1.546182     9Ag     2.877587

    Final Occupation by Irrep:
             Ag   B1g   B2g   B3g    Au   B1u   B2u   B3u
    DOCC [     3,    0,    0,    0,    0,    2,    1,    1 ]
    SOCC [     0,    0,    0,    0,    0,    0,    1,    0 ]
    NA   [     3,    0,    0,    0,    0,    2,    2,    1 ]
    NB   [     3,    0,    0,    0,    0,    2,    1,    1 ]

  @DF-UKS Final Energy:  -397.66971110843309

   => Energetics <=

    Nuclear Repulsion Energy =              0.0000000000000000
    One-Electron Energy =                -542.7074133817704933
    Two-Electron Energy =                 165.3962827018968937
    DFT Exchange-Correlation Energy =     -20.3585804285594492
    Empirical Dispersion Energy =           0.0000000000000000
    VV10 Nonlocal Energy =                  0.0000000000000000
    Total Energy =                       -397.6697111084330345

  UHF NO Occupations:
  HONO-2 :    2B1u 1.9998308
  HONO-1 :    3 Ag 1.9984795
  HONO-0 :    2B2u 1.0000000
  LUNO+0 :    4 Ag 0.0015205
  LUNO+1 :    3B1u 0.0001692
  LUNO+2 :    3B2u 0.0000002
  LUNO+3 :    5 Ag 0.0000001

Computation Completed

Properties will be evaluated at   0.000000,   0.000000,   0.000000 [a0]

Properties computed using the SCF density matrix

 Multipole Moments:

 ------------------------------------------------------------------------------------
     Multipole            Electronic (a.u.)      Nuclear  (a.u.)        Total (a.u.)
 ------------------------------------------------------------------------------------

 L = 1.  Multiply by 2.5417464519 to convert [e a0] to [Debye]
 Dipole X            :          0.0000000            0.0000000            0.0000000
 Dipole Y            :          0.0000000            0.0000000            0.0000000
 Dipole Z            :          0.0000000            0.0000000            0.0000000
 Magnitude           :                                                    0.0000000

 ------------------------------------------------------------------------------------

*** tstop() called on Joses-MacBook-Pro-2.local at Sat Jan 25 21:33:02 2025
Module time:
	user time   =       4.19 seconds =       0.07 minutes
	system time =       1.43 seconds =       0.02 minutes
	total time  =          1 seconds =       0.02 minutes
Total time:
	user time   =       4.19 seconds =       0.07 minutes
	system time =       1.43 seconds =       0.02 minutes
	total time  =          1 seconds =       0.02 minutes

    Psi4 stopped on: Saturday, 25 January 2025 09:33PM
    Psi4 wall time for execution: 0:00:00.61

*** Psi4 exiting successfully. Buy a developer a beer!
