                               Psi4 1.9.1 release

  ==> Input File <==

--------------------------------------------------------------------------
molecule {
1 2
O           0.000000           0.000000           0.000000
}

set {
basis              cc-pvtz
reference          uks
maxiter            500
DAMPING_PERCENTAGE 1
E_CONVERGENCE      1.0E-8
D_CONVERGENCE      1.0E-8
DIIS_MAX_VECS      400
MBIS_MAXITER       8000
guess              SAP
}

energy('b3lyp')
--------------------------------------------------------------------------

    Molecular point group: d2h
    Geometry (in Angstrom), charge = 1, multiplicity = 2:

       Center              X                  Y                   Z               Mass
    ------------   -----------------  -----------------  -----------------  -----------------
         O            0.000000000000     0.000000000000     0.000000000000    15.994914619570

  Charge       = 1
  Multiplicity = 2
  Basis Set: CC-PVTZ
    Blend: CC-PVTZ
  Basis Set: (CC-PVTZ AUX)
    Blend: CC-PVTZ-JKFIT

    Orbital Energies [Eh]
    ---------------------

    Alpha Occupied:

       1Ag   -19.989779     2Ag    -1.573982     1B3u   -1.040413
       1B1u   -0.953230

    Alpha Virtual:

       1B2u   -0.862721     2B3u    0.114425     2B2u    0.128910
       2B1u    0.143480     3Ag     0.230790     1B1g    0.874034
       4Ag     0.880623     1B2g    0.912752     1B3g    0.915489
       5Ag     0.931510     3B3u    2.869821     3B2u    2.908749
       3B1u    2.939158     4B3u    4.412129     4B2u    4.414419
       1Au     4.451845     4B1u    4.457182     5B2u    4.485325
       5B3u    4.485357     5B1u    4.494898     2B1g    5.398615
       6Ag     5.411584     2B2g    5.452439     2B3g    5.467182
       7Ag     5.492093     8Ag     6.293989

    Beta Occupied:

       1Ag   -19.959877     2Ag    -1.485275     1B1u   -0.924751

    Beta Virtual:

       1B2u   -0.830176     1B3u   -0.746686     2B2u    0.137781
       2B1u    0.150464     2B3u    0.171960     3Ag     0.261102
       4Ag     0.921271     1B3g    0.921645     1B1g    0.938459
       1B2g    0.965222     5Ag     0.972428     3B2u    2.931797
       3B1u    2.960363     3B3u    3.001789     4B1u    4.477504
       4B2u    4.478850     4B3u    4.492212     1Au     4.503754
       5B2u    4.513375     5B1u    4.552726     5B3u    4.556542
       2B3g    5.479668     6Ag     5.491390     2B1g    5.524891
       2B2g    5.551788     7Ag     5.572417     8Ag     6.346378

    Final Occupation by Irrep:
             Ag   B1g   B2g   B3g    Au   B1u   B2u   B3u
    DOCC [     2,    0,    0,    0,    0,    1,    0,    0 ]
    SOCC [     0,    0,    0,    0,    0,    0,    0,    1 ]
    NA   [     2,    0,    0,    0,    0,    1,    0,    1 ]
    NB   [     2,    0,    0,    0,    0,    1,    0,    0 ]

  @DF-UKS Final Energy:   -74.43171845073734

   => Energetics <=

    Nuclear Repulsion Energy =              0.0000000000000000
    One-Electron Energy =                 -98.2844832999225275
    Two-Electron Energy =                  30.3092103031789684
    DFT Exchange-Correlation Energy =      -6.4564454539937799
    Empirical Dispersion Energy =           0.0000000000000000
    VV10 Nonlocal Energy =                  0.0000000000000000
    Total Energy =                        -74.4317184507373355

  UHF NO Occupations:
  HONO-2 :    1B1u 1.9999010
  HONO-1 :    2 Ag 1.9993829
  HONO-0 :    1B3u 1.0000000
  LUNO+0 :    3 Ag 0.0006171
  LUNO+1 :    2B1u 0.0000990
  LUNO+2 :    4 Ag 0.0000007
  LUNO+3 :    5 Ag 0.0000000

Computation Completed

Properties will be evaluated at   0.000000,   0.000000,   0.000000 [a0]

Properties computed using the SCF density matrix

 Multipole Moments:

 ------------------------------------------------------------------------------------
     Multipole            Electronic (a.u.)      Nuclear  (a.u.)        Total (a.u.)
 ------------------------------------------------------------------------------------

 L = 1.  Multiply by 2.5417464519 to convert [e a0] to [Debye]
 Dipole X            :          0.0000000            0.0000000            0.0000000
 Dipole Y            :          0.0000000            0.0000000            0.0000000
 Dipole Z            :          0.0000000            0.0000000            0.0000000
 Magnitude           :                                                    0.0000000

 ------------------------------------------------------------------------------------

*** tstop() called on Joses-MacBook-Pro-2.local at Sat Jan 25 21:32:29 2025
Module time:
	user time   =       1.89 seconds =       0.03 minutes
	system time =       2.97 seconds =       0.05 minutes
	total time  =          0 seconds =       0.00 minutes
Total time:
	user time   =       1.89 seconds =       0.03 minutes
	system time =       2.97 seconds =       0.05 minutes
	total time  =          0 seconds =       0.00 minutes

    Psi4 stopped on: Saturday, 25 January 2025 09:32PM
    Psi4 wall time for execution: 0:00:00.51

*** Psi4 exiting successfully. Buy a developer a beer!
