                               Psi4 1.9.1 release

  ==> Input File <==

--------------------------------------------------------------------------
molecule {
1 2
Ar           0.000000           0.000000           0.000000
}

set {
basis              cc-pvtz
reference          uks
maxiter            500
DAMPING_PERCENTAGE 1
E_CONVERGENCE      1.0E-8
D_CONVERGENCE      1.0E-8
DIIS_MAX_VECS      400
MBIS_MAXITER       8000
guess              SAP
}

energy('b3lyp')
--------------------------------------------------------------------------

    Molecular point group: d2h
    Geometry (in Angstrom), charge = 1, multiplicity = 2:

       Center              X                  Y                   Z               Mass
    ------------   -----------------  -----------------  -----------------  -----------------
         AR           0.000000000000     0.000000000000     0.000000000000    39.962383123700

  Charge       = 1
  Multiplicity = 2
  Basis Set: CC-PVTZ
    Blend: CC-PVTZ
  Basis Set: (CC-PVTZ AUX)
    Blend: CC-PVTZ-JKFIT

    Orbital Energies [Eh]
    ---------------------

    Alpha Occupied:

       1Ag  -115.647973     2Ag   -11.659828     1B3u   -9.233557
       1B1u   -9.204218     1B2u   -9.204218     3Ag    -1.452036
       2B3u   -0.931055     2B1u   -0.864876     2B2u   -0.864876

    Alpha Virtual:

       4Ag     0.041004     3B3u    0.047139     1B2g    0.053472
       1B1g    0.053472     3B2u    0.069714     3B1u    0.069714
       1B3g    0.096157     5Ag     0.096157     6Ag     0.130486
       7Ag     1.680200     2B2g    1.692830     2B1g    1.692830
       2B3g    1.733799     8Ag     1.733799     4B3u    2.034325
       5B3u    2.060152     4B2u    2.064494     4B1u    2.064494
       5B1u    2.087193     5B2u    2.087193     1Au     2.088344
       6B3u    2.088344     6B2u    2.127064     6B1u    2.127064
       9Ag     4.472511

    Beta Occupied:

       1Ag  -115.639145     2Ag   -11.651471     1B3u   -9.205208
       1B1u   -9.199301     1B2u   -9.199301     3Ag    -1.389196
       2B1u   -0.846318     2B2u   -0.846318

    Beta Virtual:

       2B3u   -0.734923     3B2u    0.073688     3B1u    0.073688
       3B3u    0.077338     1B3g    0.102271     4Ag     0.102271
       1B2g    0.109513     1B1g    0.109513     5Ag     0.118144
       6Ag     0.149898     2B2g    1.737032     2B1g    1.737032
       2B3g    1.738685     7Ag     1.738685     8Ag     1.741400
       4B1u    2.096006     4B2u    2.096006     4B3u    2.099379
       5B3u    2.127614     1Au     2.127614     5B2u    2.129274
       5B1u    2.129274     6B2u    2.131715     6B1u    2.131715
       6B3u    2.136480     9Ag     4.494237

    Final Occupation by Irrep:
             Ag   B1g   B2g   B3g    Au   B1u   B2u   B3u
    DOCC [     3,    0,    0,    0,    0,    2,    2,    1 ]
    SOCC [     0,    0,    0,    0,    0,    0,    0,    1 ]
    NA   [     3,    0,    0,    0,    0,    2,    2,    2 ]
    NB   [     3,    0,    0,    0,    0,    2,    2,    1 ]

  @DF-UKS Final Energy:  -526.97901113760861

   => Energetics <=

    Nuclear Repulsion Energy =              0.0000000000000000
    One-Electron Energy =                -719.4797925674117778
    Two-Electron Energy =                 217.0599148025915213
    DFT Exchange-Correlation Energy =     -24.5591333727883416
    Empirical Dispersion Energy =           0.0000000000000000
    VV10 Nonlocal Energy =                  0.0000000000000000
    Total Energy =                       -526.9790111376086088

  UHF NO Occupations:
  HONO-2 :    2B1u 1.9998900
  HONO-1 :    3 Ag 1.9988613
  HONO-0 :    2B3u 1.0000000
  LUNO+0 :    4 Ag 0.0011387
  LUNO+1 :    3B2u 0.0001100
  LUNO+2 :    3B1u 0.0001100
  LUNO+3 :    3B3u 0.0000002

Computation Completed

Properties will be evaluated at   0.000000,   0.000000,   0.000000 [a0]

Properties computed using the SCF density matrix

 Multipole Moments:

 ------------------------------------------------------------------------------------
     Multipole            Electronic (a.u.)      Nuclear  (a.u.)        Total (a.u.)
 ------------------------------------------------------------------------------------

 L = 1.  Multiply by 2.5417464519 to convert [e a0] to [Debye]
 Dipole X            :          0.0000000            0.0000000            0.0000000
 Dipole Y            :          0.0000000            0.0000000            0.0000000
 Dipole Z            :          0.0000000            0.0000000            0.0000000
 Magnitude           :                                                    0.0000000

 ------------------------------------------------------------------------------------

*** tstop() called on Joses-MacBook-Pro-2.local at Sat Jan 25 21:33:10 2025
Module time:
	user time   =       3.63 seconds =       0.06 minutes
	system time =       1.16 seconds =       0.02 minutes
	total time  =          1 seconds =       0.02 minutes
Total time:
	user time   =       3.63 seconds =       0.06 minutes
	system time =       1.16 seconds =       0.02 minutes
	total time  =          1 seconds =       0.02 minutes

    Psi4 stopped on: Saturday, 25 January 2025 09:33PM
    Psi4 wall time for execution: 0:00:00.53

*** Psi4 exiting successfully. Buy a developer a beer!
