                               Psi4 1.9.1 release

  ==> Input File <==

--------------------------------------------------------------------------
molecule {
1 2
Be           0.000000           0.000000           0.000000
}

set {
basis              cc-pvtz
reference          uks
maxiter            500
DAMPING_PERCENTAGE 1
E_CONVERGENCE      1.0E-8
D_CONVERGENCE      1.0E-8
DIIS_MAX_VECS      400
MBIS_MAXITER       8000
guess              SAP
}

energy('b3lyp')
--------------------------------------------------------------------------

    Molecular point group: d2h
    Geometry (in Angstrom), charge = 1, multiplicity = 2:

       Center              X                  Y                   Z               Mass
    ------------   -----------------  -----------------  -----------------  -----------------
         BE           0.000000000000     0.000000000000     0.000000000000     9.012183065000

  Charge       = 1
  Multiplicity = 2
  Basis Set: CC-PVTZ
    Blend: CC-PVTZ
  Basis Set: (CC-PVTZ AUX)
    Blend: DEF2-UNIVERSAL-JKFIT

    Orbital Energies [Eh]
    ---------------------

    Alpha Occupied:

       1Ag    -4.513399     2Ag    -0.560242

    Alpha Virtual:

       1B2u   -0.351324     1B3u   -0.351324     1B1u   -0.351324
       3Ag    -0.105722     2B1u   -0.070947     2B2u   -0.070947
       2B3u   -0.070947     1B3g    0.066375     1B2g    0.066375
       4Ag     0.066375     1B1g    0.066375     5Ag     0.066375
       3B2u    0.461175     3B3u    0.461175     3B1u    0.461175
       6Ag     0.837142     2B3g    0.837142     2B1g    0.837142
       2B2g    0.837142     7Ag     0.837142     4B3u    0.868863
       4B1u    0.868863     5B3u    0.868863     1Au     0.868863
       4B2u    0.868863     5B2u    0.868863     5B1u    0.868863
       8Ag     0.925286

    Beta Occupied:

       1Ag    -4.493166

    Beta Virtual:

       2Ag    -0.423531     1B2u   -0.289060     1B1u   -0.289060
       1B3u   -0.289060     3Ag    -0.112580     2B2u   -0.084683
       2B1u   -0.084683     2B3u   -0.084683     4Ag     0.118398
       5Ag     0.118398     1B2g    0.118398     1B3g    0.118398
       1B1g    0.118398     3B2u    0.481700     3B1u    0.481700
       3B3u    0.481700     6Ag     0.895004     7Ag     0.895004
       2B2g    0.895004     2B3g    0.895004     2B1g    0.895004
       1Au     0.945245     4B2u    0.945245     4B3u    0.945245
       4B1u    0.945245     5B3u    0.945245     5B1u    0.945245
       5B2u    0.945245     8Ag     0.946396

    Final Occupation by Irrep:
             Ag   B1g   B2g   B3g    Au   B1u   B2u   B3u
    DOCC [     1,    0,    0,    0,    0,    0,    0,    0 ]
    SOCC [     1,    0,    0,    0,    0,    0,    0,    0 ]
    NA   [     2,    0,    0,    0,    0,    0,    0,    0 ]
    NB   [     1,    0,    0,    0,    0,    0,    0,    0 ]

  @DF-UKS Final Energy:   -14.33765247985850

   => Energetics <=

    Nuclear Repulsion Energy =              0.0000000000000000
    One-Electron Energy =                 -17.6156670860894806
    Two-Electron Energy =                   5.3390783940034234
    DFT Exchange-Correlation Energy =      -2.0610637877724436
    Empirical Dispersion Energy =           0.0000000000000000
    VV10 Nonlocal Energy =                  0.0000000000000000
    Total Energy =                        -14.3376524798585017

  UHF NO Occupations:
  HONO-1 :    1 Ag 1.9999975
  HONO-0 :    2 Ag 1.0000000
  LUNO+0 :    3 Ag 0.0000025
  LUNO+1 :    4 Ag 0.0000000
  LUNO+2 :    5 Ag 0.0000000
  LUNO+3 :    6 Ag 0.0000000

Computation Completed

Properties will be evaluated at   0.000000,   0.000000,   0.000000 [a0]

Properties computed using the SCF density matrix

 Multipole Moments:

 ------------------------------------------------------------------------------------
     Multipole            Electronic (a.u.)      Nuclear  (a.u.)        Total (a.u.)
 ------------------------------------------------------------------------------------

 L = 1.  Multiply by 2.5417464519 to convert [e a0] to [Debye]
 Dipole X            :          0.0000000            0.0000000            0.0000000
 Dipole Y            :          0.0000000            0.0000000            0.0000000
 Dipole Z            :          0.0000000            0.0000000            0.0000000
 Magnitude           :                                                    0.0000000

 ------------------------------------------------------------------------------------

*** tstop() called on Joses-MacBook-Pro-2.local at Sat Jan 25 21:32:15 2025
Module time:
	user time   =       0.63 seconds =       0.01 minutes
	system time =       1.88 seconds =       0.03 minutes
	total time  =          0 seconds =       0.00 minutes
Total time:
	user time   =       0.63 seconds =       0.01 minutes
	system time =       1.88 seconds =       0.03 minutes
	total time  =          0 seconds =       0.00 minutes

    Psi4 stopped on: Saturday, 25 January 2025 09:32PM
    Psi4 wall time for execution: 0:00:00.36

*** Psi4 exiting successfully. Buy a developer a beer!
