                               Psi4 1.9.1 release

  ==> Input File <==

--------------------------------------------------------------------------
molecule {
1 2
C           0.000000           0.000000           0.000000
}

set {
basis              cc-pvtz
reference          uks
maxiter            500
DAMPING_PERCENTAGE 1
E_CONVERGENCE      1.0E-8
D_CONVERGENCE      1.0E-8
DIIS_MAX_VECS      400
MBIS_MAXITER       8000
guess              SAP
}

energy('b3lyp')
--------------------------------------------------------------------------

    Molecular point group: d2h
    Geometry (in Angstrom), charge = 1, multiplicity = 2:

       Center              X                  Y                   Z               Mass
    ------------   -----------------  -----------------  -----------------  -----------------
         C            0.000000000000     0.000000000000     0.000000000000    12.000000000000

  Charge       = 1
  Multiplicity = 2
  Basis Set: CC-PVTZ
    Blend: CC-PVTZ
  Basis Set: (CC-PVTZ AUX)
    Blend: CC-PVTZ-JKFIT

    Orbital Energies [Eh]
    ---------------------

    Alpha Occupied:

       1Ag   -10.877242     2Ag    -1.019469     1B1u   -0.718819

    Alpha Virtual:

       1B3u   -0.581804     1B2u   -0.581804     2B1u   -0.015815
       2B3u   -0.002376     2B2u   -0.002376     3Ag     0.011963
       1B2g    0.291037     1B3g    0.291037     4Ag     0.295896
       5Ag     0.301778     1B1g    0.301778     3B1u    1.448622
       3B3u    1.480626     3B2u    1.480626     1Au     2.205678
       4B1u    2.205678     5B1u    2.209852     4B3u    2.210838
       4B2u    2.210838     5B2u    2.219075     5B3u    2.219075
       2B2g    2.416366     2B3g    2.416366     6Ag     2.426237
       7Ag     2.447994     2B1g    2.447994     8Ag     3.240973

    Beta Occupied:

       1Ag   -10.858582     2Ag    -0.954686

    Beta Virtual:

       1B3u   -0.562999     1B2u   -0.562999     1B1u   -0.502813
       2B3u    0.001998     2B2u    0.001998     2B1u    0.025322
       3Ag     0.032199     4Ag     0.305508     1B1g    0.305508
       1B2g    0.334363     1B3g    0.334363     5Ag     0.343333
       3B2u    1.491244     3B3u    1.491244     3B1u    1.540154
       4B2u    2.218693     4B3u    2.218693     4B1u    2.253054
       1Au     2.253054     5B3u    2.272182     5B2u    2.272182
       5B1u    2.279264     2B1g    2.452060     6Ag     2.452060
       2B2g    2.502727     2B3g    2.502727     7Ag     2.518617
       8Ag     3.273631

    Final Occupation by Irrep:
             Ag   B1g   B2g   B3g    Au   B1u   B2u   B3u
    DOCC [     2,    0,    0,    0,    0,    0,    0,    0 ]
    SOCC [     0,    0,    0,    0,    0,    1,    0,    0 ]
    NA   [     2,    0,    0,    0,    0,    1,    0,    0 ]
    NB   [     2,    0,    0,    0,    0,    0,    0,    0 ]

  @DF-UKS Final Energy:   -37.43478845502784

   => Energetics <=

    Nuclear Repulsion Energy =              0.0000000000000000
    One-Electron Energy =                 -47.5974628969279649
    Two-Electron Energy =                  14.0916964921625834
    DFT Exchange-Correlation Energy =      -3.9290220502624580
    Empirical Dispersion Energy =           0.0000000000000000
    VV10 Nonlocal Energy =                  0.0000000000000000
    Total Energy =                        -37.4347884550278422

  UHF NO Occupations:
  HONO-2 :    1 Ag 1.9999991
  HONO-1 :    2 Ag 1.9988323
  HONO-0 :    1B1u 1.0000000
  LUNO+0 :    3 Ag 0.0011677
  LUNO+1 :    4 Ag 0.0000009
  LUNO+2 :    5 Ag 0.0000000
  LUNO+3 :    2B1u 0.0000000

Computation Completed

Properties will be evaluated at   0.000000,   0.000000,   0.000000 [a0]

Properties computed using the SCF density matrix

 Multipole Moments:

 ------------------------------------------------------------------------------------
     Multipole            Electronic (a.u.)      Nuclear  (a.u.)        Total (a.u.)
 ------------------------------------------------------------------------------------

 L = 1.  Multiply by 2.5417464519 to convert [e a0] to [Debye]
 Dipole X            :          0.0000000            0.0000000            0.0000000
 Dipole Y            :          0.0000000            0.0000000            0.0000000
 Dipole Z            :          0.0000000            0.0000000            0.0000000
 Magnitude           :                                                    0.0000000

 ------------------------------------------------------------------------------------

*** tstop() called on Joses-MacBook-Pro-2.local at Sat Jan 25 21:32:22 2025
Module time:
	user time   =       0.90 seconds =       0.02 minutes
	system time =       2.13 seconds =       0.04 minutes
	total time  =          1 seconds =       0.02 minutes
Total time:
	user time   =       0.90 seconds =       0.02 minutes
	system time =       2.13 seconds =       0.04 minutes
	total time  =          1 seconds =       0.02 minutes

    Psi4 stopped on: Saturday, 25 January 2025 09:32PM
    Psi4 wall time for execution: 0:00:00.40

*** Psi4 exiting successfully. Buy a developer a beer!
