                               Psi4 1.9.1 release

  ==> Input File <==

--------------------------------------------------------------------------
molecule {
1 2
Mg           0.000000           0.000000           0.000000
}

set {
basis              cc-pvtz
reference          uks
maxiter            500
DAMPING_PERCENTAGE 1
E_CONVERGENCE      1.0E-8
D_CONVERGENCE      1.0E-8
DIIS_MAX_VECS      400
MBIS_MAXITER       8000
guess              SAP
}

energy('b3lyp')
--------------------------------------------------------------------------

    Molecular point group: d2h
    Geometry (in Angstrom), charge = 1, multiplicity = 2:

       Center              X                  Y                   Z               Mass
    ------------   -----------------  -----------------  -----------------  -----------------
         MG           0.000000000000     0.000000000000     0.000000000000    23.985041697000

  Charge       = 1
  Multiplicity = 2
  Basis Set: CC-PVTZ
    Blend: CC-PVTZ
  Basis Set: (CC-PVTZ AUX)
    Blend: DEF2-UNIVERSAL-JKFIT

    Orbital Energies [Eh]
    ---------------------

    Alpha Occupied:

       1Ag   -47.175945     2Ag    -3.438398     1B1u   -2.181328
       1B2u   -2.181328     1B3u   -2.181328     3Ag    -0.463950

    Alpha Virtual:

       2B1u   -0.254851     2B2u   -0.254851     2B3u   -0.254851
       4Ag    -0.103508     3B1u   -0.060838     3B3u   -0.060838
       3B2u   -0.060838     1B3g   -0.023634     1B2g   -0.023634
       1B1g   -0.023634     5Ag    -0.023634     6Ag    -0.023634
       4B1u    0.305611     4B2u    0.305611     4B3u    0.305611
       5B3u    0.509306     6B3u    0.509306     5B1u    0.509306
       5B2u    0.509306     6B1u    0.509306     6B2u    0.509306
       1Au     0.509306     7Ag     0.531631     2B3g    0.531631
       2B1g    0.531631     2B2g    0.531631     8Ag     0.531631
       9Ag     0.606922

    Beta Occupied:

       1Ag   -47.171807     2Ag    -3.430921     1B1u   -2.176307
       1B2u   -2.176307     1B3u   -2.176307

    Beta Virtual:

       3Ag    -0.371497     2B1u   -0.215049     2B2u   -0.215049
       2B3u   -0.215049     4Ag    -0.084602     3B1u   -0.046211
       3B2u   -0.046211     3B3u   -0.046211     1B1g    0.012441
       1B3g    0.012441     1B2g    0.012441     5Ag     0.012441
       6Ag     0.012441     4B1u    0.323859     4B2u    0.323859
       4B3u    0.323859     5B3u    0.548023     6B3u    0.548023
       5B1u    0.548023     5B2u    0.548023     6B1u    0.548023
       6B2u    0.548023     1Au     0.548023     7Ag     0.553452
       2B1g    0.553452     2B3g    0.553452     2B2g    0.553452
       8Ag     0.553452     9Ag     0.624510

    Final Occupation by Irrep:
             Ag   B1g   B2g   B3g    Au   B1u   B2u   B3u
    DOCC [     2,    0,    0,    0,    0,    1,    1,    1 ]
    SOCC [     1,    0,    0,    0,    0,    0,    0,    0 ]
    NA   [     3,    0,    0,    0,    0,    1,    1,    1 ]
    NB   [     2,    0,    0,    0,    0,    1,    1,    1 ]

  @DF-UKS Final Energy:  -199.81370262830384

   => Energetics <=

    Nuclear Repulsion Energy =              0.0000000000000000
    One-Electron Energy =                -275.5162404922288033
    Two-Electron Energy =                  88.8061968346061974
    DFT Exchange-Correlation Energy =     -13.1036589706812610
    Empirical Dispersion Energy =           0.0000000000000000
    VV10 Nonlocal Energy =                  0.0000000000000000
    Total Energy =                       -199.8137026283038722

  UHF NO Occupations:
  HONO-2 :    1B2u 1.9999983
  HONO-1 :    1B1u 1.9999983
  HONO-0 :    3 Ag 1.0000000
  LUNO+0 :    2B2u 0.0000017
  LUNO+1 :    2B3u 0.0000017
  LUNO+2 :    2B1u 0.0000017
  LUNO+3 :    4 Ag 0.0000002

Computation Completed

Properties will be evaluated at   0.000000,   0.000000,   0.000000 [a0]

Properties computed using the SCF density matrix

 Multipole Moments:

 ------------------------------------------------------------------------------------
     Multipole            Electronic (a.u.)      Nuclear  (a.u.)        Total (a.u.)
 ------------------------------------------------------------------------------------

 L = 1.  Multiply by 2.5417464519 to convert [e a0] to [Debye]
 Dipole X            :          0.0000000            0.0000000            0.0000000
 Dipole Y            :          0.0000000            0.0000000            0.0000000
 Dipole Z            :          0.0000000            0.0000000            0.0000000
 Magnitude           :                                                    0.0000000

 ------------------------------------------------------------------------------------

*** tstop() called on Joses-MacBook-Pro-2.local at Sat Jan 25 21:32:45 2025
Module time:
	user time   =       3.91 seconds =       0.07 minutes
	system time =       1.48 seconds =       0.02 minutes
	total time  =          1 seconds =       0.02 minutes
Total time:
	user time   =       3.91 seconds =       0.07 minutes
	system time =       1.48 seconds =       0.02 minutes
	total time  =          1 seconds =       0.02 minutes

    Psi4 stopped on: Saturday, 25 January 2025 09:32PM
    Psi4 wall time for execution: 0:00:00.65

*** Psi4 exiting successfully. Buy a developer a beer!
