                               Psi4 1.9.1 release

  ==> Input File <==

--------------------------------------------------------------------------
molecule {
1 2
Si           0.000000           0.000000           0.000000
}

set {
basis              cc-pvtz
reference          uks
maxiter            500
DAMPING_PERCENTAGE 1
E_CONVERGENCE      1.0E-8
D_CONVERGENCE      1.0E-8
DIIS_MAX_VECS      400
MBIS_MAXITER       8000
guess              SAP
}

energy('b3lyp')
--------------------------------------------------------------------------

    Molecular point group: d2h
    Geometry (in Angstrom), charge = 1, multiplicity = 2:

       Center              X                  Y                   Z               Mass
    ------------   -----------------  -----------------  -----------------  -----------------
         SI           0.000000000000     0.000000000000     0.000000000000    27.976926534650

  Charge       = 1
  Multiplicity = 2
  Basis Set: CC-PVTZ
    Blend: CC-PVTZ
  Basis Set: (CC-PVTZ AUX)
    Blend: CC-PVTZ-JKFIT

    Orbital Energies [Eh]
    ---------------------

    Alpha Occupied:

       1Ag   -66.546091     2Ag    -5.673084     1B2u   -4.033373
       1B3u   -4.033373     1B1u   -4.029181     3Ag    -0.748983
       2B1u   -0.478405

    Alpha Virtual:

       2B2u   -0.403013     2B3u   -0.403013     4Ag    -0.062883
       1B3g   -0.060253     1B2g   -0.060253     5Ag    -0.056765
       1B1g   -0.048265     6Ag    -0.048265     3B1u    0.006261
       3B2u    0.013619     3B3u    0.013619     2B2g    0.646978
       2B3g    0.646978     7Ag     0.650681     2B1g    0.652789
       8Ag     0.652789     1Au     0.696823     4B1u    0.696823
       5B1u    0.698824     4B3u    0.699199     4B2u    0.699199
       5B3u    0.706348     5B2u    0.706348     9Ag     1.605830
       6B3u    1.748406     6B2u    1.748406     6B1u    1.749651

    Beta Occupied:

       1Ag   -66.542049     2Ag    -5.668800     1B2u   -4.031179
       1B3u   -4.031179     1B1u   -4.014338     3Ag    -0.711739

    Beta Virtual:

       2B2u   -0.393083     2B3u   -0.393083     2B1u   -0.355673
       4Ag    -0.053696     5Ag    -0.045958     1B1g   -0.045958
       1B3g   -0.022964     1B2g   -0.022964     6Ag    -0.014310
       3B3u    0.015684     3B2u    0.015684     3B1u    0.035119
       7Ag     0.652336     2B1g    0.652336     2B2g    0.678725
       2B3g    0.678725     8Ag     0.688180     4B3u    0.705415
       4B2u    0.705415     4B1u    0.728213     1Au     0.728213
       5B3u    0.741383     5B2u    0.741383     5B1u    0.746423
       9Ag     1.617987     6B2u    1.751988     6B3u    1.751988
       6B1u    1.782516

    Final Occupation by Irrep:
             Ag   B1g   B2g   B3g    Au   B1u   B2u   B3u
    DOCC [     3,    0,    0,    0,    0,    1,    1,    1 ]
    SOCC [     0,    0,    0,    0,    0,    1,    0,    0 ]
    NA   [     3,    0,    0,    0,    0,    2,    1,    1 ]
    NB   [     3,    0,    0,    0,    0,    1,    1,    1 ]

  @DF-UKS Final Energy:  -289.09820910525616

   => Energetics <=

    Nuclear Repulsion Energy =              0.0000000000000000
    One-Electron Energy =                -395.8506860813604931
    Two-Electron Energy =                 123.3095424490234393
    DFT Exchange-Correlation Energy =     -16.5570654729191098
    Empirical Dispersion Energy =           0.0000000000000000
    VV10 Nonlocal Energy =                  0.0000000000000000
    Total Energy =                       -289.0982091052561600

  UHF NO Occupations:
  HONO-2 :    1B1u 1.9999992
  HONO-1 :    3 Ag 1.9978630
  HONO-0 :    2B1u 1.0000000
  LUNO+0 :    4 Ag 0.0021370
  LUNO+1 :    3B1u 0.0000008
  LUNO+2 :    2B2u 0.0000002
  LUNO+3 :    2B3u 0.0000002

Computation Completed

Properties will be evaluated at   0.000000,   0.000000,   0.000000 [a0]

Properties computed using the SCF density matrix

 Multipole Moments:

 ------------------------------------------------------------------------------------
     Multipole            Electronic (a.u.)      Nuclear  (a.u.)        Total (a.u.)
 ------------------------------------------------------------------------------------

 L = 1.  Multiply by 2.5417464519 to convert [e a0] to [Debye]
 Dipole X            :          0.0000000            0.0000000            0.0000000
 Dipole Y            :          0.0000000            0.0000000            0.0000000
 Dipole Z            :          0.0000000            0.0000000            0.0000000
 Magnitude           :                                                    0.0000000

 ------------------------------------------------------------------------------------

*** tstop() called on Joses-MacBook-Pro-2.local at Sat Jan 25 21:32:53 2025
Module time:
	user time   =       3.98 seconds =       0.07 minutes
	system time =       1.44 seconds =       0.02 minutes
	total time  =          0 seconds =       0.00 minutes
Total time:
	user time   =       3.98 seconds =       0.07 minutes
	system time =       1.44 seconds =       0.02 minutes
	total time  =          0 seconds =       0.00 minutes

    Psi4 stopped on: Saturday, 25 January 2025 09:32PM
    Psi4 wall time for execution: 0:00:00.59

*** Psi4 exiting successfully. Buy a developer a beer!
