                               Psi4 1.9.1 release

  ==> Input File <==

--------------------------------------------------------------------------
molecule {
1 4
Ar           0.000000           0.000000           0.000000
}

set {
basis              cc-pvtz
reference          uks
maxiter            500
DAMPING_PERCENTAGE 1
E_CONVERGENCE      1.0E-8
D_CONVERGENCE      1.0E-8
DIIS_MAX_VECS      400
MBIS_MAXITER       8000
guess              SAP
}

energy('b3lyp')
--------------------------------------------------------------------------

    Molecular point group: d2h
    Geometry (in Angstrom), charge = 1, multiplicity = 4:

       Center              X                  Y                   Z               Mass
    ------------   -----------------  -----------------  -----------------  -----------------
         AR           0.000000000000     0.000000000000     0.000000000000    39.962383123700

  Charge       = 1
  Multiplicity = 4
  Basis Set: CC-PVTZ
    Blend: CC-PVTZ
  Basis Set: (CC-PVTZ AUX)
    Blend: CC-PVTZ-JKFIT

    Orbital Energies [Eh]
    ---------------------

    Alpha Occupied:

       1Ag  -115.781663     2Ag   -11.741231     1B2u   -9.309982
       1B3u   -9.309982     1B1u   -9.288148     3Ag    -1.504714
       2B3u   -0.957910     2B2u   -0.957910     2B1u   -0.896756
       4Ag    -0.103410

    Alpha Virtual:

       1B1g    0.031815     1B3g    0.044925     1B2g    0.044925
       3B2u    0.049898     3B3u    0.049898     5Ag     0.053064
       3B1u    0.061269     6Ag     0.112107     7Ag     1.623597
       2B1g    1.666341     2B2g    1.679671     2B3g    1.679671
       8Ag     1.686460     4B2u    2.007168     4B3u    2.007168
       5B3u    2.020770     5B2u    2.020770     4B1u    2.031379
       5B1u    2.052100     1Au     2.066234     6B2u    2.069958
       6B3u    2.069958     6B1u    2.073214     9Ag     4.425999

    Beta Occupied:

       1Ag  -115.764084     2Ag   -11.722999     1B1u   -9.278283
       1B2u   -9.274596     1B3u   -9.274596     3Ag    -1.353983
       2B1u   -0.854514

    Beta Virtual:

       2B2u   -0.700271     2B3u   -0.700271     3B1u    0.070050
       3B3u    0.094506     3B2u    0.094506     4Ag     0.119823
       1B3g    0.123143     1B2g    0.123143     1B1g    0.153866
       5Ag     0.162004     6Ag     0.179845     7Ag     1.735052
       2B2g    1.737494     2B3g    1.737494     2B1g    1.757469
       8Ag     1.776479     4B1u    2.076359     4B3u    2.110104
       4B2u    2.110104     5B1u    2.139785     5B2u    2.144460
       5B3u    2.144460     1Au     2.145989     6B1u    2.163584
       6B2u    2.192295     6B3u    2.192295     9Ag     4.480761

    Final Occupation by Irrep:
             Ag   B1g   B2g   B3g    Au   B1u   B2u   B3u
    DOCC [     3,    0,    0,    0,    0,    2,    1,    1 ]
    SOCC [     1,    0,    0,    0,    0,    0,    1,    1 ]
    NA   [     4,    0,    0,    0,    0,    2,    2,    2 ]
    NB   [     3,    0,    0,    0,    0,    2,    1,    1 ]

  @DF-UKS Final Energy:  -526.23158068648820

   => Energetics <=

    Nuclear Repulsion Energy =              0.0000000000000000
    One-Electron Energy =                -717.6463894263880547
    Two-Electron Energy =                 215.9793349323070117
    DFT Exchange-Correlation Energy =     -24.5645261924071470
    Empirical Dispersion Energy =           0.0000000000000000
    VV10 Nonlocal Energy =                  0.0000000000000000
    Total Energy =                       -526.2315806864882006

  UHF NO Occupations:
  HONO-2 :    2B2u 1.0000000
  HONO-1 :    2B3u 1.0000000
  HONO-0 :    4 Ag 1.0000000
  LUNO+0 :    5 Ag 0.0020766
  LUNO+1 :    3B1u 0.0003097
  LUNO+2 :    3B2u 0.0000003
  LUNO+3 :    3B3u 0.0000003

Computation Completed

Properties will be evaluated at   0.000000,   0.000000,   0.000000 [a0]

Properties computed using the SCF density matrix

 Multipole Moments:

 ------------------------------------------------------------------------------------
     Multipole            Electronic (a.u.)      Nuclear  (a.u.)        Total (a.u.)
 ------------------------------------------------------------------------------------

 L = 1.  Multiply by 2.5417464519 to convert [e a0] to [Debye]
 Dipole X            :          0.0000000            0.0000000            0.0000000
 Dipole Y            :          0.0000000            0.0000000            0.0000000
 Dipole Z            :          0.0000000            0.0000000            0.0000000
 Magnitude           :                                                    0.0000000

 ------------------------------------------------------------------------------------

*** tstop() called on Joses-MacBook-Pro-2.local at Sat Jan 25 21:33:11 2025
Module time:
	user time   =       3.71 seconds =       0.06 minutes
	system time =       1.43 seconds =       0.02 minutes
	total time  =          0 seconds =       0.00 minutes
Total time:
	user time   =       3.71 seconds =       0.06 minutes
	system time =       1.43 seconds =       0.02 minutes
	total time  =          0 seconds =       0.00 minutes

    Psi4 stopped on: Saturday, 25 January 2025 09:33PM
    Psi4 wall time for execution: 0:00:00.56

*** Psi4 exiting successfully. Buy a developer a beer!
