                               Psi4 1.9.1 release

  ==> Input File <==

--------------------------------------------------------------------------
molecule {
1 4
Be           0.000000           0.000000           0.000000
}

set {
basis              cc-pvtz
reference          uks
maxiter            500
DAMPING_PERCENTAGE 1
E_CONVERGENCE      1.0E-8
D_CONVERGENCE      1.0E-8
DIIS_MAX_VECS      400
MBIS_MAXITER       8000
guess              SAP
}

energy('b3lyp')
--------------------------------------------------------------------------

    Molecular point group: d2h
    Geometry (in Angstrom), charge = 1, multiplicity = 4:

       Center              X                  Y                   Z               Mass
    ------------   -----------------  -----------------  -----------------  -----------------
         BE           0.000000000000     0.000000000000     0.000000000000     9.012183065000

  Charge       = 1
  Multiplicity = 4
  Basis Set: CC-PVTZ
    Blend: CC-PVTZ
  Basis Set: (CC-PVTZ AUX)
    Blend: DEF2-UNIVERSAL-JKFIT

    Orbital Energies [Eh]
    ---------------------

    Alpha Occupied:

       1Ag    -5.964116     2Ag    -0.726354     1B1u   -0.597705

    Alpha Virtual:

       1B2u   -0.482706     1B3u   -0.482706     3Ag    -0.136176
       2B1u   -0.106743     2B2u   -0.100207     2B3u   -0.100207
       1B3g    0.051199     1B2g    0.051199     4Ag     0.055696
       5Ag     0.057924     1B1g    0.057924     3B1u    0.275513
       3B2u    0.293627     3B3u    0.293627     6Ag     0.620869
       2B3g    0.748820     2B2g    0.748820     7Ag     0.757753
       8Ag     0.765646     2B1g    0.765646     1Au     0.832981
       4B1u    0.832981     5B1u    0.837788     4B3u    0.838549
       4B2u    0.838549     5B3u    0.840543     5B2u    0.840543

    Beta Occupied:

    Beta Virtual:

       1Ag    -4.555789     2Ag    -0.419277     1B2u   -0.310909
       1B3u   -0.310909     1B1u   -0.257665     3Ag    -0.073073
       2B2u   -0.055891     2B3u   -0.055891     2B1u   -0.037695
       1B1g    0.126165     4Ag     0.126165     1B2g    0.142304
       1B3g    0.142304     5Ag     0.147392     3B2u    0.407979
       3B3u    0.407979     3B1u    0.455512     6Ag     0.863560
       2B1g    0.889527     7Ag     0.889527     2B3g    0.929408
       2B2g    0.929408     8Ag     0.940716     4B3u    0.941813
       4B2u    0.941813     4B1u    0.966293     1Au     0.966293
       5B3u    0.977172     5B2u    0.977172     5B1u    0.982654

    Final Occupation by Irrep:
             Ag   B1g   B2g   B3g    Au   B1u   B2u   B3u
    DOCC [     0,    0,    0,    0,    0,    0,    0,    0 ]
    SOCC [     2,    0,    0,    0,    0,    1,    0,    0 ]
    NA   [     2,    0,    0,    0,    0,    1,    0,    0 ]
    NB   [     0,    0,    0,    0,    0,    0,    0,    0 ]

  @DF-UKS Final Energy:   -10.03997531167611

   => Energetics <=

    Nuclear Repulsion Energy =              0.0000000000000000
    One-Electron Energy =                 -11.6937405061111228
    Two-Electron Energy =                   3.1740246872988824
    DFT Exchange-Correlation Energy =      -1.5202594928638682
    Empirical Dispersion Energy =           0.0000000000000000
    VV10 Nonlocal Energy =                  0.0000000000000000
    Total Energy =                        -10.0399753116761090

  UHF NO Occupations:
  HONO-2 :    1B1u 1.0000000
  HONO-1 :    1 Ag 1.0000000
  HONO-0 :    2 Ag 1.0000000
  LUNO+0 :    3 Ag 0.0000000
  LUNO+1 :    4 Ag 0.0000000
  LUNO+2 :    5 Ag 0.0000000
  LUNO+3 :    6 Ag 0.0000000

Computation Completed

Properties will be evaluated at   0.000000,   0.000000,   0.000000 [a0]

Properties computed using the SCF density matrix

 Multipole Moments:

 ------------------------------------------------------------------------------------
     Multipole            Electronic (a.u.)      Nuclear  (a.u.)        Total (a.u.)
 ------------------------------------------------------------------------------------

 L = 1.  Multiply by 2.5417464519 to convert [e a0] to [Debye]
 Dipole X            :          0.0000000            0.0000000            0.0000000
 Dipole Y            :          0.0000000            0.0000000            0.0000000
 Dipole Z            :          0.0000000            0.0000000            0.0000000
 Magnitude           :                                                    0.0000000

 ------------------------------------------------------------------------------------

*** tstop() called on Joses-MacBook-Pro-2.local at Sat Jan 25 21:32:16 2025
Module time:
	user time   =       0.86 seconds =       0.01 minutes
	system time =       1.68 seconds =       0.03 minutes
	total time  =          0 seconds =       0.00 minutes
Total time:
	user time   =       0.86 seconds =       0.01 minutes
	system time =       1.68 seconds =       0.03 minutes
	total time  =          0 seconds =       0.00 minutes

    Psi4 stopped on: Saturday, 25 January 2025 09:32PM
    Psi4 wall time for execution: 0:00:00.38

*** Psi4 exiting successfully. Buy a developer a beer!
