                               Psi4 1.9.1 release

  ==> Input File <==

--------------------------------------------------------------------------
molecule {
1 4
Si           0.000000           0.000000           0.000000
}

set {
basis              cc-pvtz
reference          uks
maxiter            500
DAMPING_PERCENTAGE 1
E_CONVERGENCE      1.0E-8
D_CONVERGENCE      1.0E-8
DIIS_MAX_VECS      400
MBIS_MAXITER       8000
guess              SAP
}

energy('b3lyp')
--------------------------------------------------------------------------

    Molecular point group: d2h
    Geometry (in Angstrom), charge = 1, multiplicity = 4:

       Center              X                  Y                   Z               Mass
    ------------   -----------------  -----------------  -----------------  -----------------
         SI           0.000000000000     0.000000000000     0.000000000000    27.976926534650

  Charge       = 1
  Multiplicity = 4
  Basis Set: CC-PVTZ
    Blend: CC-PVTZ
  Basis Set: (CC-PVTZ AUX)
    Blend: CC-PVTZ-JKFIT

    Orbital Energies [Eh]
    ---------------------

    Alpha Occupied:

       1Ag   -66.588675     2Ag    -5.718414     1B3u   -4.081814
       1B1u   -4.076485     1B2u   -4.076485     3Ag    -0.807183
       2B2u   -0.514854     2B1u   -0.514854

    Alpha Virtual:

       2B3u   -0.440814     1B3g   -0.087740     4Ag    -0.087740
       1B1g   -0.084071     1B2g   -0.084071     5Ag    -0.076403
       6Ag    -0.073833     3B1u   -0.006918     3B2u   -0.006918
       3B3u   -0.001105     2B1g    0.610643     2B2g    0.610643
       2B3g    0.612128     7Ag     0.612128     8Ag     0.617416
       1Au     0.662765     4B3u    0.662765     4B1u    0.665787
       4B2u    0.665787     5B1u    0.666753     5B2u    0.666753
       5B3u    0.672687     9Ag     1.574188     6B3u    1.709177
       6B2u    1.712001     6B1u    1.712001

    Beta Occupied:

       1Ag   -66.572541     2Ag    -5.697307     1B3u   -4.068958
       1B1u   -4.050238     1B2u   -4.050238

    Beta Virtual:

       3Ag    -0.601773     2B3u   -0.362204     2B2u   -0.320199
       2B1u   -0.320199     4Ag    -0.022859     5Ag    -0.003267
       1B1g    0.006006     1B2g    0.006006     1B3g    0.031184
       6Ag     0.031185     3B3u    0.031884     3B1u    0.053755
       3B2u    0.053755     7Ag     0.674162     2B1g    0.684872
       2B2g    0.684872     2B3g    0.714006     8Ag     0.714007
       4B3u    0.750319     4B1u    0.758248     4B2u    0.758248
       1Au     0.773679     5B3u    0.773682     5B1u    0.797676
       5B2u    0.797676     9Ag     1.630089     6B3u    1.740997
       6B2u    1.774354     6B1u    1.774354

    Final Occupation by Irrep:
             Ag   B1g   B2g   B3g    Au   B1u   B2u   B3u
    DOCC [     2,    0,    0,    0,    0,    1,    1,    1 ]
    SOCC [     1,    0,    0,    0,    0,    1,    1,    0 ]
    NA   [     3,    0,    0,    0,    0,    2,    2,    1 ]
    NB   [     2,    0,    0,    0,    0,    1,    1,    1 ]

  @DF-UKS Final Energy:  -288.89646293737292

   => Energetics <=

    Nuclear Repulsion Energy =              0.0000000000000000
    One-Electron Energy =                -395.1652480632889137
    Two-Electron Energy =                 122.8464814959729665
    DFT Exchange-Correlation Energy =     -16.5776963700569269
    Empirical Dispersion Energy =           0.0000000000000000
    VV10 Nonlocal Energy =                  0.0000000000000000
    Total Energy =                       -288.8964629373728599

  UHF NO Occupations:
  HONO-2 :    2B2u 1.0000000
  HONO-1 :    2B1u 1.0000000
  HONO-0 :    3 Ag 1.0000000
  LUNO+0 :    3B2u 0.0000016
  LUNO+1 :    3B1u 0.0000016
  LUNO+2 :    2B3u 0.0000015
  LUNO+3 :    4 Ag 0.0000011

Computation Completed

Properties will be evaluated at   0.000000,   0.000000,   0.000000 [a0]

Properties computed using the SCF density matrix

 Multipole Moments:

 ------------------------------------------------------------------------------------
     Multipole            Electronic (a.u.)      Nuclear  (a.u.)        Total (a.u.)
 ------------------------------------------------------------------------------------

 L = 1.  Multiply by 2.5417464519 to convert [e a0] to [Debye]
 Dipole X            :          0.0000000            0.0000000            0.0000000
 Dipole Y            :          0.0000000            0.0000000            0.0000000
 Dipole Z            :          0.0000000            0.0000000            0.0000000
 Magnitude           :                                                    0.0000000

 ------------------------------------------------------------------------------------

*** tstop() called on Joses-MacBook-Pro-2.local at Sat Jan 25 21:32:55 2025
Module time:
	user time   =       3.68 seconds =       0.06 minutes
	system time =       1.54 seconds =       0.03 minutes
	total time  =          1 seconds =       0.02 minutes
Total time:
	user time   =       3.68 seconds =       0.06 minutes
	system time =       1.54 seconds =       0.03 minutes
	total time  =          1 seconds =       0.02 minutes

    Psi4 stopped on: Saturday, 25 January 2025 09:32PM
    Psi4 wall time for execution: 0:00:00.57

*** Psi4 exiting successfully. Buy a developer a beer!
