                               Psi4 1.9.1 release

  ==> Input File <==

--------------------------------------------------------------------------
molecule {
1 4
S           0.000000           0.000000           0.000000
}

set {
basis              cc-pvtz
reference          uks
maxiter            500
DAMPING_PERCENTAGE 1
E_CONVERGENCE      1.0E-8
D_CONVERGENCE      1.0E-8
DIIS_MAX_VECS      400
MBIS_MAXITER       8000
guess              SAP
}

energy('b3lyp')
--------------------------------------------------------------------------

    Molecular point group: d2h
    Geometry (in Angstrom), charge = 1, multiplicity = 4:

       Center              X                  Y                   Z               Mass
    ------------   -----------------  -----------------  -----------------  -----------------
         S            0.000000000000     0.000000000000     0.000000000000    31.972071174400

  Charge       = 1
  Multiplicity = 4
  Basis Set: CC-PVTZ
    Blend: CC-PVTZ
  Basis Set: (CC-PVTZ AUX)
    Blend: CC-PVTZ-JKFIT

    Orbital Energies [Eh]
    ---------------------

    Alpha Occupied:

       1Ag   -89.387996     2Ag    -8.426364     1B2u   -6.391982
       1B1u   -6.391982     1B3u   -6.391982     3Ag    -1.126613
       2B1u   -0.699041     2B3u   -0.699041     2B2u   -0.699041

    Alpha Virtual:

       1B2g   -0.033329     1B3g   -0.033329     1B1g   -0.033329
       4Ag    -0.033329     5Ag    -0.033329     6Ag     0.002641
       3B3u    0.004527     3B2u    0.004527     3B1u    0.004527
       7Ag     1.091718     8Ag     1.091718     2B2g    1.091718
       2B1g    1.091718     2B3g    1.091718     4B1u    1.220838
       4B3u    1.220838     4B2u    1.220838     1Au     1.220838
       5B2u    1.220838     5B3u    1.220838     5B1u    1.220838
       6B1u    1.497856     6B2u    1.497856     6B3u    1.497856
       9Ag     2.856832

    Beta Occupied:

       1Ag   -89.369196     2Ag    -8.407751     1B2u   -6.363782
       1B1u   -6.363782     1B3u   -6.363782     3Ag    -0.979091

    Beta Virtual:

       2B1u   -0.513816     2B2u   -0.513816     2B3u   -0.513816
       3B3u    0.037033     3B2u    0.037033     3B1u    0.037033
       4Ag     0.043476     1B2g    0.060500     1B1g    0.060500
       1B3g    0.060500     5Ag     0.060500     6Ag     0.060500
       7Ag     1.168380     8Ag     1.168380     2B2g    1.168380
       2B1g    1.168380     2B3g    1.168380     4B1u    1.319085
       4B3u    1.319085     4B2u    1.319085     1Au     1.319085
       5B2u    1.319085     5B3u    1.319085     5B1u    1.319085
       6B1u    1.561031     6B3u    1.561031     6B2u    1.561031
       9Ag     2.905252

    Final Occupation by Irrep:
             Ag   B1g   B2g   B3g    Au   B1u   B2u   B3u
    DOCC [     3,    0,    0,    0,    0,    1,    1,    1 ]
    SOCC [     0,    0,    0,    0,    0,    1,    1,    1 ]
    NA   [     3,    0,    0,    0,    0,    2,    2,    2 ]
    NB   [     3,    0,    0,    0,    0,    1,    1,    1 ]

  @DF-UKS Final Energy:  -397.75109459011611

   => Energetics <=

    Nuclear Repulsion Energy =              0.0000000000000000
    One-Electron Energy =                -542.9370175251075352
    Two-Electron Energy =                 165.5785577658330112
    DFT Exchange-Correlation Energy =     -20.3926348308416081
    Empirical Dispersion Energy =           0.0000000000000000
    VV10 Nonlocal Energy =                  0.0000000000000000
    Total Energy =                       -397.7510945901161108

  UHF NO Occupations:
  HONO-2 :    2B2u 1.0000000
  HONO-1 :    2B1u 1.0000000
  HONO-0 :    2B3u 1.0000000
  LUNO+0 :    4 Ag 0.0002756
  LUNO+1 :    3B3u 0.0000002
  LUNO+2 :    3B2u 0.0000002
  LUNO+3 :    3B1u 0.0000002

Computation Completed

Properties will be evaluated at   0.000000,   0.000000,   0.000000 [a0]

Properties computed using the SCF density matrix

 Multipole Moments:

 ------------------------------------------------------------------------------------
     Multipole            Electronic (a.u.)      Nuclear  (a.u.)        Total (a.u.)
 ------------------------------------------------------------------------------------

 L = 1.  Multiply by 2.5417464519 to convert [e a0] to [Debye]
 Dipole X            :          0.0000000            0.0000000            0.0000000
 Dipole Y            :          0.0000000            0.0000000            0.0000000
 Dipole Z            :          0.0000000            0.0000000            0.0000000
 Magnitude           :                                                    0.0000000

 ------------------------------------------------------------------------------------

*** tstop() called on Joses-MacBook-Pro-2.local at Sat Jan 25 21:33:03 2025
Module time:
	user time   =       4.03 seconds =       0.07 minutes
	system time =       1.31 seconds =       0.02 minutes
	total time  =          1 seconds =       0.02 minutes
Total time:
	user time   =       4.03 seconds =       0.07 minutes
	system time =       1.31 seconds =       0.02 minutes
	total time  =          1 seconds =       0.02 minutes

    Psi4 stopped on: Saturday, 25 January 2025 09:33PM
    Psi4 wall time for execution: 0:00:00.58

*** Psi4 exiting successfully. Buy a developer a beer!
