                               Psi4 1.9.1 release

  ==> Input File <==

--------------------------------------------------------------------------
molecule {
1 4
O           0.000000           0.000000           0.000000
}

set {
basis              cc-pvtz
reference          uks
maxiter            500
DAMPING_PERCENTAGE 1
E_CONVERGENCE      1.0E-8
D_CONVERGENCE      1.0E-8
DIIS_MAX_VECS      400
MBIS_MAXITER       8000
guess              SAP
}

energy('b3lyp')
--------------------------------------------------------------------------

    Molecular point group: d2h
    Geometry (in Angstrom), charge = 1, multiplicity = 4:

       Center              X                  Y                   Z               Mass
    ------------   -----------------  -----------------  -----------------  -----------------
         O            0.000000000000     0.000000000000     0.000000000000    15.994914619570

  Charge       = 1
  Multiplicity = 4
  Basis Set: CC-PVTZ
    Blend: CC-PVTZ
  Basis Set: (CC-PVTZ AUX)
    Blend: CC-PVTZ-JKFIT

    Orbital Energies [Eh]
    ---------------------

    Alpha Occupied:

       1Ag   -19.974420     2Ag    -1.634872     1B3u   -1.045312
       1B2u   -1.045312     1B1u   -1.045312

    Alpha Virtual:

       2B1u    0.117653     2B2u    0.117653     2B3u    0.117653
       3Ag     0.215953     1B2g    0.876866     1B1g    0.876866
       1B3g    0.876866     4Ag     0.876866     5Ag     0.876866
       3B2u    2.873254     3B3u    2.873254     3B1u    2.873254
       4B2u    4.425801     4B3u    4.425801     5B3u    4.425801
       4B1u    4.425801     5B2u    4.425801     1Au     4.425801
       5B1u    4.425801     6Ag     5.396830     2B2g    5.396830
       7Ag     5.396830     2B1g    5.396830     2B3g    5.396830
       8Ag     6.268454

    Beta Occupied:

       1Ag   -19.888575     2Ag    -1.382279

    Beta Virtual:

       1B1u   -0.705606     1B3u   -0.705606     1B2u   -0.705606
       2B1u    0.187635     2B2u    0.187635     2B3u    0.187635
       3Ag     0.301549     1B2g    0.993510     1B1g    0.993510
       1B3g    0.993510     4Ag     0.993510     5Ag     0.993510
       3B2u    3.038383     3B3u    3.038383     3B1u    3.038383
       4B2u    4.576439     4B3u    4.576439     4B1u    4.576439
       5B3u    4.576439     5B2u    4.576439     1Au     4.576439
       5B1u    4.576439     6Ag     5.619836     2B2g    5.619836
       2B3g    5.619836     2B1g    5.619836     7Ag     5.619836
       8Ag     6.414253

    Final Occupation by Irrep:
             Ag   B1g   B2g   B3g    Au   B1u   B2u   B3u
    DOCC [     2,    0,    0,    0,    0,    0,    0,    0 ]
    SOCC [     0,    0,    0,    0,    0,    1,    1,    1 ]
    NA   [     2,    0,    0,    0,    0,    1,    1,    1 ]
    NB   [     2,    0,    0,    0,    0,    0,    0,    0 ]

  @DF-UKS Final Energy:   -74.57416929156720

   => Energetics <=

    Nuclear Repulsion Energy =              0.0000000000000000
    One-Electron Energy =                 -98.4500707989601551
    Two-Electron Energy =                  30.3948863124280493
    DFT Exchange-Correlation Energy =      -6.5189848050350863
    Empirical Dispersion Energy =           0.0000000000000000
    VV10 Nonlocal Energy =                  0.0000000000000000
    Total Energy =                        -74.5741692915672019

  UHF NO Occupations:
  HONO-2 :    1B2u 1.0000000
  HONO-1 :    1B1u 1.0000000
  HONO-0 :    1B3u 1.0000000
  LUNO+0 :    3 Ag 0.0011814
  LUNO+1 :    4 Ag 0.0000023
  LUNO+2 :    2B2u 0.0000000
  LUNO+3 :    2B1u 0.0000000

Computation Completed

Properties will be evaluated at   0.000000,   0.000000,   0.000000 [a0]

Properties computed using the SCF density matrix

 Multipole Moments:

 ------------------------------------------------------------------------------------
     Multipole            Electronic (a.u.)      Nuclear  (a.u.)        Total (a.u.)
 ------------------------------------------------------------------------------------

 L = 1.  Multiply by 2.5417464519 to convert [e a0] to [Debye]
 Dipole X            :          0.0000000            0.0000000            0.0000000
 Dipole Y            :          0.0000000            0.0000000            0.0000000
 Dipole Z            :          0.0000000            0.0000000            0.0000000
 Magnitude           :                                                    0.0000000

 ------------------------------------------------------------------------------------

*** tstop() called on Joses-MacBook-Pro-2.local at Sat Jan 25 21:32:31 2025
Module time:
	user time   =       1.78 seconds =       0.03 minutes
	system time =       2.35 seconds =       0.04 minutes
	total time  =          1 seconds =       0.02 minutes
Total time:
	user time   =       1.78 seconds =       0.03 minutes
	system time =       2.35 seconds =       0.04 minutes
	total time  =          1 seconds =       0.02 minutes

    Psi4 stopped on: Saturday, 25 January 2025 09:32PM
    Psi4 wall time for execution: 0:00:00.44

*** Psi4 exiting successfully. Buy a developer a beer!
