                               Psi4 1.9.1 release

  ==> Input File <==

--------------------------------------------------------------------------
molecule {
1 5
Cl           0.000000           0.000000           0.000000
}

set {
basis              cc-pvtz
reference          uks
maxiter            500
DAMPING_PERCENTAGE 1
E_CONVERGENCE      1.0E-8
D_CONVERGENCE      1.0E-8
DIIS_MAX_VECS      400
MBIS_MAXITER       8000
guess              SAP
}

energy('b3lyp')
--------------------------------------------------------------------------

    Molecular point group: d2h
    Geometry (in Angstrom), charge = 1, multiplicity = 5:

       Center              X                  Y                   Z               Mass
    ------------   -----------------  -----------------  -----------------  -----------------
         CL           0.000000000000     0.000000000000     0.000000000000    34.968852682000

  Charge       = 1
  Multiplicity = 5
  Basis Set: CC-PVTZ
    Blend: CC-PVTZ
  Basis Set: (CC-PVTZ AUX)
    Blend: CC-PVTZ-JKFIT

    Orbital Energies [Eh]
    ---------------------

    Alpha Occupied:

       1Ag  -102.213954     2Ag   -10.061460     1B3u   -7.833941
       1B2u   -7.826786     1B1u   -7.826786     3Ag    -1.337218
       2B3u   -0.842934     2B1u   -0.837901     2B2u   -0.837901
       4Ag    -0.113785

    Alpha Virtual:

       5Ag    -0.023967     1B1g   -0.016619     1B2g   -0.016619
       1B3g    0.010589     3B3u    0.014371     3B2u    0.022937
       3B1u    0.022937     6Ag     0.044105     7Ag     1.368932
       8Ag     1.376201     2B1g    1.383350     2B2g    1.383350
       2B3g    1.408428     4B3u    1.556624     4B2u    1.560337
       4B1u    1.560337     5B3u    1.564962     5B2u    1.582369
       5B1u    1.582369     1Au     1.589449     6B3u    1.694697
       6B1u    1.707669     6B2u    1.707669     9Ag     3.578767

    Beta Occupied:

       1Ag  -102.191230     2Ag   -10.038461     1B3u   -7.800419
       1B2u   -7.791882     1B1u   -7.791882     3Ag    -1.147648

    Beta Virtual:

       2B3u   -0.628208     2B2u   -0.591630     2B1u   -0.591630
       3B3u    0.047987     3B2u    0.066442     3B1u    0.066442
       4Ag     0.097344     1B1g    0.105900     1B2g    0.105900
       5Ag     0.106024     1B3g    0.121451     6Ag     0.145501
       7Ag     1.469649     2B1g    1.474731     2B2g    1.474731
       2B3g    1.490634     8Ag     1.508071     4B3u    1.690165
       4B2u    1.692422     4B1u    1.692422     1Au     1.696772
       5B3u    1.713522     5B2u    1.730626     5B1u    1.730626
       6B3u    1.769454     6B1u    1.797930     6B2u    1.797930
       9Ag     3.644416

    Final Occupation by Irrep:
             Ag   B1g   B2g   B3g    Au   B1u   B2u   B3u
    DOCC [     3,    0,    0,    0,    0,    1,    1,    1 ]
    SOCC [     1,    0,    0,    0,    0,    1,    1,    1 ]
    NA   [     4,    0,    0,    0,    0,    2,    2,    2 ]
    NB   [     3,    0,    0,    0,    0,    1,    1,    1 ]

  @DF-UKS Final Energy:  -459.08117337823188

   => Energetics <=

    Nuclear Repulsion Energy =              0.0000000000000000
    One-Electron Energy =                -625.7259123783983341
    Two-Electron Energy =                 189.0827677436389820
    DFT Exchange-Correlation Energy =     -22.4380287434725432
    Empirical Dispersion Energy =           0.0000000000000000
    VV10 Nonlocal Energy =                  0.0000000000000000
    Total Energy =                       -459.0811733782318811

  UHF NO Occupations:
  HONO-2 :    4 Ag 1.0000000
  HONO-1 :    2B1u 1.0000000
  HONO-0 :    2B2u 1.0000000
  LUNO+0 :    5 Ag 0.0003922
  LUNO+1 :    3B2u 0.0000002
  LUNO+2 :    3B1u 0.0000002
  LUNO+3 :    3B3u 0.0000002

Computation Completed

Properties will be evaluated at   0.000000,   0.000000,   0.000000 [a0]

Properties computed using the SCF density matrix

 Multipole Moments:

 ------------------------------------------------------------------------------------
     Multipole            Electronic (a.u.)      Nuclear  (a.u.)        Total (a.u.)
 ------------------------------------------------------------------------------------

 L = 1.  Multiply by 2.5417464519 to convert [e a0] to [Debye]
 Dipole X            :          0.0000000            0.0000000            0.0000000
 Dipole Y            :          0.0000000            0.0000000            0.0000000
 Dipole Z            :          0.0000000            0.0000000            0.0000000
 Magnitude           :                                                    0.0000000

 ------------------------------------------------------------------------------------

*** tstop() called on Joses-MacBook-Pro-2.local at Sat Jan 25 21:33:08 2025
Module time:
	user time   =       3.98 seconds =       0.07 minutes
	system time =       1.14 seconds =       0.02 minutes
	total time  =          1 seconds =       0.02 minutes
Total time:
	user time   =       3.98 seconds =       0.07 minutes
	system time =       1.14 seconds =       0.02 minutes
	total time  =          1 seconds =       0.02 minutes

    Psi4 stopped on: Saturday, 25 January 2025 09:33PM
    Psi4 wall time for execution: 0:00:00.56

*** Psi4 exiting successfully. Buy a developer a beer!
