                               Psi4 1.9.1 release

  ==> Input File <==

--------------------------------------------------------------------------
molecule {
1 5
P           0.000000           0.000000           0.000000
}

set {
basis              cc-pvtz
reference          uks
maxiter            500
DAMPING_PERCENTAGE 1
E_CONVERGENCE      1.0E-8
D_CONVERGENCE      1.0E-8
DIIS_MAX_VECS      400
MBIS_MAXITER       8000
guess              SAP
}

energy('b3lyp')
--------------------------------------------------------------------------

    Molecular point group: d2h
    Geometry (in Angstrom), charge = 1, multiplicity = 5:

       Center              X                  Y                   Z               Mass
    ------------   -----------------  -----------------  -----------------  -----------------
         P            0.000000000000     0.000000000000     0.000000000000    30.973761998420

  Charge       = 1
  Multiplicity = 5
  Basis Set: CC-PVTZ
    Blend: CC-PVTZ
  Basis Set: (CC-PVTZ AUX)
    Blend: CC-PVTZ-JKFIT

    Orbital Energies [Eh]
    ---------------------

    Alpha Occupied:

       1Ag   -77.578253     2Ag    -7.030173     1B3u   -5.195009
       1B2u   -5.195009     1B1u   -5.195009     3Ag    -0.991803
       2B1u   -0.624302     2B3u   -0.624302     2B2u   -0.624302

    Alpha Virtual:

       4Ag    -0.074599     5Ag    -0.074599     1B1g   -0.074599
       1B2g   -0.074599     1B3g   -0.074599     6Ag    -0.045755
       3B1u   -0.000187     3B2u   -0.000187     3B3u   -0.000187
       7Ag     0.846831     8Ag     0.846831     2B2g    0.846831
       2B1g    0.846831     2B3g    0.846831     4B3u    0.937903
       4B1u    0.937903     5B1u    0.937903     1Au     0.937903
       4B2u    0.937903     5B2u    0.937903     5B3u    0.937903
       6B2u    1.473677     6B3u    1.473677     6B1u    1.473677
       9Ag     2.206854

    Beta Occupied:

       1Ag   -77.553125     2Ag    -6.999836     1B3u   -5.160801
       1B2u   -5.160801     1B1u   -5.160801

    Beta Virtual:

       3Ag    -0.709294     2B1u   -0.386528     2B3u   -0.386528
       2B2u   -0.386528     4Ag     0.033626     3B1u    0.065720
       3B3u    0.065720     3B2u    0.065720     5Ag     0.071315
       1B2g    0.071315     1B3g    0.071315     1B1g    0.071315
       6Ag     0.071315     2B2g    0.964956     7Ag     0.964956
       2B1g    0.964956     8Ag     0.964956     2B3g    0.964956
       4B3u    1.092210     4B2u    1.092210     4B1u    1.092210
       1Au     1.092210     5B1u    1.092210     5B2u    1.092210
       5B3u    1.092210     6B2u    1.560722     6B3u    1.560722
       6B1u    1.560722     9Ag     2.286233

    Final Occupation by Irrep:
             Ag   B1g   B2g   B3g    Au   B1u   B2u   B3u
    DOCC [     2,    0,    0,    0,    0,    1,    1,    1 ]
    SOCC [     1,    0,    0,    0,    0,    1,    1,    1 ]
    NA   [     3,    0,    0,    0,    0,    2,    2,    2 ]
    NB   [     2,    0,    0,    0,    0,    1,    1,    1 ]

  @DF-UKS Final Energy:  -340.68268702662664

   => Energetics <=

    Nuclear Repulsion Energy =              0.0000000000000000
    One-Electron Energy =                -465.1388492256317022
    Two-Electron Energy =                 142.9159631676820652
    DFT Exchange-Correlation Energy =     -18.4598009686769835
    Empirical Dispersion Energy =           0.0000000000000000
    VV10 Nonlocal Energy =                  0.0000000000000000
    Total Energy =                       -340.6826870266265814

  UHF NO Occupations:
  HONO-2 :    2B2u 1.0000000
  HONO-1 :    2B1u 1.0000000
  HONO-0 :    3 Ag 1.0000000
  LUNO+0 :    4 Ag 0.0000009
  LUNO+1 :    3B3u 0.0000007
  LUNO+2 :    3B2u 0.0000007
  LUNO+3 :    3B1u 0.0000007

Computation Completed

Properties will be evaluated at   0.000000,   0.000000,   0.000000 [a0]

Properties computed using the SCF density matrix

 Multipole Moments:

 ------------------------------------------------------------------------------------
     Multipole            Electronic (a.u.)      Nuclear  (a.u.)        Total (a.u.)
 ------------------------------------------------------------------------------------

 L = 1.  Multiply by 2.5417464519 to convert [e a0] to [Debye]
 Dipole X            :          0.0000000            0.0000000            0.0000000
 Dipole Y            :          0.0000000            0.0000000            0.0000000
 Dipole Z            :          0.0000000            0.0000000            0.0000000
 Magnitude           :                                                    0.0000000

 ------------------------------------------------------------------------------------

*** tstop() called on Joses-MacBook-Pro-2.local at Sat Jan 25 21:33:00 2025
Module time:
	user time   =       3.67 seconds =       0.06 minutes
	system time =       1.51 seconds =       0.03 minutes
	total time  =          1 seconds =       0.02 minutes
Total time:
	user time   =       3.67 seconds =       0.06 minutes
	system time =       1.51 seconds =       0.03 minutes
	total time  =          1 seconds =       0.02 minutes

    Psi4 stopped on: Saturday, 25 January 2025 09:33PM
    Psi4 wall time for execution: 0:00:00.57

*** Psi4 exiting successfully. Buy a developer a beer!
