                               Psi4 1.9.1 release

  ==> Input File <==

--------------------------------------------------------------------------
molecule {
1 5
Na           0.000000           0.000000           0.000000
}

set {
basis              cc-pvtz
reference          uks
maxiter            500
DAMPING_PERCENTAGE 1
E_CONVERGENCE      1.0E-8
D_CONVERGENCE      1.0E-8
DIIS_MAX_VECS      400
MBIS_MAXITER       8000
guess              SAP
}

energy('b3lyp')
--------------------------------------------------------------------------

    Molecular point group: d2h
    Geometry (in Angstrom), charge = 1, multiplicity = 5:

       Center              X                  Y                   Z               Mass
    ------------   -----------------  -----------------  -----------------  -----------------
         NA           0.000000000000     0.000000000000     0.000000000000    22.989769282000

  Charge       = 1
  Multiplicity = 5
  Basis Set: CC-PVTZ
    Blend: CC-PVTZ
  Basis Set: (CC-PVTZ AUX)
    Blend: DEF2-UNIVERSAL-JKFIT

    Orbital Energies [Eh]
    ---------------------

    Alpha Occupied:

       1Ag   -40.974171     2Ag    -3.968520     1B2u   -2.914843
       1B3u   -2.908714     1B1u   -2.793453     3Ag    -0.593915
       2B3u   -0.386644

    Alpha Virtual:

       2B2u   -0.328518     2B1u   -0.319772     1B1g   -0.142924
       1B2g   -0.139219     4Ag    -0.137357     5Ag    -0.132843
       1B3g   -0.126688     6Ag    -0.126197     3B2u   -0.091651
       3B1u   -0.090777     3B3u   -0.089986     4B3u   -0.006346
       4B2u   -0.005356     4B1u   -0.003569     2B1g    0.085619
       2B2g    0.089520     7Ag     0.089778     2B3g    0.094707
       8Ag     0.095716     5B3u    0.134412     1Au     0.135563
       5B2u    0.137717     6B3u    0.138343     5B1u    0.140647
       6B2u    0.147303     6B1u    0.147354     9Ag     0.476171

    Beta Occupied:

       1Ag   -40.881651     2Ag    -3.708113     1B1u   -2.698705

    Beta Virtual:

       1B2u   -2.453257     1B3u   -2.444814     3Ag    -0.462301
       2B1u   -0.272642     2B2u   -0.267120     2B3u   -0.236333
       4Ag    -0.124624     1B3g   -0.099836     5Ag    -0.096522
       3B1u   -0.088531     3B2u   -0.084966     1B2g   -0.083111
       3B3u   -0.078393     1B1g   -0.076245     6Ag    -0.070691
       4B1u    0.001861     4B2u    0.006395     4B3u    0.015963
       2B3g    0.115928     7Ag     0.116882     2B2g    0.133140
       2B1g    0.134932     8Ag     0.140703     5B1u    0.170492
       5B2u    0.174137     1Au     0.187292     5B3u    0.191415
       6B1u    0.195264     6B2u    0.204164     6B3u    0.206918
       9Ag     0.568135

    Final Occupation by Irrep:
             Ag   B1g   B2g   B3g    Au   B1u   B2u   B3u
    DOCC [     2,    0,    0,    0,    0,    1,    0,    0 ]
    SOCC [     1,    0,    0,    0,    0,    0,    1,    2 ]
    NA   [     3,    0,    0,    0,    0,    1,    1,    2 ]
    NB   [     2,    0,    0,    0,    0,    1,    0,    0 ]

  @DF-UKS Final Energy:  -158.89270244109488

   => Energetics <=

    Nuclear Repulsion Energy =              0.0000000000000000
    One-Electron Energy =                -208.5189476493160896
    Two-Electron Energy =                  59.9993069949499613
    DFT Exchange-Correlation Energy =     -10.3730617867287460
    Empirical Dispersion Energy =           0.0000000000000000
    VV10 Nonlocal Energy =                  0.0000000000000000
    Total Energy =                       -158.8927024410948832

  UHF NO Occupations:
  HONO-2 :    1B3u 1.0000000
  HONO-1 :    1B2u 1.0000000
  HONO-0 :    2B3u 1.0000000
  LUNO+0 :    4 Ag 0.0000906
  LUNO+1 :    2B1u 0.0000041
  LUNO+2 :    5 Ag 0.0000000
  LUNO+3 :    3B3u 0.0000000

Computation Completed

Properties will be evaluated at   0.000000,   0.000000,   0.000000 [a0]

Properties computed using the SCF density matrix

 Multipole Moments:

 ------------------------------------------------------------------------------------
     Multipole            Electronic (a.u.)      Nuclear  (a.u.)        Total (a.u.)
 ------------------------------------------------------------------------------------

 L = 1.  Multiply by 2.5417464519 to convert [e a0] to [Debye]
 Dipole X            :          0.0000000            0.0000000            0.0000000
 Dipole Y            :          0.0000000            0.0000000            0.0000000
 Dipole Z            :          0.0000000            0.0000000            0.0000000
 Magnitude           :                                                    0.0000000

 ------------------------------------------------------------------------------------

*** tstop() called on Joses-MacBook-Pro-2.local at Sat Jan 25 21:32:43 2025
Module time:
	user time   =       3.38 seconds =       0.06 minutes
	system time =       1.43 seconds =       0.02 minutes
	total time  =          0 seconds =       0.00 minutes
Total time:
	user time   =       3.38 seconds =       0.06 minutes
	system time =       1.43 seconds =       0.02 minutes
	total time  =          0 seconds =       0.00 minutes

    Psi4 stopped on: Saturday, 25 January 2025 09:32PM
    Psi4 wall time for execution: 0:00:00.62

*** Psi4 exiting successfully. Buy a developer a beer!
