                               Psi4 1.9.1 release

  ==> Input File <==

--------------------------------------------------------------------------
molecule {
1 6
Si           0.000000           0.000000           0.000000
}

set {
basis              cc-pvtz
reference          uks
maxiter            500
DAMPING_PERCENTAGE 1
E_CONVERGENCE      1.0E-8
D_CONVERGENCE      1.0E-8
DIIS_MAX_VECS      400
MBIS_MAXITER       8000
guess              SAP
}

energy('b3lyp')
--------------------------------------------------------------------------

    Molecular point group: d2h
    Geometry (in Angstrom), charge = 1, multiplicity = 6:

       Center              X                  Y                   Z               Mass
    ------------   -----------------  -----------------  -----------------  -----------------
         SI           0.000000000000     0.000000000000     0.000000000000    27.976926534650

  Charge       = 1
  Multiplicity = 6
  Basis Set: CC-PVTZ
    Blend: CC-PVTZ
  Basis Set: (CC-PVTZ AUX)
    Blend: CC-PVTZ-JKFIT

    Orbital Energies [Eh]
    ---------------------

    Alpha Occupied:

       1Ag   -67.763782     2Ag    -6.476841     1B3u   -5.018032
       1B1u   -4.827241     1B2u   -4.827241     3Ag    -0.951102
       2B3u   -0.631064     2B2u   -0.607841     2B1u   -0.607841

    Alpha Virtual:

       4Ag    -0.118178     1B1g   -0.115575     1B2g   -0.115575
       1B3g   -0.110682     5Ag    -0.110682     6Ag    -0.109623
       3B3u   -0.047398     3B1u   -0.040364     3B2u   -0.040364
       7Ag     0.519465     2B1g    0.523099     2B2g    0.523099
       2B3g    0.534427     8Ag     0.534427     4B3u    0.636759
       4B1u    0.637420     4B2u    0.637420     5B3u    0.639415
       1Au     0.639415     5B1u    0.642797     5B2u    0.642797
       9Ag     1.343122     6B3u    1.381703     6B2u    1.438025
       6B1u    1.438025

    Beta Occupied:

       1Ag   -67.662662     2Ag    -6.277037     1B1u   -4.722107
       1B2u   -4.722107

    Beta Virtual:

       1B3u   -4.363982     3Ag    -0.666059     2B2u   -0.377504
       2B1u   -0.377504     2B3u   -0.370897     4Ag    -0.047118
       1B3g    0.010391     5Ag     0.010391     1B1g    0.010399
       1B2g    0.010399     6Ag     0.012577     3B1u    0.013407
       3B2u    0.013407     3B3u    0.018780     2B1g    0.645732
       2B2g    0.645732     7Ag     0.647791     2B3g    0.648371
       8Ag     0.648371     1Au     0.770730     4B3u    0.770730
       4B1u    0.771274     4B2u    0.771274     5B2u    0.771639
       5B1u    0.771639     5B3u    0.773950     9Ag     1.447778
       6B2u    1.532559     6B1u    1.532559     6B3u    1.550501

    Final Occupation by Irrep:
             Ag   B1g   B2g   B3g    Au   B1u   B2u   B3u
    DOCC [     2,    0,    0,    0,    0,    1,    1,    0 ]
    SOCC [     1,    0,    0,    0,    0,    1,    1,    2 ]
    NA   [     3,    0,    0,    0,    0,    2,    2,    2 ]
    NB   [     2,    0,    0,    0,    0,    1,    1,    0 ]

  @DF-UKS Final Energy:  -285.20269269494605

   => Energetics <=

    Nuclear Repulsion Energy =              0.0000000000000000
    One-Electron Energy =                -383.8893590014342863
    Two-Electron Energy =                 114.7033706548898238
    DFT Exchange-Correlation Energy =     -16.0167043484015714
    Empirical Dispersion Energy =           0.0000000000000000
    VV10 Nonlocal Energy =                  0.0000000000000000
    Total Energy =                       -285.2026926949460517

  UHF NO Occupations:
  HONO-2 :    1B3u 1.0000000
  HONO-1 :    2B1u 1.0000000
  HONO-0 :    2B3u 1.0000000
  LUNO+0 :    4 Ag 0.0000284
  LUNO+1 :    3B1u 0.0000112
  LUNO+2 :    3B2u 0.0000112
  LUNO+3 :    5 Ag 0.0000000

Computation Completed

Properties will be evaluated at   0.000000,   0.000000,   0.000000 [a0]

Properties computed using the SCF density matrix

 Multipole Moments:

 ------------------------------------------------------------------------------------
     Multipole            Electronic (a.u.)      Nuclear  (a.u.)        Total (a.u.)
 ------------------------------------------------------------------------------------

 L = 1.  Multiply by 2.5417464519 to convert [e a0] to [Debye]
 Dipole X            :          0.0000000            0.0000000            0.0000000
 Dipole Y            :          0.0000000            0.0000000            0.0000000
 Dipole Z            :          0.0000000            0.0000000            0.0000000
 Magnitude           :                                                    0.0000000

 ------------------------------------------------------------------------------------

*** tstop() called on Joses-MacBook-Pro-2.local at Sat Jan 25 21:32:56 2025
Module time:
	user time   =       4.10 seconds =       0.07 minutes
	system time =       1.31 seconds =       0.02 minutes
	total time  =          1 seconds =       0.02 minutes
Total time:
	user time   =       4.10 seconds =       0.07 minutes
	system time =       1.31 seconds =       0.02 minutes
	total time  =          1 seconds =       0.02 minutes

    Psi4 stopped on: Saturday, 25 January 2025 09:32PM
    Psi4 wall time for execution: 0:00:00.58

*** Psi4 exiting successfully. Buy a developer a beer!
