                               Psi4 1.9.1 release

  ==> Input File <==

--------------------------------------------------------------------------
molecule {
1 6
Ar           0.000000           0.000000           0.000000
}

set {
basis              cc-pvtz
reference          uks
maxiter            500
DAMPING_PERCENTAGE 1
E_CONVERGENCE      1.0E-8
D_CONVERGENCE      1.0E-8
DIIS_MAX_VECS      400
MBIS_MAXITER       8000
guess              SAP
}

energy('b3lyp')
--------------------------------------------------------------------------

    Molecular point group: d2h
    Geometry (in Angstrom), charge = 1, multiplicity = 6:

       Center              X                  Y                   Z               Mass
    ------------   -----------------  -----------------  -----------------  -----------------
         AR           0.000000000000     0.000000000000     0.000000000000    39.962383123700

  Charge       = 1
  Multiplicity = 6
  Basis Set: CC-PVTZ
    Blend: CC-PVTZ
  Basis Set: (CC-PVTZ AUX)
    Blend: CC-PVTZ-JKFIT

    Orbital Energies [Eh]
    ---------------------

    Alpha Occupied:

       1Ag  -115.919678     2Ag   -11.825162     1B3u   -9.394188
       1B2u   -9.394188     1B1u   -9.394188     3Ag    -1.557067
       2B3u   -0.988134     2B2u   -0.988134     2B1u   -0.988134
       4Ag    -0.117610     1B3g   -0.117610

    Alpha Virtual:

       1B1g    0.013594     1B2g    0.013594     5Ag     0.013594
       3B3u    0.047582     3B2u    0.047582     3B1u    0.047582
       6Ag     0.095405     7Ag     1.604146     2B3g    1.604146
       2B1g    1.643950     2B2g    1.643950     8Ag     1.643951
       4B2u    1.985735     4B1u    1.985735     4B3u    1.985736
       5B2u    1.996084     5B1u    1.996084     5B3u    1.996084
       6B2u    2.009601     6B1u    2.009601     1Au     2.009602
       6B3u    2.044785     9Ag     4.379401

    Beta Occupied:

       1Ag  -115.893003     2Ag   -11.796914     1B3u   -9.352860
       1B2u   -9.352860     1B1u   -9.352860     3Ag    -1.318877

    Beta Virtual:

       2B3u   -0.696414     2B2u   -0.696413     2B1u   -0.696413
       3B3u    0.096901     3B2u    0.096901     3B1u    0.096901
       1B1g    0.157052     1B2g    0.157052     4Ag     0.157053
       5Ag     0.172416     6Ag     0.183583     1B3g    0.183583
       2B1g    1.747207     2B2g    1.747207     7Ag     1.747207
       8Ag     1.766498     2B3g    1.766498     4B3u    2.098456
       4B2u    2.098456     4B1u    2.098456     5B3u    2.163886
       5B2u    2.182696     5B1u    2.182696     1Au     2.182697
       6B1u    2.197960     6B2u    2.197960     6B3u    2.197961
       9Ag     4.464872

    Final Occupation by Irrep:
             Ag   B1g   B2g   B3g    Au   B1u   B2u   B3u
    DOCC [     3,    0,    0,    0,    0,    1,    1,    1 ]
    SOCC [     1,    0,    0,    1,    0,    1,    1,    1 ]
    NA   [     4,    0,    0,    1,    0,    2,    2,    2 ]
    NB   [     3,    0,    0,    0,    0,    1,    1,    1 ]

  @DF-UKS Final Energy:  -525.49063499013732

   => Energetics <=

    Nuclear Repulsion Energy =              0.0000000000000000
    One-Electron Energy =                -715.7802049032504783
    Two-Electron Energy =                 214.8743899737571610
    DFT Exchange-Correlation Energy =     -24.5848200606440415
    Empirical Dispersion Energy =           0.0000000000000000
    VV10 Nonlocal Energy =                  0.0000000000000000
    Total Energy =                       -525.4906349901373233

  UHF NO Occupations:
  HONO-2 :    1B3g 1.0000000
  HONO-1 :    2B3u 1.0000000
  HONO-0 :    4 Ag 1.0000000
  LUNO+0 :    5 Ag 0.0002598
  LUNO+1 :    3B1u 0.0000002
  LUNO+2 :    3B2u 0.0000002
  LUNO+3 :    3B3u 0.0000002

Computation Completed

Properties will be evaluated at   0.000000,   0.000000,   0.000000 [a0]

Properties computed using the SCF density matrix

 Multipole Moments:

 ------------------------------------------------------------------------------------
     Multipole            Electronic (a.u.)      Nuclear  (a.u.)        Total (a.u.)
 ------------------------------------------------------------------------------------

 L = 1.  Multiply by 2.5417464519 to convert [e a0] to [Debye]
 Dipole X            :          0.0000000            0.0000000            0.0000000
 Dipole Y            :          0.0000000            0.0000000            0.0000000
 Dipole Z            :          0.0000000            0.0000000            0.0000000
 Magnitude           :                                                    0.0000000

 ------------------------------------------------------------------------------------

*** tstop() called on Joses-MacBook-Pro-2.local at Sat Jan 25 21:33:13 2025
Module time:
	user time   =       5.33 seconds =       0.09 minutes
	system time =       1.61 seconds =       0.03 minutes
	total time  =          1 seconds =       0.02 minutes
Total time:
	user time   =       5.33 seconds =       0.09 minutes
	system time =       1.61 seconds =       0.03 minutes
	total time  =          1 seconds =       0.02 minutes

    Psi4 stopped on: Saturday, 25 January 2025 09:33PM
    Psi4 wall time for execution: 0:00:00.73

*** Psi4 exiting successfully. Buy a developer a beer!
