                               Psi4 1.9.1 release

  ==> Input File <==

--------------------------------------------------------------------------
molecule {
1 6
Ne           0.000000           0.000000           0.000000
}

set {
basis              cc-pvtz
reference          uks
maxiter            500
DAMPING_PERCENTAGE 1
E_CONVERGENCE      1.0E-8
D_CONVERGENCE      1.0E-8
DIIS_MAX_VECS      400
MBIS_MAXITER       8000
guess              SAP
}

energy('b3lyp')
--------------------------------------------------------------------------

    Molecular point group: d2h
    Geometry (in Angstrom), charge = 1, multiplicity = 6:

       Center              X                  Y                   Z               Mass
    ------------   -----------------  -----------------  -----------------  -----------------
         NE           0.000000000000     0.000000000000     0.000000000000    19.992440176200

  Charge       = 1
  Multiplicity = 6
  Basis Set: CC-PVTZ
    Blend: CC-PVTZ
  Basis Set: (CC-PVTZ AUX)
    Blend: CC-PVTZ-JKFIT

    Orbital Energies [Eh]
    ---------------------

    Alpha Occupied:

       1Ag   -32.858948     2Ag    -2.961422     1B3u   -2.099367
       1B2u   -2.096700     1B1u   -2.096700     2B1u   -0.049335
       2B2u   -0.049335

    Alpha Virtual:

       2B3u    0.053622     3Ag     0.153893     4Ag     1.343571
       1B1g    1.346554     1B2g    1.346554     5Ag     1.364483
       1B3g    1.364483     3B3u    4.077761     3B1u    4.080519
       3B2u    4.080519     4B3u    7.629021     4B1u    7.632429
       4B2u    7.632429     5B3u    7.642985     1Au     7.642985
       5B1u    7.661298     5B2u    7.661298     2B1g    8.880746
       2B2g    8.880746     6Ag     8.881261     7Ag     8.883616
       2B3g    8.883616     8Ag     9.474659

    Beta Occupied:

       1Ag   -32.698985     2Ag    -2.593355

    Beta Virtual:

       1B3u   -1.593209     1B1u   -1.559419     1B2u   -1.559419
       2B3u    0.162872     2B1u    0.216850     2B2u    0.216850
       3Ag     0.345696     4Ag     1.492543     1B1g    1.499422
       1B2g    1.499422     1B3g    1.526831     5Ag     1.526831
       3B3u    4.316457     3B1u    4.349635     3B2u    4.349635
       4B3u    7.835530     4B1u    7.838783     4B2u    7.838783
       1Au     7.848998     5B3u    7.848998     5B1u    7.866596
       5B2u    7.866596     6Ag     9.213168     2B1g    9.220707
       2B2g    9.220707     2B3g    9.244994     7Ag     9.244994
       8Ag     9.721727

    Final Occupation by Irrep:
             Ag   B1g   B2g   B3g    Au   B1u   B2u   B3u
    DOCC [     2,    0,    0,    0,    0,    0,    0,    0 ]
    SOCC [     0,    0,    0,    0,    0,    2,    2,    1 ]
    NA   [     2,    0,    0,    0,    0,    2,    2,    1 ]
    NB   [     2,    0,    0,    0,    0,    0,    0,    0 ]

  @DF-UKS Final Energy:  -125.10332093833587

   => Energetics <=

    Nuclear Repulsion Energy =              0.0000000000000000
    One-Electron Energy =                -166.0786764922996213
    Two-Electron Energy =                  50.2278408532273062
    DFT Exchange-Correlation Energy =      -9.2524852992635545
    Empirical Dispersion Energy =           0.0000000000000000
    VV10 Nonlocal Energy =                  0.0000000000000000
    Total Energy =                       -125.1033209383358695

  UHF NO Occupations:
  HONO-2 :    1B3u 1.0000000
  HONO-1 :    1B1u 1.0000000
  HONO-0 :    2B1u 1.0000000
  LUNO+0 :    3 Ag 0.0007286
  LUNO+1 :    4 Ag 0.0000024
  LUNO+2 :    5 Ag 0.0000000
  LUNO+3 :    3B1u 0.0000000

Computation Completed

Properties will be evaluated at   0.000000,   0.000000,   0.000000 [a0]

Properties computed using the SCF density matrix

 Multipole Moments:

 ------------------------------------------------------------------------------------
     Multipole            Electronic (a.u.)      Nuclear  (a.u.)        Total (a.u.)
 ------------------------------------------------------------------------------------

 L = 1.  Multiply by 2.5417464519 to convert [e a0] to [Debye]
 Dipole X            :          0.0000000            0.0000000            0.0000000
 Dipole Y            :          0.0000000            0.0000000            0.0000000
 Dipole Z            :          0.0000000            0.0000000            0.0000000
 Magnitude           :                                                    0.0000000

 ------------------------------------------------------------------------------------

*** tstop() called on Joses-MacBook-Pro-2.local at Sat Jan 25 21:32:39 2025
Module time:
	user time   =       2.36 seconds =       0.04 minutes
	system time =       1.49 seconds =       0.02 minutes
	total time  =          0 seconds =       0.00 minutes
Total time:
	user time   =       2.36 seconds =       0.04 minutes
	system time =       1.49 seconds =       0.02 minutes
	total time  =          0 seconds =       0.00 minutes

    Psi4 stopped on: Saturday, 25 January 2025 09:32PM
    Psi4 wall time for execution: 0:00:00.40

*** Psi4 exiting successfully. Buy a developer a beer!
