                               Psi4 1.9.1 release

  ==> Input File <==

--------------------------------------------------------------------------
molecule {
1 1
F           0.000000           0.000000           0.000000
}

set {
basis              cc-pvtz
reference          uks
maxiter            500
DAMPING_PERCENTAGE 1
E_CONVERGENCE      1.0E-8
D_CONVERGENCE      1.0E-8
DIIS_MAX_VECS      400
MBIS_MAXITER       8000
guess              SAP
}

energy('b3lyp')
--------------------------------------------------------------------------

    Molecular point group: d2h
    Geometry (in Angstrom), charge = 1, multiplicity = 1:

       Center              X                  Y                   Z               Mass
    ------------   -----------------  -----------------  -----------------  -----------------
         F            0.000000000000     0.000000000000     0.000000000000    18.998403162730

  Charge       = 1
  Multiplicity = 1
  Basis Set: CC-PVTZ
    Blend: CC-PVTZ
  Basis Set: (CC-PVTZ AUX)
    Blend: CC-PVTZ-JKFIT

    Orbital Energies [Eh]
    ---------------------

    Alpha Occupied:

       1Ag   -25.564079     2Ag    -1.841143     1B2u   -1.103809
       1B1u   -1.103809

    Alpha Virtual:

       1B3u   -1.003487     2B3u    0.216724     2B2u    0.235385
       2B1u    0.235385     3Ag     0.392158     4Ag     1.317832
       1B1g    1.321416     1B2g    1.321416     1B3g    1.367140
       5Ag     1.367140     3B3u    3.764219     3B1u    3.801098
       3B2u    3.801098     4B3u    6.123199     4B1u    6.123977
       4B2u    6.123977     1Au     6.149117     5B3u    6.149117
       5B2u    6.209240     5B1u    6.209240     2B1g    7.440695
       2B2g    7.440695     6Ag     7.448943     2B3g    7.503128
       7Ag     7.503128     8Ag     8.142884

    Beta Occupied:

       1Ag   -25.564079     2Ag    -1.841143     1B2u   -1.103809
       1B1u   -1.103809

    Beta Virtual:

       1B3u   -1.003487     2B3u    0.216724     2B2u    0.235385
       2B1u    0.235385     3Ag     0.392158     4Ag     1.317832
       1B1g    1.321416     1B2g    1.321416     1B3g    1.367140
       5Ag     1.367140     3B3u    3.764219     3B1u    3.801098
       3B2u    3.801098     4B3u    6.123199     4B1u    6.123977
       4B2u    6.123977     1Au     6.149117     5B3u    6.149117
       5B2u    6.209240     5B1u    6.209240     2B1g    7.440695
       2B2g    7.440695     6Ag     7.448943     2B3g    7.503128
       7Ag     7.503128     8Ag     8.142884

    Final Occupation by Irrep:
             Ag   B1g   B2g   B3g    Au   B1u   B2u   B3u
    DOCC [     2,    0,    0,    0,    0,    1,    1,    0 ]
    SOCC [     0,    0,    0,    0,    0,    0,    0,    0 ]
    NA   [     2,    0,    0,    0,    0,    1,    1,    0 ]
    NB   [     2,    0,    0,    0,    0,    1,    1,    0 ]

  @DF-UKS Final Energy:   -98.98043782136523

   => Energetics <=

    Nuclear Repulsion Energy =              0.0000000000000000
    One-Electron Energy =                -133.0167951617393669
    Two-Electron Energy =                  41.9924281832305013
    DFT Exchange-Correlation Energy =      -7.9560708428563602
    Empirical Dispersion Energy =           0.0000000000000000
    VV10 Nonlocal Energy =                  0.0000000000000000
    Total Energy =                        -98.9804378213652285

  UHF NO Occupations:
  HONO-2 :    1 Ag 2.0000000
  HONO-1 :    1B1u 2.0000000
  HONO-0 :    2 Ag 2.0000000
  LUNO+0 :    3 Ag 0.0000000
  LUNO+1 :    2B2u 0.0000000
  LUNO+2 :    3B2u 0.0000000
  LUNO+3 :    4 Ag 0.0000000

Computation Completed

Properties will be evaluated at   0.000000,   0.000000,   0.000000 [a0]

Properties computed using the SCF density matrix

 Multipole Moments:

 ------------------------------------------------------------------------------------
     Multipole            Electronic (a.u.)      Nuclear  (a.u.)        Total (a.u.)
 ------------------------------------------------------------------------------------

 L = 1.  Multiply by 2.5417464519 to convert [e a0] to [Debye]
 Dipole X            :          0.0000000            0.0000000            0.0000000
 Dipole Y            :          0.0000000            0.0000000            0.0000000
 Dipole Z            :          0.0000000            0.0000000            0.0000000
 Magnitude           :                                                    0.0000000

 ------------------------------------------------------------------------------------

*** tstop() called on Joses-MacBook-Pro-2.local at Sat Jan 25 21:32:33 2025
Module time:
	user time   =       2.39 seconds =       0.04 minutes
	system time =       2.53 seconds =       0.04 minutes
	total time  =          1 seconds =       0.02 minutes
Total time:
	user time   =       2.39 seconds =       0.04 minutes
	system time =       2.53 seconds =       0.04 minutes
	total time  =          1 seconds =       0.02 minutes

    Psi4 stopped on: Saturday, 25 January 2025 09:32PM
    Psi4 wall time for execution: 0:00:00.51

*** Psi4 exiting successfully. Buy a developer a beer!
