                               Psi4 1.9.1 release

  ==> Input File <==

--------------------------------------------------------------------------
molecule {
1 1
Li           0.000000           0.000000           0.000000
}

set {
basis              cc-pvtz
reference          uks
maxiter            500
DAMPING_PERCENTAGE 1
E_CONVERGENCE      1.0E-8
D_CONVERGENCE      1.0E-8
DIIS_MAX_VECS      400
MBIS_MAXITER       8000
guess              SAP
}

energy('b3lyp')
--------------------------------------------------------------------------

    Molecular point group: d2h
    Geometry (in Angstrom), charge = 1, multiplicity = 1:

       Center              X                  Y                   Z               Mass
    ------------   -----------------  -----------------  -----------------  -----------------
         LI           0.000000000000     0.000000000000     0.000000000000     7.016003436600

  Charge       = 1
  Multiplicity = 1
  Basis Set: CC-PVTZ
    Blend: CC-PVTZ
  Basis Set: (CC-PVTZ AUX)
    Blend: DEF2-UNIVERSAL-JKFIT

    Orbital Energies [Eh]
    ---------------------

    Alpha Occupied:

       1Ag    -2.351184

    Alpha Virtual:

       2Ag    -0.256613     1B3u   -0.181632     1B2u   -0.181632
       1B1u   -0.181632     3Ag    -0.067585     2B3u   -0.067295
       2B2u   -0.067295     2B1u   -0.067295     1B3g    0.005665
       4Ag     0.005665     1B2g    0.005665     1B1g    0.005665
       5Ag     0.005665     3B3u    0.122539     3B2u    0.122539
       3B1u    0.122539     4B2u    0.285141     4B3u    0.285141
       4B1u    0.285141     5B1u    0.285141     5B2u    0.285141
       1Au     0.285141     5B3u    0.285141     2B3g    0.388692
       2B2g    0.388692     6Ag     0.388692     2B1g    0.388692
       7Ag     0.388692     8Ag     1.980893

    Beta Occupied:

       1Ag    -2.351184

    Beta Virtual:

       2Ag    -0.256613     1B3u   -0.181632     1B2u   -0.181632
       1B1u   -0.181632     3Ag    -0.067585     2B3u   -0.067295
       2B2u   -0.067295     2B1u   -0.067295     1B3g    0.005665
       1B2g    0.005665     4Ag     0.005665     1B1g    0.005665
       5Ag     0.005665     3B3u    0.122539     3B2u    0.122539
       3B1u    0.122539     4B2u    0.285141     4B1u    0.285141
       4B3u    0.285141     5B1u    0.285141     5B2u    0.285141
       1Au     0.285141     5B3u    0.285141     2B2g    0.388692
       2B3g    0.388692     6Ag     0.388692     2B1g    0.388692
       7Ag     0.388692     8Ag     1.980893

    Final Occupation by Irrep:
             Ag   B1g   B2g   B3g    Au   B1u   B2u   B3u
    DOCC [     1,    0,    0,    0,    0,    0,    0,    0 ]
    SOCC [     0,    0,    0,    0,    0,    0,    0,    0 ]
    NA   [     1,    0,    0,    0,    0,    0,    0,    0 ]
    NB   [     1,    0,    0,    0,    0,    0,    0,    0 ]

  @DF-UKS Final Energy:    -7.28538775035253

   => Energetics <=

    Nuclear Repulsion Energy =              0.0000000000000000
    One-Electron Energy =                  -8.8813982844491477
    Two-Electron Energy =                   2.9616409443687512
    DFT Exchange-Correlation Energy =      -1.3656304102721308
    Empirical Dispersion Energy =           0.0000000000000000
    VV10 Nonlocal Energy =                  0.0000000000000000
    Total Energy =                         -7.2853877503525268

  UHF NO Occupations:
  HONO-0 :    1 Ag 2.0000000
  LUNO+0 :    2 Ag 0.0000000
  LUNO+1 :    3 Ag 0.0000000
  LUNO+2 :    4 Ag 0.0000000
  LUNO+3 :    5 Ag 0.0000000

Computation Completed

Properties will be evaluated at   0.000000,   0.000000,   0.000000 [a0]

Properties computed using the SCF density matrix

 Multipole Moments:

 ------------------------------------------------------------------------------------
     Multipole            Electronic (a.u.)      Nuclear  (a.u.)        Total (a.u.)
 ------------------------------------------------------------------------------------

 L = 1.  Multiply by 2.5417464519 to convert [e a0] to [Debye]
 Dipole X            :          0.0000000            0.0000000            0.0000000
 Dipole Y            :          0.0000000            0.0000000            0.0000000
 Dipole Z            :          0.0000000            0.0000000            0.0000000
 Magnitude           :                                                    0.0000000

 ------------------------------------------------------------------------------------

*** tstop() called on Joses-MacBook-Pro-2.local at Sat Jan 25 21:32:12 2025
Module time:
	user time   =       0.70 seconds =       0.01 minutes
	system time =       1.84 seconds =       0.03 minutes
	total time  =          1 seconds =       0.02 minutes
Total time:
	user time   =       0.70 seconds =       0.01 minutes
	system time =       1.84 seconds =       0.03 minutes
	total time  =          1 seconds =       0.02 minutes

    Psi4 stopped on: Saturday, 25 January 2025 09:32PM
    Psi4 wall time for execution: 0:00:00.37

*** Psi4 exiting successfully. Buy a developer a beer!
