                               Psi4 1.9.1 release

  ==> Input File <==

--------------------------------------------------------------------------
molecule {
1 1
Na           0.000000           0.000000           0.000000
}

set {
basis              cc-pvtz
reference          uks
maxiter            500
DAMPING_PERCENTAGE 1
E_CONVERGENCE      1.0E-8
D_CONVERGENCE      1.0E-8
DIIS_MAX_VECS      400
MBIS_MAXITER       8000
guess              SAP
}

energy('b3lyp')
--------------------------------------------------------------------------

    Molecular point group: d2h
    Geometry (in Angstrom), charge = 1, multiplicity = 1:

       Center              X                  Y                   Z               Mass
    ------------   -----------------  -----------------  -----------------  -----------------
         NA           0.000000000000     0.000000000000     0.000000000000    22.989769282000

  Charge       = 1
  Multiplicity = 1
  Basis Set: CC-PVTZ
    Blend: CC-PVTZ
  Basis Set: (CC-PVTZ AUX)
    Blend: DEF2-UNIVERSAL-JKFIT

    Orbital Energies [Eh]
    ---------------------

    Alpha Occupied:

       1Ag   -38.795059     2Ag    -2.518685     1B1u   -1.450440
       1B3u   -1.450440     1B2u   -1.450440

    Alpha Virtual:

       3Ag    -0.260883     2B1u   -0.149707     2B2u   -0.149707
       2B3u   -0.149707     4Ag    -0.073482     3B1u   -0.057533
       3B2u   -0.057533     3B3u   -0.057533     1B3g   -0.023591
       1B2g   -0.023591     5Ag    -0.023591     6Ag    -0.023591
       1B1g   -0.023591     4B2u    0.073647     4B3u    0.073647
       4B1u    0.073647     7Ag     0.239163     8Ag     0.239163
       2B2g    0.239163     2B3g    0.239163     2B1g    0.239163
       5B3u    0.264123     5B2u    0.264123     1Au     0.264123
       5B1u    0.264123     6B1u    0.264123     6B3u    0.264123
       6B2u    0.264123     9Ag     1.171916

    Beta Occupied:

       1Ag   -38.795059     2Ag    -2.518685     1B2u   -1.450440
       1B3u   -1.450440     1B1u   -1.450440

    Beta Virtual:

       3Ag    -0.260883     2B1u   -0.149707     2B3u   -0.149707
       2B2u   -0.149707     4Ag    -0.073482     3B1u   -0.057533
       3B2u   -0.057533     3B3u   -0.057533     1B3g   -0.023591
       1B2g   -0.023591     5Ag    -0.023591     6Ag    -0.023591
       1B1g   -0.023591     4B2u    0.073647     4B3u    0.073647
       4B1u    0.073647     7Ag     0.239163     8Ag     0.239163
       2B2g    0.239163     2B3g    0.239163     2B1g    0.239163
       5B3u    0.264123     5B2u    0.264123     1Au     0.264123
       5B1u    0.264123     6B1u    0.264123     6B3u    0.264123
       6B2u    0.264123     9Ag     1.171916

    Final Occupation by Irrep:
             Ag   B1g   B2g   B3g    Au   B1u   B2u   B3u
    DOCC [     2,    0,    0,    0,    0,    1,    1,    1 ]
    SOCC [     0,    0,    0,    0,    0,    0,    0,    0 ]
    NA   [     2,    0,    0,    0,    0,    1,    1,    1 ]
    NB   [     2,    0,    0,    0,    0,    1,    1,    1 ]

  @DF-UKS Final Energy:  -162.09772962261641

   => Energetics <=

    Nuclear Repulsion Energy =              0.0000000000000000
    One-Electron Energy =                -224.6398982017277035
    Two-Electron Energy =                  74.0511794535104713
    DFT Exchange-Correlation Energy =     -11.5090108743992019
    Empirical Dispersion Energy =           0.0000000000000000
    VV10 Nonlocal Energy =                  0.0000000000000000
    Total Energy =                       -162.0977296226164128

  UHF NO Occupations:
  HONO-2 :    1B3u 2.0000000
  HONO-1 :    1B1u 2.0000000
  HONO-0 :    2 Ag 2.0000000
  LUNO+0 :    3 Ag 0.0000000
  LUNO+1 :    4 Ag 0.0000000
  LUNO+2 :    5 Ag 0.0000000
  LUNO+3 :    2B3u 0.0000000

Computation Completed

Properties will be evaluated at   0.000000,   0.000000,   0.000000 [a0]

Properties computed using the SCF density matrix

 Multipole Moments:

 ------------------------------------------------------------------------------------
     Multipole            Electronic (a.u.)      Nuclear  (a.u.)        Total (a.u.)
 ------------------------------------------------------------------------------------

 L = 1.  Multiply by 2.5417464519 to convert [e a0] to [Debye]
 Dipole X            :          0.0000000            0.0000000            0.0000000
 Dipole Y            :          0.0000000            0.0000000            0.0000000
 Dipole Z            :          0.0000000            0.0000000            0.0000000
 Magnitude           :                                                    0.0000000

 ------------------------------------------------------------------------------------

*** tstop() called on Joses-MacBook-Pro-2.local at Sat Jan 25 21:32:40 2025
Module time:
	user time   =       3.78 seconds =       0.06 minutes
	system time =       1.53 seconds =       0.03 minutes
	total time  =          0 seconds =       0.00 minutes
Total time:
	user time   =       3.78 seconds =       0.06 minutes
	system time =       1.53 seconds =       0.03 minutes
	total time  =          0 seconds =       0.00 minutes

    Psi4 stopped on: Saturday, 25 January 2025 09:32PM
    Psi4 wall time for execution: 0:00:00.69

*** Psi4 exiting successfully. Buy a developer a beer!
