                               Psi4 1.9.1 release

  ==> Input File <==

--------------------------------------------------------------------------
molecule {
1 1
Cl           0.000000           0.000000           0.000000
}

set {
basis              cc-pvtz
reference          uks
maxiter            500
DAMPING_PERCENTAGE 1
E_CONVERGENCE      1.0E-8
D_CONVERGENCE      1.0E-8
DIIS_MAX_VECS      400
MBIS_MAXITER       8000
guess              SAP
}

energy('b3lyp')
--------------------------------------------------------------------------

    Molecular point group: d2h
    Geometry (in Angstrom), charge = 1, multiplicity = 1:

       Center              X                  Y                   Z               Mass
    ------------   -----------------  -----------------  -----------------  -----------------
         CL           0.000000000000     0.000000000000     0.000000000000    34.968852682000

  Charge       = 1
  Multiplicity = 1
  Basis Set: CC-PVTZ
    Blend: CC-PVTZ
  Basis Set: (CC-PVTZ AUX)
    Blend: CC-PVTZ-JKFIT

    Orbital Energies [Eh]
    ---------------------

    Alpha Occupied:

       1Ag  -102.104886     2Ag    -9.994378     1B2u   -7.774339
       1B3u   -7.741582     1B1u   -7.741582     3Ag    -1.242606
       2B1u   -0.745954     2B3u   -0.745954

    Alpha Virtual:

       2B2u   -0.703401     3B2u    0.019832     4Ag     0.030576
       1B1g    0.032718     1B3g    0.032718     3B3u    0.039167
       3B1u    0.039167     1B2g    0.066293     5Ag     0.066293
       6Ag     0.070107     7Ag     1.418934     2B3g    1.425382
       2B1g    1.425382     2B2g    1.466215     8Ag     1.466215
       4B2u    1.615108     4B1u    1.616668     4B3u    1.616668
       5B2u    1.632981     1Au     1.632981     5B3u    1.670879
       5B1u    1.670879     6B2u    1.727655     6B1u    1.770733
       6B3u    1.770733     9Ag     3.629416

    Beta Occupied:

       1Ag  -102.104886     2Ag    -9.994378     1B2u   -7.774339
       1B3u   -7.741582     1B1u   -7.741582     3Ag    -1.242606
       2B1u   -0.745954     2B3u   -0.745954

    Beta Virtual:

       2B2u   -0.703401     3B2u    0.019832     4Ag     0.030576
       1B1g    0.032718     1B3g    0.032718     3B3u    0.039167
       3B1u    0.039167     1B2g    0.066293     5Ag     0.066293
       6Ag     0.070107     7Ag     1.418934     2B3g    1.425382
       2B1g    1.425382     2B2g    1.466215     8Ag     1.466215
       4B2u    1.615108     4B1u    1.616668     4B3u    1.616668
       5B2u    1.632981     1Au     1.632981     5B3u    1.670879
       5B1u    1.670879     6B2u    1.727655     6B1u    1.770733
       6B3u    1.770733     9Ag     3.629416

    Final Occupation by Irrep:
             Ag   B1g   B2g   B3g    Au   B1u   B2u   B3u
    DOCC [     3,    0,    0,    0,    0,    2,    1,    2 ]
    SOCC [     0,    0,    0,    0,    0,    0,    0,    0 ]
    NA   [     3,    0,    0,    0,    0,    2,    1,    2 ]
    NB   [     3,    0,    0,    0,    0,    2,    1,    2 ]

  @DF-UKS Final Energy:  -459.61705330006123

   => Energetics <=

    Nuclear Repulsion Energy =              0.0000000000000000
    One-Electron Energy =                -627.1306266725191563
    Two-Electron Energy =                 189.9108574408942047
    DFT Exchange-Correlation Energy =     -22.3972840684362531
    Empirical Dispersion Energy =           0.0000000000000000
    VV10 Nonlocal Energy =                  0.0000000000000000
    Total Energy =                       -459.6170533000611726

  UHF NO Occupations:
  HONO-2 :    2B1u 2.0000000
  HONO-1 :    3 Ag 2.0000000
  HONO-0 :    2B3u 2.0000000
  LUNO+0 :    3B1u 0.0000000
  LUNO+1 :    4 Ag 0.0000000
  LUNO+2 :    2B2u 0.0000000
  LUNO+3 :    5 Ag 0.0000000

Computation Completed

Properties will be evaluated at   0.000000,   0.000000,   0.000000 [a0]

Properties computed using the SCF density matrix

 Multipole Moments:

 ------------------------------------------------------------------------------------
     Multipole            Electronic (a.u.)      Nuclear  (a.u.)        Total (a.u.)
 ------------------------------------------------------------------------------------

 L = 1.  Multiply by 2.5417464519 to convert [e a0] to [Debye]
 Dipole X            :          0.0000000            0.0000000            0.0000000
 Dipole Y            :          0.0000000            0.0000000            0.0000000
 Dipole Z            :          0.0000000            0.0000000            0.0000000
 Magnitude           :                                                    0.0000000

 ------------------------------------------------------------------------------------

*** tstop() called on Joses-MacBook-Pro-2.local at Sat Jan 25 21:33:05 2025
Module time:
	user time   =       3.79 seconds =       0.06 minutes
	system time =       1.21 seconds =       0.02 minutes
	total time  =          0 seconds =       0.00 minutes
Total time:
	user time   =       3.79 seconds =       0.06 minutes
	system time =       1.21 seconds =       0.02 minutes
	total time  =          0 seconds =       0.00 minutes

    Psi4 stopped on: Saturday, 25 January 2025 09:33PM
    Psi4 wall time for execution: 0:00:00.54

*** Psi4 exiting successfully. Buy a developer a beer!
