                               Psi4 1.9.1 release

  ==> Input File <==

--------------------------------------------------------------------------
molecule {
1 3
F           0.000000           0.000000           0.000000
}

set {
basis              cc-pvtz
reference          uks
maxiter            500
DAMPING_PERCENTAGE 1
E_CONVERGENCE      1.0E-8
D_CONVERGENCE      1.0E-8
DIIS_MAX_VECS      400
MBIS_MAXITER       8000
guess              SAP
}

energy('b3lyp')
--------------------------------------------------------------------------

    Molecular point group: d2h
    Geometry (in Angstrom), charge = 1, multiplicity = 3:

       Center              X                  Y                   Z               Mass
    ------------   -----------------  -----------------  -----------------  -----------------
         F            0.000000000000     0.000000000000     0.000000000000    18.998403162730

  Charge       = 1
  Multiplicity = 3
  Basis Set: CC-PVTZ
    Blend: CC-PVTZ
  Basis Set: (CC-PVTZ AUX)
    Blend: CC-PVTZ-JKFIT

    Orbital Energies [Eh]
    ---------------------

    Alpha Occupied:

       1Ag   -25.564961     2Ag    -1.921865     1B2u   -1.219517
       1B3u   -1.219517     1B1u   -1.121800

    Alpha Virtual:

       2B2u    0.200111     2B3u    0.200111     2B1u    0.233041
       3Ag     0.368467     4Ag     1.270497     1B1g    1.270497
       1B3g    1.318952     1B2g    1.318952     5Ag     1.336132
       3B2u    3.714113     3B3u    3.714113     3B1u    3.792667
       4B2u    6.058199     4B3u    6.058199     1Au     6.110457
       4B1u    6.110457     5B2u    6.142205     5B3u    6.142205
       5B1u    6.153322     6Ag     7.347745     2B1g    7.347745
       2B3g    7.425994     2B2g    7.425994     7Ag     7.451183
       8Ag     8.103872

    Beta Occupied:

       1Ag   -25.495440     2Ag    -1.727411     1B1u   -1.055604

    Beta Virtual:

       1B2u   -0.857951     1B3u   -0.857951     2B1u    0.249937
       2B2u    0.273081     2B3u    0.273081     3Ag     0.435791
       1B3g    1.387102     1B2g    1.387102     4Ag     1.391952
       5Ag     1.402823     1B1g    1.402823     3B1u    3.842732
       3B2u    3.887861     3B3u    3.887861     1Au     6.221399
       4B1u    6.221399     5B1u    6.226345     4B2u    6.228409
       4B3u    6.228409     5B2u    6.237059     5B3u    6.237059
       2B3g    7.554947     2B2g    7.554947     6Ag     7.566578
       7Ag     7.602853     2B1g    7.602853     8Ag     8.221419

    Final Occupation by Irrep:
             Ag   B1g   B2g   B3g    Au   B1u   B2u   B3u
    DOCC [     2,    0,    0,    0,    0,    1,    0,    0 ]
    SOCC [     0,    0,    0,    0,    0,    0,    1,    1 ]
    NA   [     2,    0,    0,    0,    0,    1,    1,    1 ]
    NB   [     2,    0,    0,    0,    0,    1,    0,    0 ]

  @DF-UKS Final Energy:   -99.11393595373933

   => Energetics <=

    Nuclear Repulsion Energy =              0.0000000000000000
    One-Electron Energy =                -133.1572242875926975
    Two-Electron Energy =                  42.0453533737027385
    DFT Exchange-Correlation Energy =      -8.0020650398493824
    Empirical Dispersion Energy =           0.0000000000000000
    VV10 Nonlocal Energy =                  0.0000000000000000
    Total Energy =                        -99.1139359537393432

  UHF NO Occupations:
  HONO-2 :    2 Ag 1.9991889
  HONO-1 :    1B2u 1.0000000
  HONO-0 :    1B3u 1.0000000
  LUNO+0 :    3 Ag 0.0008111
  LUNO+1 :    2B1u 0.0002674
  LUNO+2 :    4 Ag 0.0000013
  LUNO+3 :    3B1u 0.0000000

Computation Completed

Properties will be evaluated at   0.000000,   0.000000,   0.000000 [a0]

Properties computed using the SCF density matrix

 Multipole Moments:

 ------------------------------------------------------------------------------------
     Multipole            Electronic (a.u.)      Nuclear  (a.u.)        Total (a.u.)
 ------------------------------------------------------------------------------------

 L = 1.  Multiply by 2.5417464519 to convert [e a0] to [Debye]
 Dipole X            :          0.0000000            0.0000000            0.0000000
 Dipole Y            :          0.0000000            0.0000000            0.0000000
 Dipole Z            :          0.0000000            0.0000000            0.0000000
 Magnitude           :                                                    0.0000000

 ------------------------------------------------------------------------------------

*** tstop() called on Joses-MacBook-Pro-2.local at Sat Jan 25 21:32:34 2025
Module time:
	user time   =       2.35 seconds =       0.04 minutes
	system time =       2.05 seconds =       0.03 minutes
	total time  =          0 seconds =       0.00 minutes
Total time:
	user time   =       2.35 seconds =       0.04 minutes
	system time =       2.05 seconds =       0.03 minutes
	total time  =          0 seconds =       0.00 minutes

    Psi4 stopped on: Saturday, 25 January 2025 09:32PM
    Psi4 wall time for execution: 0:00:00.46

*** Psi4 exiting successfully. Buy a developer a beer!
