                               Psi4 1.9.1 release

  ==> Input File <==

--------------------------------------------------------------------------
molecule {
1 3
P           0.000000           0.000000           0.000000
}

set {
basis              cc-pvtz
reference          uks
maxiter            500
DAMPING_PERCENTAGE 1
E_CONVERGENCE      1.0E-8
D_CONVERGENCE      1.0E-8
DIIS_MAX_VECS      400
MBIS_MAXITER       8000
guess              SAP
}

energy('b3lyp')
--------------------------------------------------------------------------

    Molecular point group: d2h
    Geometry (in Angstrom), charge = 1, multiplicity = 3:

       Center              X                  Y                   Z               Mass
    ------------   -----------------  -----------------  -----------------  -----------------
         P            0.000000000000     0.000000000000     0.000000000000    30.973761998420

  Charge       = 1
  Multiplicity = 3
  Basis Set: CC-PVTZ
    Blend: CC-PVTZ
  Basis Set: (CC-PVTZ AUX)
    Blend: CC-PVTZ-JKFIT

    Orbital Energies [Eh]
    ---------------------

    Alpha Occupied:

       1Ag   -77.545858     2Ag    -6.993967     1B3u   -5.160931
       1B2u   -5.155823     1B1u   -5.155823     3Ag    -0.933388
       2B1u   -0.585913     2B2u   -0.585913

    Alpha Virtual:

       2B3u   -0.503143     1B3g   -0.047797     4Ag    -0.047797
       1B1g   -0.043262     1B2g   -0.043262     5Ag    -0.035872
       6Ag    -0.031258     3B1u    0.010552     3B2u    0.010552
       3B3u    0.014543     2B1g    0.881199     2B2g    0.881199
       2B3g    0.882343     7Ag     0.882343     8Ag     0.886263
       4B3u    0.969563     1Au     0.969563     4B1u    0.971810
       4B2u    0.971810     5B1u    0.973607     5B2u    0.973607
       5B3u    0.978093     6B2u    1.505982     6B1u    1.505982
       6B3u    1.506179     9Ag     2.234934

    Beta Occupied:

       1Ag   -77.535632     2Ag    -6.983493     1B3u   -5.155385
       1B2u   -5.134952     1B1u   -5.134952     3Ag    -0.846243

    Beta Virtual:

       2B3u   -0.477790     2B1u   -0.433480     2B2u   -0.433480
       4Ag    -0.009539     5Ag    -0.003435     1B1g    0.004367
       1B2g    0.004367     3B3u    0.020436     1B3g    0.032046
       6Ag     0.032046     3B1u    0.041957     3B2u    0.041957
       7Ag     0.908865     2B1g    0.918552     2B2g    0.918552
       2B3g    0.949065     8Ag     0.949065     4B3u    1.013216
       4B1u    1.019002     4B2u    1.019002     1Au     1.034326
       5B3u    1.034326     5B1u    1.060250     5B2u    1.060250
       6B3u    1.517911     6B2u    1.554002     6B1u    1.554002
       9Ag     2.263427

    Final Occupation by Irrep:
             Ag   B1g   B2g   B3g    Au   B1u   B2u   B3u
    DOCC [     3,    0,    0,    0,    0,    1,    1,    1 ]
    SOCC [     0,    0,    0,    0,    0,    1,    1,    0 ]
    NA   [     3,    0,    0,    0,    0,    2,    2,    1 ]
    NB   [     3,    0,    0,    0,    0,    1,    1,    1 ]

  @DF-UKS Final Energy:  -340.90415162626209

   => Energetics <=

    Nuclear Repulsion Energy =              0.0000000000000000
    One-Electron Energy =                -465.7823988857015820
    Two-Electron Energy =                 143.2990074396149112
    DFT Exchange-Correlation Energy =     -18.4207601801754244
    Empirical Dispersion Energy =           0.0000000000000000
    VV10 Nonlocal Energy =                  0.0000000000000000
    Total Energy =                       -340.9041516262620917

  UHF NO Occupations:
  HONO-2 :    3 Ag 1.9982021
  HONO-1 :    2B2u 1.0000000
  HONO-0 :    2B1u 1.0000000
  LUNO+0 :    4 Ag 0.0017979
  LUNO+1 :    3B1u 0.0000005
  LUNO+2 :    3B2u 0.0000005
  LUNO+3 :    2B3u 0.0000003

Computation Completed

Properties will be evaluated at   0.000000,   0.000000,   0.000000 [a0]

Properties computed using the SCF density matrix

 Multipole Moments:

 ------------------------------------------------------------------------------------
     Multipole            Electronic (a.u.)      Nuclear  (a.u.)        Total (a.u.)
 ------------------------------------------------------------------------------------

 L = 1.  Multiply by 2.5417464519 to convert [e a0] to [Debye]
 Dipole X            :          0.0000000            0.0000000            0.0000000
 Dipole Y            :          0.0000000            0.0000000            0.0000000
 Dipole Z            :          0.0000000            0.0000000            0.0000000
 Magnitude           :                                                    0.0000000

 ------------------------------------------------------------------------------------

*** tstop() called on Joses-MacBook-Pro-2.local at Sat Jan 25 21:32:58 2025
Module time:
	user time   =       4.23 seconds =       0.07 minutes
	system time =       1.46 seconds =       0.02 minutes
	total time  =          0 seconds =       0.00 minutes
Total time:
	user time   =       4.23 seconds =       0.07 minutes
	system time =       1.46 seconds =       0.02 minutes
	total time  =          0 seconds =       0.00 minutes

    Psi4 stopped on: Saturday, 25 January 2025 09:32PM
    Psi4 wall time for execution: 0:00:00.62

*** Psi4 exiting successfully. Buy a developer a beer!
