                               Psi4 1.9.1 release

  ==> Input File <==

--------------------------------------------------------------------------
molecule {
1 3
N           0.000000           0.000000           0.000000
}

set {
basis              cc-pvtz
reference          uks
maxiter            500
DAMPING_PERCENTAGE 1
E_CONVERGENCE      1.0E-8
D_CONVERGENCE      1.0E-8
DIIS_MAX_VECS      400
MBIS_MAXITER       8000
guess              SAP
}

energy('b3lyp')
--------------------------------------------------------------------------

    Molecular point group: d2h
    Geometry (in Angstrom), charge = 1, multiplicity = 3:

       Center              X                  Y                   Z               Mass
    ------------   -----------------  -----------------  -----------------  -----------------
         N            0.000000000000     0.000000000000     0.000000000000    14.003074004430

  Charge       = 1
  Multiplicity = 3
  Basis Set: CC-PVTZ
    Blend: CC-PVTZ
  Basis Set: (CC-PVTZ AUX)
    Blend: CC-PVTZ-JKFIT

    Orbital Energies [Eh]
    ---------------------

    Alpha Occupied:

       1Ag   -15.085535     2Ag    -1.313317     1B2u   -0.876859
       1B1u   -0.876859

    Alpha Virtual:

       1B3u   -0.722364     2B2u    0.061249     2B1u    0.061249
       2B3u    0.074792     3Ag     0.096966     1B3g    0.552394
       4Ag     0.552394     1B1g    0.554810     1B2g    0.554810
       5Ag     0.563995     3B2u    2.215428     3B1u    2.215428
       3B3u    2.249253     1Au     3.299270     4B3u    3.299270
       4B1u    3.304115     4B2u    3.304115     5B1u    3.304466
       5B2u    3.304466     5B3u    3.311885     2B3g    3.771155
       6Ag     3.771155     2B1g    3.783917     2B2g    3.783917
       7Ag     3.809185     8Ag     4.610542

    Beta Occupied:

       1Ag   -15.038126     2Ag    -1.163241

    Beta Virtual:

       1B3u   -0.673160     1B2u   -0.603107     1B1u   -0.603107
       2B3u    0.088201     2B2u    0.118542     2B1u    0.118542
       3Ag     0.146024     4Ag     0.600767     1B1g    0.612764
       1B2g    0.612764     5Ag     0.646395     1B3g    0.646395
       3B3u    2.281168     3B2u    2.340311     3B1u    2.340311
       4B3u    3.365618     4B1u    3.374288     4B2u    3.374288
       1Au     3.397534     5B3u    3.397534     5B1u    3.435861
       5B2u    3.435861     6Ag     3.874620     2B2g    3.894870
       2B1g    3.894870     2B3g    3.953658     7Ag     3.953658
       8Ag     4.693027

    Final Occupation by Irrep:
             Ag   B1g   B2g   B3g    Au   B1u   B2u   B3u
    DOCC [     2,    0,    0,    0,    0,    0,    0,    0 ]
    SOCC [     0,    0,    0,    0,    0,    1,    1,    0 ]
    NA   [     2,    0,    0,    0,    0,    1,    1,    0 ]
    NB   [     2,    0,    0,    0,    0,    0,    0,    0 ]

  @DF-UKS Final Energy:   -54.06386292793972

   => Energetics <=

    Nuclear Repulsion Energy =              0.0000000000000000
    One-Electron Energy =                 -70.0720083928810027
    Two-Electron Energy =                  21.1406987680038938
    DFT Exchange-Correlation Energy =      -5.1325533030626120
    Empirical Dispersion Energy =           0.0000000000000000
    VV10 Nonlocal Energy =                  0.0000000000000000
    Total Energy =                        -54.0638629279397236

  UHF NO Occupations:
  HONO-2 :    2 Ag 1.9987247
  HONO-1 :    1B2u 1.0000000
  HONO-0 :    1B1u 1.0000000
  LUNO+0 :    3 Ag 0.0012753
  LUNO+1 :    4 Ag 0.0000016
  LUNO+2 :    2B1u 0.0000000
  LUNO+3 :    5 Ag 0.0000000

Computation Completed

Properties will be evaluated at   0.000000,   0.000000,   0.000000 [a0]

Properties computed using the SCF density matrix

 Multipole Moments:

 ------------------------------------------------------------------------------------
     Multipole            Electronic (a.u.)      Nuclear  (a.u.)        Total (a.u.)
 ------------------------------------------------------------------------------------

 L = 1.  Multiply by 2.5417464519 to convert [e a0] to [Debye]
 Dipole X            :          0.0000000            0.0000000            0.0000000
 Dipole Y            :          0.0000000            0.0000000            0.0000000
 Dipole Z            :          0.0000000            0.0000000            0.0000000
 Magnitude           :                                                    0.0000000

 ------------------------------------------------------------------------------------

*** tstop() called on Joses-MacBook-Pro-2.local at Sat Jan 25 21:32:26 2025
Module time:
	user time   =       2.76 seconds =       0.05 minutes
	system time =       1.61 seconds =       0.03 minutes
	total time  =          0 seconds =       0.00 minutes
Total time:
	user time   =       2.76 seconds =       0.05 minutes
	system time =       1.61 seconds =       0.03 minutes
	total time  =          0 seconds =       0.00 minutes

    Psi4 stopped on: Saturday, 25 January 2025 09:32PM
    Psi4 wall time for execution: 0:00:00.46

*** Psi4 exiting successfully. Buy a developer a beer!
