                               Psi4 1.9.1 release

  ==> Input File <==

--------------------------------------------------------------------------
molecule {
1 3
Al           0.000000           0.000000           0.000000
}

set {
basis              cc-pvtz
reference          uks
maxiter            500
DAMPING_PERCENTAGE 1
E_CONVERGENCE      1.0E-8
D_CONVERGENCE      1.0E-8
DIIS_MAX_VECS      400
MBIS_MAXITER       8000
guess              SAP
}

energy('b3lyp')
--------------------------------------------------------------------------

    Molecular point group: d2h
    Geometry (in Angstrom), charge = 1, multiplicity = 3:

       Center              X                  Y                   Z               Mass
    ------------   -----------------  -----------------  -----------------  -----------------
         AL           0.000000000000     0.000000000000     0.000000000000    26.981538530000

  Charge       = 1
  Multiplicity = 3
  Basis Set: CC-PVTZ
    Blend: CC-PVTZ
  Basis Set: (CC-PVTZ AUX)
    Blend: CC-PVTZ-JKFIT

    Orbital Energies [Eh]
    ---------------------

    Alpha Occupied:

       1Ag   -56.447189     2Ag    -4.518908     1B3u   -3.072733
       1B1u   -3.072733     1B2u   -3.068398     3Ag    -0.630815
       2B2u   -0.411352

    Alpha Virtual:

       2B1u   -0.343586     2B3u   -0.343586     4Ag    -0.093659
       1B3g   -0.092068     1B1g   -0.092068     5Ag    -0.085965
       1B2g   -0.078409     6Ag    -0.078409     3B2u   -0.035676
       3B1u   -0.027504     3B3u   -0.027504     2B3g    0.403914
       2B1g    0.403914     7Ag     0.409000     2B2g    0.411432
       8Ag     0.411433     1Au     0.455843     4B2u    0.455843
       5B2u    0.458296     4B1u    0.459484     4B3u    0.459484
       5B1u    0.467381     5B3u    0.467381     9Ag     1.065326
       6B3u    1.593469     6B1u    1.593469     6B2u    1.596414

    Beta Occupied:

       1Ag   -56.438057     2Ag    -4.505439     1B3u   -3.064283
       1B1u   -3.064283     1B2u   -3.049349

    Beta Virtual:

       3Ag    -0.488810     2B1u   -0.287521     2B3u   -0.287521
       2B2u   -0.254684     4Ag    -0.059731     5Ag    -0.040693
       1B2g   -0.040675     1B3g   -0.021552     1B1g   -0.021552
       6Ag    -0.014326     3B1u   -0.004214     3B3u   -0.004214
       3B2u    0.010509     7Ag     0.444481     2B2g    0.444491
       2B3g    0.468271     2B1g    0.468271     8Ag     0.476832
       4B1u    0.505975     4B3u    0.505975     4B2u    0.528792
       1Au     0.528797     5B1u    0.539576     5B3u    0.539576
       5B2u    0.544881     9Ag     1.100037     6B3u    1.613762
       6B1u    1.613762     6B2u    1.639727

    Final Occupation by Irrep:
             Ag   B1g   B2g   B3g    Au   B1u   B2u   B3u
    DOCC [     2,    0,    0,    0,    0,    1,    1,    1 ]
    SOCC [     1,    0,    0,    0,    0,    0,    1,    0 ]
    NA   [     3,    0,    0,    0,    0,    1,    2,    1 ]
    NB   [     2,    0,    0,    0,    0,    1,    1,    1 ]

  @DF-UKS Final Energy:  -241.99563425693051

   => Energetics <=

    Nuclear Repulsion Energy =              0.0000000000000000
    One-Electron Energy =                -332.0921994557797916
    Two-Electron Energy =                 104.8956354736809260
    DFT Exchange-Correlation Energy =     -14.7990702748316458
    Empirical Dispersion Energy =           0.0000000000000000
    VV10 Nonlocal Energy =                  0.0000000000000000
    Total Energy =                       -241.9956342569305150

  UHF NO Occupations:
  HONO-2 :    1B2u 1.9999982
  HONO-1 :    2B2u 1.0000000
  HONO-0 :    3 Ag 1.0000000
  LUNO+0 :    3B2u 0.0000018
  LUNO+1 :    2B3u 0.0000013
  LUNO+2 :    2B1u 0.0000013
  LUNO+3 :    4 Ag 0.0000008

Computation Completed

Properties will be evaluated at   0.000000,   0.000000,   0.000000 [a0]

Properties computed using the SCF density matrix

 Multipole Moments:

 ------------------------------------------------------------------------------------
     Multipole            Electronic (a.u.)      Nuclear  (a.u.)        Total (a.u.)
 ------------------------------------------------------------------------------------

 L = 1.  Multiply by 2.5417464519 to convert [e a0] to [Debye]
 Dipole X            :          0.0000000            0.0000000            0.0000000
 Dipole Y            :          0.0000000            0.0000000            0.0000000
 Dipole Z            :          0.0000000            0.0000000            0.0000000
 Magnitude           :                                                    0.0000000

 ------------------------------------------------------------------------------------

*** tstop() called on Joses-MacBook-Pro-2.local at Sat Jan 25 21:32:50 2025
Module time:
	user time   =       3.58 seconds =       0.06 minutes
	system time =       1.28 seconds =       0.02 minutes
	total time  =          0 seconds =       0.00 minutes
Total time:
	user time   =       3.58 seconds =       0.06 minutes
	system time =       1.28 seconds =       0.02 minutes
	total time  =          0 seconds =       0.00 minutes

    Psi4 stopped on: Saturday, 25 January 2025 09:32PM
    Psi4 wall time for execution: 0:00:00.54

*** Psi4 exiting successfully. Buy a developer a beer!
