                               Psi4 1.9.1 release

  ==> Input File <==

--------------------------------------------------------------------------
molecule {
1 3
Na           0.000000           0.000000           0.000000
}

set {
basis              cc-pvtz
reference          uks
maxiter            500
DAMPING_PERCENTAGE 1
E_CONVERGENCE      1.0E-8
D_CONVERGENCE      1.0E-8
DIIS_MAX_VECS      400
MBIS_MAXITER       8000
guess              SAP
}

energy('b3lyp')
--------------------------------------------------------------------------

    Molecular point group: d2h
    Geometry (in Angstrom), charge = 1, multiplicity = 3:

       Center              X                  Y                   Z               Mass
    ------------   -----------------  -----------------  -----------------  -----------------
         NA           0.000000000000     0.000000000000     0.000000000000    22.989769282000

  Charge       = 1
  Multiplicity = 3
  Basis Set: CC-PVTZ
    Blend: CC-PVTZ
  Basis Set: (CC-PVTZ AUX)
    Blend: DEF2-UNIVERSAL-JKFIT

    Orbital Energies [Eh]
    ---------------------

    Alpha Occupied:

       1Ag   -39.828707     2Ag    -3.208160     1B3u   -2.212630
       1B2u   -2.091513     1B1u   -2.091513     3Ag    -0.445633

    Alpha Virtual:

       2B3u   -0.259444     2B2u   -0.250804     2B1u   -0.250804
       4Ag    -0.112684     5Ag    -0.095141     1B2g   -0.094302
       1B1g   -0.094302     6Ag    -0.091487     1B3g   -0.091487
       3B3u   -0.081362     3B1u   -0.080360     3B2u   -0.080360
       4B3u    0.012725     4B2u    0.016038     4B1u    0.016038
       7Ag     0.143374     2B2g    0.144936     2B1g    0.144936
       2B3g    0.150039     8Ag     0.150039     5B3u    0.179156
       5B2u    0.179651     5B1u    0.179651     6B3u    0.181154
       1Au     0.181154     6B1u    0.183758     6B2u    0.183758
       9Ag     0.804408

    Beta Occupied:

       1Ag   -39.781834     2Ag    -3.081160     1B1u   -2.042425
       1B2u   -2.042425

    Beta Virtual:

       1B3u   -1.806132     3Ag    -0.354242     2B2u   -0.209389
       2B1u   -0.209389     2B3u   -0.206103     4Ag    -0.107416
       3B1u   -0.075627     3B2u   -0.075627     3B3u   -0.073289
       5Ag    -0.064840     1B3g   -0.064839     1B1g   -0.063025
       1B2g   -0.063025     6Ag    -0.060520     4B2u    0.024385
       4B1u    0.024385     4B3u    0.027840     2B1g    0.171319
       2B2g    0.171319     7Ag     0.172475     2B3g    0.172476
       8Ag     0.173287     5B1u    0.216996     5B2u    0.216996
       5B3u    0.217847     1Au     0.217849     6B2u    0.218565
       6B1u    0.218565     6B3u    0.221488     9Ag     0.862051

    Final Occupation by Irrep:
             Ag   B1g   B2g   B3g    Au   B1u   B2u   B3u
    DOCC [     2,    0,    0,    0,    0,    1,    1,    0 ]
    SOCC [     1,    0,    0,    0,    0,    0,    0,    1 ]
    NA   [     3,    0,    0,    0,    0,    1,    1,    1 ]
    NB   [     2,    0,    0,    0,    0,    1,    1,    0 ]

  @DF-UKS Final Energy:  -160.82142003330719

   => Energetics <=

    Nuclear Repulsion Energy =              0.0000000000000000
    One-Electron Energy =                -216.9835401787540832
    Two-Electron Energy =                  67.0988077782586032
    DFT Exchange-Correlation Energy =     -10.9366876328117346
    Empirical Dispersion Energy =           0.0000000000000000
    VV10 Nonlocal Energy =                  0.0000000000000000
    Total Energy =                       -160.8214200333071915

  UHF NO Occupations:
  HONO-2 :    2 Ag 1.9999601
  HONO-1 :    3 Ag 1.0000000
  HONO-0 :    1B3u 1.0000000
  LUNO+0 :    4 Ag 0.0000399
  LUNO+1 :    2B1u 0.0000025
  LUNO+2 :    2B2u 0.0000025
  LUNO+3 :    5 Ag 0.0000000

Computation Completed

Properties will be evaluated at   0.000000,   0.000000,   0.000000 [a0]

Properties computed using the SCF density matrix

 Multipole Moments:

 ------------------------------------------------------------------------------------
     Multipole            Electronic (a.u.)      Nuclear  (a.u.)        Total (a.u.)
 ------------------------------------------------------------------------------------

 L = 1.  Multiply by 2.5417464519 to convert [e a0] to [Debye]
 Dipole X            :          0.0000000            0.0000000            0.0000000
 Dipole Y            :          0.0000000            0.0000000            0.0000000
 Dipole Z            :          0.0000000            0.0000000            0.0000000
 Magnitude           :                                                    0.0000000

 ------------------------------------------------------------------------------------

*** tstop() called on Joses-MacBook-Pro-2.local at Sat Jan 25 21:32:42 2025
Module time:
	user time   =       3.37 seconds =       0.06 minutes
	system time =       1.61 seconds =       0.03 minutes
	total time  =          1 seconds =       0.02 minutes
Total time:
	user time   =       3.37 seconds =       0.06 minutes
	system time =       1.61 seconds =       0.03 minutes
	total time  =          1 seconds =       0.02 minutes

    Psi4 stopped on: Saturday, 25 January 2025 09:32PM
    Psi4 wall time for execution: 0:00:00.63

*** Psi4 exiting successfully. Buy a developer a beer!
