                               Psi4 1.9.1 release

  ==> Input File <==

--------------------------------------------------------------------------
molecule {
-1 1
N           0.000000           0.000000           0.000000
C           0.000000           0.000000           1.184274
}

set {
basis              cc-pvtz
reference          uks
maxiter            500
DAMPING_PERCENTAGE 1
E_CONVERGENCE      1.0E-8
D_CONVERGENCE      1.0E-8
DIIS_MAX_VECS      400
MBIS_MAXITER       8000
}

E, wfn = optimize('b3lyp', return_wfn=True)
frequencies('b3lyp', wfn=wfn, return_wfn=True)
properties('b3lyp','MULLIKEN_CHARGES', wfn=wfn)
--------------------------------------------------------------------------

    Molecular point group: c2v
  Charge       = -1
  Multiplicity = 1
  Basis Set: CC-PVTZ
    Blend: CC-PVTZ
  Basis Set: (CC-PVTZ AUX)
    Blend: CC-PVTZ-JKFIT
  @DF-UKS Final Energy:   -92.88188521682504
    Total Energy =                        -92.8818852168250402
 Dipole X            :          0.0000000            0.0000000            0.0000000
 Dipole Y            :          0.0000000            0.0000000            0.0000000
 Dipole Z            :         -0.2526820            0.0015874           -0.2510946
 Magnitude           :                                                    0.2510946
    Molecular point group: c2v
  Basis Set: CC-PVTZ
    Blend: CC-PVTZ
  Basis Set: (CC-PVTZ AUX)
    Blend: CC-PVTZ-JKFIT
  Basis Set: CC-PVTZ
    Blend: CC-PVTZ
  Basis Set: (CC-PVTZ AUX)
    Blend: CC-PVTZ-JKFIT
  @DF-UKS Final Energy:   -92.88224969949080
    Total Energy =                        -92.8822496994907993
  Basis Set: CC-PVTZ
    Blend: CC-PVTZ
  Basis Set: (CC-PVTZ AUX)
    Blend: CC-PVTZ-JKFIT
  Basis Set: CC-PVTZ
    Blend: CC-PVTZ
  @DF-UKS Final Energy:   -92.88225065725561
    Total Energy =                        -92.8822506572556108
    Final optimized geometry and variables:
                               Psi4 1.9.1 release
  @DF-UKS Final Energy:   -92.88225065693473
    Total Energy =                        -92.8822506569347297
                               Psi4 1.9.1 release
  @DF-UKS Final Energy:   -92.88224861479449
    Total Energy =                        -92.8822486147944915
                               Psi4 1.9.1 release
  @DF-UKS Final Energy:   -92.88224834968845
    Total Energy =                        -92.8822483496884530
                               Psi4 1.9.1 release
    Blend: CC-PVTZ-JKFIT
  @DF-UKS Final Energy:   -92.88225065697827
    Total Energy =                        -92.8822506569782718
  Basis Set: CC-PVTZ
    Blend: CC-PVTZ
  Basis Set: (CC-PVTZ AUX)
    Blend: CC-PVTZ-JKFIT
                               Psi4 1.9.1 release
  Basis Set: CC-PVTZ
    Blend: CC-PVTZ
  Basis Set: (CC-PVTZ AUX)
    Blend: CC-PVTZ-JKFIT
  @DF-UKS Final Energy:   -92.88225065697766
    Total Energy =                        -92.8822506569776607
    Molecular point group: cs
  Basis Set: CC-PVTZ
    Blend: CC-PVTZ
  Basis Set: (CC-PVTZ AUX)
    Blend: CC-PVTZ-JKFIT

  -Total Gradient:
     Atom            X                  Y                   Z
    ------   -----------------  -----------------  -----------------
       1        0.000000000000     0.000000059401     0.000066804373
       2        0.000000000000    -0.000000057894    -0.000065109653

  Vibration                       6
  Freq [cm^-1]                2144.0668
  Irrep                           A1
  Reduced mass [u]             12.8481
  Force const [mDyne/A]        34.7990

  IR activ [km/mol]            10.0784

  ==> Thermochemistry Components <==

  Entropy, S
    Electronic S                             0.000 [cal/(mol K)]        0.000 [J/(mol K)]       0.00000000 [mEh/K] (multiplicity = 1)
    Translational S                         35.703 [cal/(mol K)]      149.381 [J/(mol K)]       0.05689632 [mEh/K] (mol. weight = 26.0031 [u], P = 101325.00 [Pa])
    Rotational S                            11.307 [cal/(mol K)]       47.309 [J/(mol K)]       0.01801887 [mEh/K] (symmetry no. = 1)
    Vibrational S                            0.001 [cal/(mol K)]        0.003 [J/(mol K)]       0.00000115 [mEh/K]
  Total S                                   47.011 [cal/(mol K)]      196.693 [J/(mol K)]       0.07491635 [mEh/K]
  Correction S                               0.000 [cal/(mol K)]        0.000 [J/(mol K)]       0.00000000 [mEh/K]

  Constant volume heat capacity, Cv
    Electronic Cv                            0.000 [cal/(mol K)]        0.000 [J/(mol K)]       0.00000000 [mEh/K]
    Translational Cv                         2.981 [cal/(mol K)]       12.472 [J/(mol K)]       0.00475022 [mEh/K]
    Rotational Cv                            1.987 [cal/(mol K)]        8.314 [J/(mol K)]       0.00316681 [mEh/K]
    Vibrational Cv                           0.007 [cal/(mol K)]        0.029 [J/(mol K)]       0.00001088 [mEh/K]
  Total Cv                                   4.975 [cal/(mol K)]       20.815 [J/(mol K)]       0.00792791 [mEh/K]
  Correction Cv                              0.000 [cal/(mol K)]        0.000 [J/(mol K)]       0.00000000 [mEh/K]

  Constant pressure heat capacity, Cp
    Electronic Cp                            0.000 [cal/(mol K)]        0.000 [J/(mol K)]       0.00000000 [mEh/K]
    Translational Cp                         4.968 [cal/(mol K)]       20.786 [J/(mol K)]       0.00791703 [mEh/K]
    Rotational Cp                            1.987 [cal/(mol K)]        8.314 [J/(mol K)]       0.00316681 [mEh/K]
    Vibrational Cp                           0.007 [cal/(mol K)]        0.029 [J/(mol K)]       0.00001088 [mEh/K]
  Total Cp                                   6.962 [cal/(mol K)]       29.129 [J/(mol K)]       0.01109472 [mEh/K]
  Correction Cp                              0.000 [cal/(mol K)]        0.000 [J/(mol K)]       0.00000000 [mEh/K]

  ==> Thermochemistry Energy Analysis <==

  Raw electronic energy, E_e
  Total E_e, Electronic energy at well bottom                                           -92.88225066 [Eh]

  Zero-point vibrational energy, ZPVE = Sum_i omega_i / 2,  E_0 = E_e + ZPVE
    Vibrational ZPVE                         3.065 [kcal/mol]       12.824 [kJ/mol]       0.00488454 [Eh]        1072.033 [cm^-1]
  Correction ZPVE to E_e                     3.065 [kcal/mol]       12.824 [kJ/mol]       0.00488454 [Eh]        1072.033 [cm^-1]
  Total E_0, Enthalpy at 0 [K]                                                          -92.87736611 [Eh]
  *** Absolute enthalpy, not an enthalpy of formation ***

  Thermal (internal) energy, E (includes ZPVE and finite-temperature corrections)
    Electronic contrib to E beyond E_e       0.000 [kcal/mol]        0.000 [kJ/mol]       0.00000000 [Eh]
    Translational contrib to E               0.889 [kcal/mol]        3.718 [kJ/mol]       0.00141628 [Eh]
    Rotational contrib to E                  0.592 [kcal/mol]        2.479 [kJ/mol]       0.00094418 [Eh]
    Vibrational contrib to E                 3.065 [kcal/mol]       12.825 [kJ/mol]       0.00488486 [Eh]
  Correction E                               4.547 [kcal/mol]       19.023 [kJ/mol]       0.00724532 [Eh]
  Total E, Thermal (internal) energy at  298.15 [K]                                     -92.87500534 [Eh]

  Enthalpy, H_trans = E_trans + k_B * T = E_trans + P * V
    Electronic contrib to H beyond E_e       0.000 [kcal/mol]        0.000 [kJ/mol]       0.00000000 [Eh]
    Translational contrib to H               1.481 [kcal/mol]        6.197 [kJ/mol]       0.00236046 [Eh]
    Rotational contrib to H                  0.592 [kcal/mol]        2.479 [kJ/mol]       0.00094418 [Eh]
    Vibrational contrib to H                 3.065 [kcal/mol]       12.825 [kJ/mol]       0.00488486 [Eh]
  Correction H                               5.139 [kcal/mol]       21.502 [kJ/mol]       0.00818950 [Eh]
  Total H, Enthalpy at  298.15 [K]                                                      -92.87406115 [Eh]
  *** Absolute enthalpy, not an enthalpy of formation ***

  Gibbs free energy, G = H - T * S
    Electronic contrib to G beyond E_e       0.000 [kcal/mol]        0.000 [kJ/mol]       0.00000000 [Eh]
    Translational contrib to G              -9.164 [kcal/mol]      -38.341 [kJ/mol]      -0.01460318 [Eh]
    Rotational contrib to G                 -2.779 [kcal/mol]      -11.626 [kJ/mol]      -0.00442814 [Eh]
    Vibrational contrib to G                 3.065 [kcal/mol]       12.824 [kJ/mol]       0.00488451 [Eh]
  Correction G                              -8.877 [kcal/mol]      -37.142 [kJ/mol]      -0.01414681 [Eh]
  Total G, Gibbs energy at  298.15 [K]                                                  -92.89639746 [Eh]

    Molecular point group: c2v

    Geometry (in Angstrom), charge = -1, multiplicity = 1:

       Center              X                  Y                   Z               Mass
    ------------   -----------------  -----------------  -----------------  -----------------
         N            0.000000000000     0.000000000000    -0.540188990264    14.003074004430
         C            0.000000000000     0.000000000000     0.630358867253    12.000000000000

  Charge       = -1
  Multiplicity = 1
  Basis Set: CC-PVTZ
    Blend: CC-PVTZ
  Basis Set: (CC-PVTZ AUX)
    Blend: CC-PVTZ-JKFIT

    Irrep   Nso     Nmo

    Orbital Energies [Eh]
    ---------------------

    Alpha Occupied:

       1A1   -14.012382     2A1    -9.882280     3A1    -0.599068
       4A1    -0.135054     1B2    -0.052660     1B1    -0.052660
       5A1    -0.019061

    Alpha Virtual:

       2B1     0.312030     2B2     0.312030     6A1     0.409162
       3B2     0.566905     3B1     0.566905     7A1     0.571205
       8A1     0.707786     4B2     0.783988     4B1     0.783988
       9A1     0.934952     1A2     0.934952    10A1     0.954303
       5B2     1.156077     5B1     1.156077    11A1     1.168442
       2A2     1.463239    12A1     1.463239    13A1     1.620311
       6B2     1.820585     6B1     1.820585    14A1     2.074050
       7B1     2.317689     7B2     2.317689    15A1     2.566390
       8B2     2.971706     8B1     2.971706    16A1     3.059125
       3A2     3.059125    17A1     3.106119     9B2     3.154823
       9B1     3.154823    10B2     3.280203    10B1     3.280203
      18A1     3.300410     4A2     3.300411    19A1     3.502013
      11B2     3.764731    11B1     3.764731    20A1     4.234653
      12B1     4.248493    12B2     4.248493     5A2     4.729107
      21A1     4.729109     6A2     4.874975    22A1     4.874979
      13B1     5.143460    13B2     5.143460    23A1     5.316763
      24A1     5.669664    14B2     5.875853    14B1     5.875853
      25A1     6.262751    26A1    12.771396

    Beta Occupied:

       1A1   -14.012382     2A1    -9.882280     3A1    -0.599068
       4A1    -0.135054     1B2    -0.052660     1B1    -0.052660
       5A1    -0.019061

    Beta Virtual:

       2B1     0.312030     2B2     0.312030     6A1     0.409162
       3B2     0.566905     3B1     0.566905     7A1     0.571205
       8A1     0.707786     4B2     0.783988     4B1     0.783988
       9A1     0.934952     1A2     0.934952    10A1     0.954303
       5B2     1.156077     5B1     1.156077    11A1     1.168442
       2A2     1.463239    12A1     1.463239    13A1     1.620311
       6B2     1.820585     6B1     1.820585    14A1     2.074050
       7B1     2.317689     7B2     2.317689    15A1     2.566390
       8B2     2.971706     8B1     2.971706    16A1     3.059125
       3A2     3.059125    17A1     3.106119     9B2     3.154823
       9B1     3.154823    10B2     3.280203    10B1     3.280203
      18A1     3.300410     4A2     3.300411    19A1     3.502013
      11B2     3.764731    11B1     3.764731    20A1     4.234653
      12B1     4.248493    12B2     4.248493     5A2     4.729107
      21A1     4.729109     6A2     4.874975    22A1     4.874979
      13B1     5.143460    13B2     5.143460    23A1     5.316763
      24A1     5.669664    14B2     5.875853    14B1     5.875853
      25A1     6.262751    26A1    12.771396

    Final Occupation by Irrep:
             A1    A2    B1    B2
    DOCC [     5,    0,    1,    1 ]
    SOCC [     0,    0,    0,    0 ]
    NA   [     5,    0,    1,    1 ]
    NB   [     5,    0,    1,    1 ]

  @DF-UKS Final Energy:   -92.88225065693473

   => Energetics <=

    Nuclear Repulsion Energy =             18.9872141539628743
    One-Electron Energy =                -166.9694054668219394
    Two-Electron Energy =                  65.1883038867996163
    DFT Exchange-Correlation Energy =     -10.0883632308752791
    Empirical Dispersion Energy =           0.0000000000000000
    VV10 Nonlocal Energy =                  0.0000000000000000
    Total Energy =                        -92.8822506569347297

  UHF NO Occupations:
  HONO-2 :    5 A1 2.0000000
  HONO-1 :    1 B1 2.0000000
  HONO-0 :    1 B2 2.0000000
  LUNO+0 :    6 A1 0.0000000
  LUNO+1 :    7 A1 0.0000000
  LUNO+2 :    8 A1 0.0000000
  LUNO+3 :    9 A1 0.0000000

Computation Completed

Properties will be evaluated at   0.000000,   0.000000,   0.000000 [a0]

Properties computed using the B3LYP density matrix

 Multipole Moments:

 ------------------------------------------------------------------------------------
     Multipole            Electronic (a.u.)      Nuclear  (a.u.)        Total (a.u.)
 ------------------------------------------------------------------------------------

 L = 1.  Multiply by 2.5417464519 to convert [e a0] to [Debye]
 Dipole X            :          0.0000000            0.0000000            0.0000000
 Dipole Y            :          0.0000000            0.0000000            0.0000000
 Dipole Z            :         -0.2593495            0.0015690           -0.2577805
 Magnitude           :                                                    0.2577805

 L = 2.  Multiply by 1.3450342976 to convert [e a0^2] to [Debye ang]
 Quadrupole XX       :        -10.3264822            0.0000000          -10.3264822
 Quadrupole XY       :          0.0000000            0.0000000            0.0000000
 Quadrupole XZ       :          0.0000000            0.0000000            0.0000000
 Quadrupole YY       :        -10.3264822            0.0000000          -10.3264822
 Quadrupole YZ       :          0.0000000            0.0000000            0.0000000
 Quadrupole ZZ       :        -29.6418638           15.8081856          -13.8336782
 Traceless XX        :          6.4384605           -5.2693952            1.1690653
 Traceless YY        :          6.4384605           -5.2693952            1.1690653
 Traceless ZZ        :        -12.8769211           10.5387904           -2.3381307

 ------------------------------------------------------------------------------------
  Mulliken Charges: (a.u.)
   Center  Symbol    Alpha    Beta     Spin     Total
       1     N     3.59467  3.59467  0.00000 -0.18933
       2     C     3.40533  3.40533 -0.00000 -0.81067

   Total alpha =  7.00000, Total beta =  7.00000, Total charge = -1.00000

*** tstop() called on Mac.lan at Sun Aug 10 17:39:01 2025
Module time:
	user time   =      14.78 seconds =       0.25 minutes
	system time =       2.16 seconds =       0.04 minutes
	total time  =          2 seconds =       0.03 minutes
Total time:
	user time   =     172.31 seconds =       2.87 minutes
	system time =      19.10 seconds =       0.32 minutes
	total time  =         18 seconds =       0.30 minutes

    Psi4 stopped on: Sunday, 10 August 2025 05:39PM
    Psi4 wall time for execution: 0:00:18.97

*** Psi4 exiting successfully. Buy a developer a beer!
