                               Psi4 1.9.1 release

  ==> Input File <==

--------------------------------------------------------------------------
molecule {
-1 2
O           0.000000           0.000000           0.000000
C           0.000000           0.000000           1.237180
}

set {
basis              cc-pvtz
reference          uks
maxiter            500
DAMPING_PERCENTAGE 1
E_CONVERGENCE      1.0E-8
D_CONVERGENCE      1.0E-8
DIIS_MAX_VECS      400
MBIS_MAXITER       8000
}

E, wfn = optimize('b3lyp', return_wfn=True)
frequencies('b3lyp', wfn=wfn, return_wfn=True)
properties('b3lyp','MULLIKEN_CHARGES', wfn=wfn)
--------------------------------------------------------------------------

    Molecular point group: c2v
  Charge       = -1
  Multiplicity = 2
  Basis Set: CC-PVTZ
    Blend: CC-PVTZ
  Basis Set: (CC-PVTZ AUX)
    Blend: CC-PVTZ-JKFIT
  @DF-UKS Final Energy:  -113.28634199378970
    Total Energy =                       -113.2863419937897049
 Dipole X            :          0.0000000            0.0000000            0.0000000
 Dipole Y            :          0.0000000            0.0000000            0.0000000
 Dipole Z            :         -0.7337069           -0.0025482           -0.7362551
 Magnitude           :                                                    0.7362551
    Molecular point group: c2v
  Basis Set: CC-PVTZ
    Blend: CC-PVTZ
  Basis Set: (CC-PVTZ AUX)
    Blend: CC-PVTZ-JKFIT
  Basis Set: CC-PVTZ
    Blend: CC-PVTZ
  Basis Set: (CC-PVTZ AUX)
    Blend: CC-PVTZ-JKFIT
  @DF-UKS Final Energy:  -113.28659877351708
    Total Energy =                       -113.2865987735170847
  Basis Set: CC-PVTZ
    Blend: CC-PVTZ
  Basis Set: (CC-PVTZ AUX)
    Blend: CC-PVTZ-JKFIT
  Basis Set: CC-PVTZ
    Blend: CC-PVTZ
  @DF-UKS Final Energy:  -113.28661007603662
    Total Energy =                       -113.2866100760366237
    Final optimized geometry and variables:
                               Psi4 1.9.1 release
  @DF-UKS Final Energy:  -113.28661007793301
    Total Energy =                       -113.2866100779330054
                               Psi4 1.9.1 release
  @DF-UKS Final Energy:  -113.28660910641310
    Total Energy =                       -113.2866091064130956
                               Psi4 1.9.1 release
  @DF-UKS Final Energy:  -113.28660835525356
    Total Energy =                       -113.2866083552535628
                               Psi4 1.9.1 release
    Blend: CC-PVTZ-JKFIT
  @DF-UKS Final Energy:  -113.28661007736432
    Total Energy =                       -113.2866100773643154
  Basis Set: CC-PVTZ
    Blend: CC-PVTZ
  Basis Set: (CC-PVTZ AUX)
    Blend: CC-PVTZ-JKFIT
                               Psi4 1.9.1 release
  Basis Set: CC-PVTZ
    Blend: CC-PVTZ
  Basis Set: (CC-PVTZ AUX)
    Blend: CC-PVTZ-JKFIT
  @DF-UKS Final Energy:  -113.28661007736052
    Total Energy =                       -113.2866100773605211
    Molecular point group: cs
  Basis Set: CC-PVTZ
    Blend: CC-PVTZ
  Basis Set: (CC-PVTZ AUX)
    Blend: CC-PVTZ-JKFIT

  -Total Gradient:
     Atom            X                  Y                   Z
    ------   -----------------  -----------------  -----------------
       1        0.000000000000     0.000000170509     0.000206292512
       2        0.000000000000    -0.000000165251    -0.000199931306

  Vibration                       6
  Freq [cm^-1]                1687.5406
  Irrep                           A1
  Reduced mass [u]             13.4388
  Force const [mDyne/A]        22.5485

  IR activ [km/mol]            101.9936

  ==> Thermochemistry Components <==

  Entropy, S
    Electronic S                             1.377 [cal/(mol K)]        5.763 [J/(mol K)]       0.00219507 [mEh/K] (multiplicity = 2)
    Translational S                         35.923 [cal/(mol K)]      150.302 [J/(mol K)]       0.05724692 [mEh/K] (mol. weight = 27.9949 [u], P = 101325.00 [Pa])
    Rotational S                            11.597 [cal/(mol K)]       48.523 [J/(mol K)]       0.01848159 [mEh/K] (symmetry no. = 1)
    Vibrational S                            0.005 [cal/(mol K)]        0.022 [J/(mol K)]       0.00000842 [mEh/K]
  Total S                                   48.903 [cal/(mol K)]      204.610 [J/(mol K)]       0.07793200 [mEh/K]
  Correction S                               0.000 [cal/(mol K)]        0.000 [J/(mol K)]       0.00000000 [mEh/K]

  Constant volume heat capacity, Cv
    Electronic Cv                            0.000 [cal/(mol K)]        0.000 [J/(mol K)]       0.00000000 [mEh/K]
    Translational Cv                         2.981 [cal/(mol K)]       12.472 [J/(mol K)]       0.00475022 [mEh/K]
    Rotational Cv                            1.987 [cal/(mol K)]        8.314 [J/(mol K)]       0.00316681 [mEh/K]
    Vibrational Cv                           0.038 [cal/(mol K)]        0.160 [J/(mol K)]       0.00006107 [mEh/K]
  Total Cv                                   5.006 [cal/(mol K)]       20.946 [J/(mol K)]       0.00797809 [mEh/K]
  Correction Cv                              0.000 [cal/(mol K)]        0.000 [J/(mol K)]       0.00000000 [mEh/K]

  Constant pressure heat capacity, Cp
    Electronic Cp                            0.000 [cal/(mol K)]        0.000 [J/(mol K)]       0.00000000 [mEh/K]
    Translational Cp                         4.968 [cal/(mol K)]       20.786 [J/(mol K)]       0.00791703 [mEh/K]
    Rotational Cp                            1.987 [cal/(mol K)]        8.314 [J/(mol K)]       0.00316681 [mEh/K]
    Vibrational Cp                           0.038 [cal/(mol K)]        0.160 [J/(mol K)]       0.00006107 [mEh/K]
  Total Cp                                   6.994 [cal/(mol K)]       29.261 [J/(mol K)]       0.01114490 [mEh/K]
  Correction Cp                              0.000 [cal/(mol K)]        0.000 [J/(mol K)]       0.00000000 [mEh/K]

  ==> Thermochemistry Energy Analysis <==

  Raw electronic energy, E_e
  Total E_e, Electronic energy at well bottom                                          -113.28661008 [Eh]

  Zero-point vibrational energy, ZPVE = Sum_i omega_i / 2,  E_0 = E_e + ZPVE
    Vibrational ZPVE                         2.412 [kcal/mol]       10.094 [kJ/mol]       0.00384450 [Eh]         843.770 [cm^-1]
  Correction ZPVE to E_e                     2.412 [kcal/mol]       10.094 [kJ/mol]       0.00384450 [Eh]         843.770 [cm^-1]
  Total E_0, Enthalpy at 0 [K]                                                         -113.28276558 [Eh]
  *** Absolute enthalpy, not an enthalpy of formation ***

  Thermal (internal) energy, E (includes ZPVE and finite-temperature corrections)
    Electronic contrib to E beyond E_e       0.000 [kcal/mol]        0.000 [kJ/mol]       0.00000000 [Eh]
    Translational contrib to E               0.889 [kcal/mol]        3.718 [kJ/mol]       0.00141628 [Eh]
    Rotational contrib to E                  0.592 [kcal/mol]        2.479 [kJ/mol]       0.00094418 [Eh]
    Vibrational contrib to E                 2.414 [kcal/mol]       10.100 [kJ/mol]       0.00384674 [Eh]
  Correction E                               3.895 [kcal/mol]       16.297 [kJ/mol]       0.00620720 [Eh]
  Total E, Thermal (internal) energy at  298.15 [K]                                    -113.28040288 [Eh]

  Enthalpy, H_trans = E_trans + k_B * T = E_trans + P * V
    Electronic contrib to H beyond E_e       0.000 [kcal/mol]        0.000 [kJ/mol]       0.00000000 [Eh]
    Translational contrib to H               1.481 [kcal/mol]        6.197 [kJ/mol]       0.00236046 [Eh]
    Rotational contrib to H                  0.592 [kcal/mol]        2.479 [kJ/mol]       0.00094418 [Eh]
    Vibrational contrib to H                 2.414 [kcal/mol]       10.100 [kJ/mol]       0.00384674 [Eh]
  Correction H                               4.488 [kcal/mol]       18.776 [kJ/mol]       0.00715138 [Eh]
  Total H, Enthalpy at  298.15 [K]                                                     -113.27945870 [Eh]
  *** Absolute enthalpy, not an enthalpy of formation ***

  Gibbs free energy, G = H - T * S
    Electronic contrib to G beyond E_e      -0.411 [kcal/mol]       -1.718 [kJ/mol]      -0.00065446 [Eh]
    Translational contrib to G              -9.229 [kcal/mol]      -38.615 [kJ/mol]      -0.01470771 [Eh]
    Rotational contrib to G                 -2.865 [kcal/mol]      -11.988 [kJ/mol]      -0.00456610 [Eh]
    Vibrational contrib to G                 2.412 [kcal/mol]       10.093 [kJ/mol]       0.00384423 [Eh]
  Correction G                             -10.093 [kcal/mol]      -42.229 [kJ/mol]      -0.01608404 [Eh]
  Total G, Gibbs energy at  298.15 [K]                                                 -113.30269412 [Eh]

    Molecular point group: c2v

    Geometry (in Angstrom), charge = -1, multiplicity = 2:

       Center              X                  Y                   Z               Mass
    ------------   -----------------  -----------------  -----------------  -----------------
         O            0.000000000000     0.000000000000    -0.524043727322    15.994914619570
         C            0.000000000000     0.000000000000     0.698502889619    12.000000000000

  Charge       = -1
  Multiplicity = 2
  Basis Set: CC-PVTZ
    Blend: CC-PVTZ
  Basis Set: (CC-PVTZ AUX)
    Blend: CC-PVTZ-JKFIT

    Irrep   Nso     Nmo

    Orbital Energies [Eh]
    ---------------------

    Alpha Occupied:

       1A1   -18.858957     2A1    -9.918975     3A1    -0.761482
       4A1    -0.243265     1B1    -0.125627     1B2    -0.108414
       5A1    -0.053642     2B1     0.173471

    Alpha Virtual:

       2B2     0.259431     6A1     0.405812     3B1     0.552748
       3B2     0.566737     7A1     0.575148     8A1     0.814104
       9A1     0.820239     4B1     0.891222     4B2     0.894230
       1A2     0.939775    10A1     0.942388     5B1     1.131962
       5B2     1.133867    11A1     1.400740    12A1     1.540508
       2A2     1.803723    13A1     1.804477     6B1     2.133654
       6B2     2.139361    14A1     2.285764     7B1     2.330563
       7B2     2.337488    15A1     2.648359     8B1     2.970555
       8B2     2.971164     3A2     3.105336    16A1     3.107168
       4A2     3.261094    17A1     3.265694     9B1     3.284606
       9B2     3.291126    18A1     3.457157    10B1     3.502824
      10B2     3.505967    19A1     3.596228    11B1     4.293097
      11B2     4.293898    20A1     4.481935    12B1     5.410089
      12B2     5.410132     5A2     5.703427    21A1     5.703974
      22A1     6.210383    13B2     6.328066    13B1     6.328957
       6A2     6.549404    23A1     6.550468    24A1     6.826637
      14B1     7.047675    14B2     7.048788    25A1     7.286167
      26A1    11.196317

    Beta Occupied:

       1A1   -18.851074     2A1    -9.909397     3A1    -0.746300
       4A1    -0.221601     1B2    -0.102244     1B1    -0.076285
       5A1    -0.029478

    Beta Virtual:

       2B2     0.269914     2B1     0.300195     6A1     0.409552
       3B2     0.573572     7A1     0.590341     3B1     0.597538
       8A1     0.820419     9A1     0.835782     4B2     0.896667
       4B1     0.910709     1A2     0.968014    10A1     0.968791
       5B2     1.135643     5B1     1.159904    11A1     1.408549
      12A1     1.550507     2A2     1.818083    13A1     1.818238
       6B2     2.142598     6B1     2.164376    14A1     2.299846
       7B2     2.344953     7B1     2.374519    15A1     2.658502
       8B2     3.008321     8B1     3.008411     3A2     3.127118
      16A1     3.127147     9B2     3.293737    17A1     3.308511
       4A2     3.309667     9B1     3.322243    18A1     3.471125
      10B2     3.509445    10B1     3.534692    19A1     3.609594
      11B2     4.297962    11B1     4.321751    20A1     4.492387
      12B2     5.427193    12B1     5.427196    21A1     5.715915
       5A2     5.716001    22A1     6.219104    13B2     6.330747
      13B1     6.351893    23A1     6.576944     6A2     6.577043
      24A1     6.838544    14B2     7.051445    14B1     7.072020
      25A1     7.296045    26A1    11.209753

    Final Occupation by Irrep:
             A1    A2    B1    B2
    DOCC [     5,    0,    1,    1 ]
    SOCC [     0,    0,    1,    0 ]
    NA   [     5,    0,    2,    1 ]
    NB   [     5,    0,    1,    1 ]

  @DF-UKS Final Energy:  -113.28661007793301

   => Energetics <=

    Nuclear Repulsion Energy =             20.7767178446872585
    One-Electron Energy =                -200.0639257185874555
    Two-Electron Energy =                  77.4431305725575072
    DFT Exchange-Correlation Energy =     -11.4425327765903155
    Empirical Dispersion Energy =           0.0000000000000000
    VV10 Nonlocal Energy =                  0.0000000000000000
    Total Energy =                       -113.2866100779330054

  UHF NO Occupations:
  HONO-2 :    1 B1 1.9993683
  HONO-1 :    5 A1 1.9992880
  HONO-0 :    2 B1 1.0000000
  LUNO+0 :    6 A1 0.0007120
  LUNO+1 :    3 B1 0.0006317
  LUNO+2 :    7 A1 0.0000554
  LUNO+3 :    2 B2 0.0000427

Computation Completed

Properties will be evaluated at   0.000000,   0.000000,   0.000000 [a0]

Properties computed using the B3LYP density matrix

 Multipole Moments:

 ------------------------------------------------------------------------------------
     Multipole            Electronic (a.u.)      Nuclear  (a.u.)        Total (a.u.)
 ------------------------------------------------------------------------------------

 L = 1.  Multiply by 2.5417464519 to convert [e a0] to [Debye]
 Dipole X            :          0.0000000            0.0000000            0.0000000
 Dipole Y            :          0.0000000            0.0000000            0.0000000
 Dipole Z            :         -0.7570225           -0.0025180           -0.7595405
 Magnitude           :                                                    0.7595405

 L = 2.  Multiply by 1.3450342976 to convert [e a0^2] to [Debye ang]
 Quadrupole XX       :        -11.3226637            0.0000000          -11.3226637
 Quadrupole XY       :          0.0000000            0.0000000            0.0000000
 Quadrupole XZ       :          0.0000000            0.0000000            0.0000000
 Quadrupole YY       :         -9.5817729            0.0000000           -9.5817729
 Quadrupole YZ       :          0.0000000            0.0000000            0.0000000
 Quadrupole ZZ       :        -31.9903118           18.2996087          -13.6907031
 Traceless XX        :          6.3089191           -6.0998696            0.2090496
 Traceless YY        :          8.0498099           -6.0998696            1.9499403
 Traceless ZZ        :        -14.3587290           12.1997391           -2.1589899

 ------------------------------------------------------------------------------------
  Mulliken Charges: (a.u.)
   Center  Symbol    Alpha    Beta     Spin     Total
       1     O     4.25699  4.05494  0.20205 -0.31194
       2     C     3.74301  2.94506  0.79795 -0.68806

   Total alpha =  8.00000, Total beta =  7.00000, Total charge = -1.00000

*** tstop() called on Mac.lan at Sun Aug 10 17:41:39 2025
Module time:
	user time   =      16.82 seconds =       0.28 minutes
	system time =       1.70 seconds =       0.03 minutes
	total time  =          2 seconds =       0.03 minutes
Total time:
	user time   =     168.24 seconds =       2.80 minutes
	system time =      18.08 seconds =       0.30 minutes
	total time  =         18 seconds =       0.30 minutes

    Psi4 stopped on: Sunday, 10 August 2025 05:41PM
    Psi4 wall time for execution: 0:00:18.52

*** Psi4 exiting successfully. Buy a developer a beer!
