                               Psi4 1.9.1 release

  ==> Input File <==

--------------------------------------------------------------------------
molecule {
-1 3
C           0.000000           0.000000           0.000000
H           0.000000           0.000000           1.185908
}

set {
basis              cc-pvtz
reference          uks
maxiter            500
DAMPING_PERCENTAGE 1
E_CONVERGENCE      1.0E-8
D_CONVERGENCE      1.0E-8
DIIS_MAX_VECS      400
MBIS_MAXITER       8000
}

E, wfn = optimize('b3lyp', return_wfn=True)
frequencies('b3lyp', wfn=wfn, return_wfn=True)
properties('b3lyp','MULLIKEN_CHARGES', wfn=wfn)
--------------------------------------------------------------------------

    Molecular point group: c2v
  Charge       = -1
  Multiplicity = 3
  Basis Set: CC-PVTZ
    Blend: CC-PVTZ
  Basis Set: (CC-PVTZ AUX)
    Blend: CC-PVTZ-JKFIT
  @DF-UKS Final Energy:   -38.52677221416608
    Total Energy =                        -38.5267722141660727
 Dipole X            :          0.0000000            0.0000000            0.0000000
 Dipole Y            :          0.0000000            0.0000000            0.0000000
 Dipole Z            :         -0.6924859            1.0256158            0.3331299
 Magnitude           :                                                    0.3331299
    Molecular point group: c2v
  Basis Set: CC-PVTZ
    Blend: CC-PVTZ
  Basis Set: (CC-PVTZ AUX)
    Blend: CC-PVTZ-JKFIT
  Basis Set: CC-PVTZ
    Blend: CC-PVTZ
  Basis Set: (CC-PVTZ AUX)
    Blend: CC-PVTZ-JKFIT
  @DF-UKS Final Energy:   -38.52717597254195
    Total Energy =                        -38.5271759725419543
  Basis Set: CC-PVTZ
    Blend: CC-PVTZ
  Basis Set: (CC-PVTZ AUX)
    Blend: CC-PVTZ-JKFIT
  Basis Set: CC-PVTZ
    Blend: CC-PVTZ
  @DF-UKS Final Energy:   -38.52720406373574
    Total Energy =                        -38.5272040637357449
  @DF-UKS Final Energy:   -38.52720446899920
    Total Energy =                        -38.5272044689992015
    Final optimized geometry and variables:
                               Psi4 1.9.1 release
  @DF-UKS Final Energy:   -38.52720447066152
    Total Energy =                        -38.5272044706615162
                               Psi4 1.9.1 release
  @DF-UKS Final Energy:   -38.52720132507294
    Total Energy =                        -38.5272013250729373
                               Psi4 1.9.1 release
  @DF-UKS Final Energy:   -38.52720180575553
    Total Energy =                        -38.5272018057555314
                               Psi4 1.9.1 release
    Blend: CC-PVTZ-JKFIT
  @DF-UKS Final Energy:   -38.52720447036793
    Total Energy =                        -38.5272044703679271
  Basis Set: CC-PVTZ
    Blend: CC-PVTZ
  Basis Set: (CC-PVTZ AUX)
    Blend: CC-PVTZ-JKFIT
                               Psi4 1.9.1 release
  Basis Set: CC-PVTZ
    Blend: CC-PVTZ
  Basis Set: (CC-PVTZ AUX)
    Blend: CC-PVTZ-JKFIT
  @DF-UKS Final Energy:   -38.52720447036734
    Total Energy =                        -38.5272044703673373
    Molecular point group: cs
  Basis Set: CC-PVTZ
    Blend: CC-PVTZ
  Basis Set: (CC-PVTZ AUX)
    Blend: CC-PVTZ-JKFIT

  -Total Gradient:
     Atom            X                  Y                   Z
    ------   -----------------  -----------------  -----------------
       1        0.000000000000    -0.000000121298    -0.000050892597
       2        0.000000000000     0.000000121797     0.000051101984

  Vibration                       6
  Freq [cm^-1]                2478.2562
  Irrep                           A1
  Reduced mass [u]              1.0848
  Force const [mDyne/A]         3.9255

  IR activ [km/mol]            833.8522

  ==> Thermochemistry Components <==

  Entropy, S
    Electronic S                             2.183 [cal/(mol K)]        9.134 [J/(mol K)]       0.00347910 [mEh/K] (multiplicity = 3)
    Translational S                         33.638 [cal/(mol K)]      140.743 [J/(mol K)]       0.05360602 [mEh/K] (mol. weight = 13.0078 [u], P = 101325.00 [Pa])
    Rotational S                             7.388 [cal/(mol K)]       30.913 [J/(mol K)]       0.01177404 [mEh/K] (symmetry no. = 1)
    Vibrational S                            0.000 [cal/(mol K)]        0.001 [J/(mol K)]       0.00000026 [mEh/K]
  Total S                                   43.210 [cal/(mol K)]      180.790 [J/(mol K)]       0.06885942 [mEh/K]
  Correction S                               0.000 [cal/(mol K)]        0.000 [J/(mol K)]       0.00000000 [mEh/K]

  Constant volume heat capacity, Cv
    Electronic Cv                            0.000 [cal/(mol K)]        0.000 [J/(mol K)]       0.00000000 [mEh/K]
    Translational Cv                         2.981 [cal/(mol K)]       12.472 [J/(mol K)]       0.00475022 [mEh/K]
    Rotational Cv                            1.987 [cal/(mol K)]        8.314 [J/(mol K)]       0.00316681 [mEh/K]
    Vibrational Cv                           0.002 [cal/(mol K)]        0.008 [J/(mol K)]       0.00000290 [mEh/K]
  Total Cv                                   4.970 [cal/(mol K)]       20.794 [J/(mol K)]       0.00791992 [mEh/K]
  Correction Cv                              0.000 [cal/(mol K)]        0.000 [J/(mol K)]       0.00000000 [mEh/K]

  Constant pressure heat capacity, Cp
    Electronic Cp                            0.000 [cal/(mol K)]        0.000 [J/(mol K)]       0.00000000 [mEh/K]
    Translational Cp                         4.968 [cal/(mol K)]       20.786 [J/(mol K)]       0.00791703 [mEh/K]
    Rotational Cp                            1.987 [cal/(mol K)]        8.314 [J/(mol K)]       0.00316681 [mEh/K]
    Vibrational Cp                           0.002 [cal/(mol K)]        0.008 [J/(mol K)]       0.00000290 [mEh/K]
  Total Cp                                   6.957 [cal/(mol K)]       29.108 [J/(mol K)]       0.01108674 [mEh/K]
  Correction Cp                              0.000 [cal/(mol K)]        0.000 [J/(mol K)]       0.00000000 [mEh/K]

  ==> Thermochemistry Energy Analysis <==

  Raw electronic energy, E_e
  Total E_e, Electronic energy at well bottom                                           -38.52720447 [Eh]

  Zero-point vibrational energy, ZPVE = Sum_i omega_i / 2,  E_0 = E_e + ZPVE
    Vibrational ZPVE                         3.543 [kcal/mol]       14.823 [kJ/mol]       0.00564588 [Eh]        1239.128 [cm^-1]
  Correction ZPVE to E_e                     3.543 [kcal/mol]       14.823 [kJ/mol]       0.00564588 [Eh]        1239.128 [cm^-1]
  Total E_0, Enthalpy at 0 [K]                                                          -38.52155859 [Eh]
  *** Absolute enthalpy, not an enthalpy of formation ***

  Thermal (internal) energy, E (includes ZPVE and finite-temperature corrections)
    Electronic contrib to E beyond E_e       0.000 [kcal/mol]        0.000 [kJ/mol]       0.00000000 [Eh]
    Translational contrib to E               0.889 [kcal/mol]        3.718 [kJ/mol]       0.00141628 [Eh]
    Rotational contrib to E                  0.592 [kcal/mol]        2.479 [kJ/mol]       0.00094418 [Eh]
    Vibrational contrib to E                 3.543 [kcal/mol]       14.823 [kJ/mol]       0.00564596 [Eh]
  Correction E                               5.024 [kcal/mol]       21.021 [kJ/mol]       0.00800642 [Eh]
  Total E, Thermal (internal) energy at  298.15 [K]                                     -38.51919805 [Eh]

  Enthalpy, H_trans = E_trans + k_B * T = E_trans + P * V
    Electronic contrib to H beyond E_e       0.000 [kcal/mol]        0.000 [kJ/mol]       0.00000000 [Eh]
    Translational contrib to H               1.481 [kcal/mol]        6.197 [kJ/mol]       0.00236046 [Eh]
    Rotational contrib to H                  0.592 [kcal/mol]        2.479 [kJ/mol]       0.00094418 [Eh]
    Vibrational contrib to H                 3.543 [kcal/mol]       14.823 [kJ/mol]       0.00564596 [Eh]
  Correction H                               5.617 [kcal/mol]       23.500 [kJ/mol]       0.00895060 [Eh]
  Total H, Enthalpy at  298.15 [K]                                                      -38.51825387 [Eh]
  *** Absolute enthalpy, not an enthalpy of formation ***

  Gibbs free energy, G = H - T * S
    Electronic contrib to G beyond E_e      -0.651 [kcal/mol]       -2.723 [kJ/mol]      -0.00103729 [Eh]
    Translational contrib to G              -8.548 [kcal/mol]      -35.765 [kJ/mol]      -0.01362217 [Eh]
    Rotational contrib to G                 -1.610 [kcal/mol]       -6.738 [kJ/mol]      -0.00256625 [Eh]
    Vibrational contrib to G                 3.543 [kcal/mol]       14.823 [kJ/mol]       0.00564588 [Eh]
  Correction G                              -7.266 [kcal/mol]      -30.403 [kJ/mol]      -0.01157983 [Eh]
  Total G, Gibbs energy at  298.15 [K]                                                  -38.53878430 [Eh]

    Molecular point group: c2v

    Geometry (in Angstrom), charge = -1, multiplicity = 3:

       Center              X                  Y                   Z               Mass
    ------------   -----------------  -----------------  -----------------  -----------------
         C            0.000000000000     0.000000000000    -0.089201527379    12.000000000000
         H            0.000000000000     0.000000000000     1.062107304653     1.007825032230

  Charge       = -1
  Multiplicity = 3
  Basis Set: CC-PVTZ
    Blend: CC-PVTZ
  Basis Set: (CC-PVTZ AUX)
    Blend: CC-PVTZ-JKFIT

    Irrep   Nso     Nmo

    Orbital Energies [Eh]
    ---------------------

    Alpha Occupied:

       1A1    -9.878156     2A1    -0.302431     3A1     0.009552
       1B2     0.086415     1B1     0.086415

    Alpha Virtual:

       4A1     0.293335     5A1     0.541299     2B2     0.574228
       2B1     0.574228     6A1     0.643297     7A1     0.710719
       3B2     0.873945     3B1     0.873945     8A1     0.965100
       1A2     0.965100     9A1     1.244358     4B2     1.313534
       4B1     1.313534    10A1     1.649076     5B2     2.288966
       5B1     2.288966    11A1     2.401316    12A1     2.552038
      13A1     2.870857     2A2     2.870857     6B2     2.957296
       6B1     2.957296     7B1     2.993376     7B2     2.993376
      14A1     3.225441     3A2     3.263483    15A1     3.263483
       8B2     3.404225     8B1     3.404225    16A1     3.526511
      17A1     3.853361     4A2     3.853362     9B2     4.102509
       9B1     4.102509    18A1     4.699739    10B1     4.935684
      10B2     4.935684    19A1     4.993772    20A1     8.087335

    Beta Occupied:

       1A1    -9.854828     2A1    -0.231762     3A1     0.044161

    Beta Virtual:

       1B2     0.242930     1B1     0.242930     4A1     0.300855
       5A1     0.557560     2B2     0.645203     2B1     0.645203
       6A1     0.669306     7A1     0.742508     3B2     0.902226
       3B1     0.902226     1A2     1.041590     8A1     1.041590
       9A1     1.267920     4B2     1.337577     4B1     1.337577
      10A1     1.669163     5B2     2.368476     5B1     2.368476
      11A1     2.418153    12A1     2.581475    13A1     2.919861
       2A2     2.919861     6B2     2.996945     6B1     2.996945
       7B1     3.089011     7B2     3.089011    14A1     3.259761
      15A1     3.381591     3A2     3.381591     8B2     3.453628
       8B1     3.453628    16A1     3.552332    17A1     3.872922
       4A2     3.872923     9B2     4.103321     9B1     4.103321
      18A1     4.714205    10B1     4.958813    10B2     4.958813
      19A1     5.003465    20A1     8.116272

    Final Occupation by Irrep:
             A1    A2    B1    B2
    DOCC [     3,    0,    0,    0 ]
    SOCC [     0,    0,    1,    1 ]
    NA   [     3,    0,    1,    1 ]
    NB   [     3,    0,    0,    0 ]

  @DF-UKS Final Energy:   -38.52720447066152

   => Energetics <=

    Nuclear Repulsion Energy =              2.7577859004335186
    One-Electron Energy =                 -59.0974244068487167
    Two-Electron Energy =                  22.5729900752921964
    DFT Exchange-Correlation Energy =      -4.7605560395385176
    Empirical Dispersion Energy =           0.0000000000000000
    VV10 Nonlocal Energy =                  0.0000000000000000
    Total Energy =                        -38.5272044706615162

  UHF NO Occupations:
  HONO-2 :    3 A1 1.9976225
  HONO-1 :    1 B1 1.0000000
  HONO-0 :    1 B2 1.0000000
  LUNO+0 :    4 A1 0.0023775
  LUNO+1 :    5 A1 0.0004121
  LUNO+2 :    6 A1 0.0000011
  LUNO+3 :    7 A1 0.0000000

Computation Completed

Properties will be evaluated at   0.000000,   0.000000,   0.000000 [a0]

Properties computed using the B3LYP density matrix

 Multipole Moments:

 ------------------------------------------------------------------------------------
     Multipole            Electronic (a.u.)      Nuclear  (a.u.)        Total (a.u.)
 ------------------------------------------------------------------------------------

 L = 1.  Multiply by 2.5417464519 to convert [e a0] to [Debye]
 Dipole X            :          0.0000000            0.0000000            0.0000000
 Dipole Y            :          0.0000000            0.0000000            0.0000000
 Dipole Z            :         -0.6034776            0.9956932            0.3922156
 Magnitude           :                                                    0.3922156

 L = 2.  Multiply by 1.3450342976 to convert [e a0^2] to [Debye ang]
 Quadrupole XX       :         -8.0158970            0.0000000           -8.0158970
 Quadrupole XY       :          0.0000000            0.0000000            0.0000000
 Quadrupole XZ       :          0.0000000            0.0000000            0.0000000
 Quadrupole YY       :         -8.0158970            0.0000000           -8.0158970
 Quadrupole YZ       :          0.0000000            0.0000000            0.0000000
 Quadrupole ZZ       :        -12.8806211            4.1989059           -8.6817153
 Traceless XX        :          1.6215747           -1.3996353            0.2219394
 Traceless YY        :          1.6215747           -1.3996353            0.2219394
 Traceless ZZ        :         -3.2431494            2.7992706           -0.4438788

 ------------------------------------------------------------------------------------
  Mulliken Charges: (a.u.)
   Center  Symbol    Alpha    Beta     Spin     Total
       1     C     4.48464  2.43271  2.05193 -0.91736
       2     H     0.51536  0.56729 -0.05193 -0.08264

   Total alpha =  5.00000, Total beta =  3.00000, Total charge = -1.00000

*** tstop() called on Mac.lan at Sun Aug 10 17:34:40 2025
Module time:
	user time   =      11.87 seconds =       0.20 minutes
	system time =       1.46 seconds =       0.02 minutes
	total time  =          2 seconds =       0.03 minutes
Total time:
	user time   =     136.02 seconds =       2.27 minutes
	system time =      16.90 seconds =       0.28 minutes
	total time  =         15 seconds =       0.25 minutes

    Psi4 stopped on: Sunday, 10 August 2025 05:34PM
    Psi4 wall time for execution: 0:00:15.34

*** Psi4 exiting successfully. Buy a developer a beer!
