                               Psi4 1.9.1 release

  ==> Input File <==

--------------------------------------------------------------------------
molecule {
-1 2
N           0.000000           0.000000           0.000000
N           0.000000           0.000000           1.202222
}

set {
basis              cc-pvtz
reference          uks
maxiter            500
DAMPING_PERCENTAGE 1
E_CONVERGENCE      1.0E-8
D_CONVERGENCE      1.0E-8
DIIS_MAX_VECS      400
MBIS_MAXITER       8000
}

E, wfn = optimize('b3lyp', return_wfn=True)
frequencies('b3lyp', wfn=wfn, return_wfn=True)
properties('b3lyp','MULLIKEN_CHARGES', wfn=wfn)
--------------------------------------------------------------------------

    Molecular point group: d2h
  Charge       = -1
  Multiplicity = 2
  Basis Set: CC-PVTZ
    Blend: CC-PVTZ
  Basis Set: (CC-PVTZ AUX)
    Blend: CC-PVTZ-JKFIT
  @DF-UKS Final Energy:  -109.48318649036163
    Total Energy =                       -109.4831864903616321
 Dipole X            :          0.0000000            0.0000000            0.0000000
 Dipole Y            :          0.0000000            0.0000000            0.0000000
 Dipole Z            :          0.0000000            0.0000000            0.0000000
 Magnitude           :                                                    0.0000000
    Molecular point group: d2h
  Basis Set: CC-PVTZ
    Blend: CC-PVTZ
  Basis Set: (CC-PVTZ AUX)
    Blend: CC-PVTZ-JKFIT
  Basis Set: CC-PVTZ
    Blend: CC-PVTZ
  Basis Set: (CC-PVTZ AUX)
    Blend: CC-PVTZ-JKFIT
  @DF-UKS Final Energy:  -109.48348507952720
    Total Energy =                       -109.4834850795271990
  Basis Set: CC-PVTZ
    Blend: CC-PVTZ
  Basis Set: (CC-PVTZ AUX)
    Blend: CC-PVTZ-JKFIT
  Basis Set: CC-PVTZ
    Blend: CC-PVTZ
  @DF-UKS Final Energy:  -109.48349035343291
    Total Energy =                       -109.4834903534329129
    Final optimized geometry and variables:
                               Psi4 1.9.1 release
  @DF-UKS Final Energy:  -109.48349035384436
    Total Energy =                       -109.4834903538443598
                               Psi4 1.9.1 release
  @DF-UKS Final Energy:  -109.48348894839116
    Total Energy =                       -109.4834889483911553
                               Psi4 1.9.1 release
  @DF-UKS Final Energy:  -109.48348838137338
    Total Energy =                       -109.4834883813733768
                               Psi4 1.9.1 release
    Blend: CC-PVTZ-JKFIT
  @DF-UKS Final Energy:  -109.48349035394972
    Total Energy =                       -109.4834903539497191
  Basis Set: CC-PVTZ
    Blend: CC-PVTZ
  Basis Set: (CC-PVTZ AUX)
    Blend: CC-PVTZ-JKFIT
                               Psi4 1.9.1 release
  Basis Set: CC-PVTZ
    Blend: CC-PVTZ
  Basis Set: (CC-PVTZ AUX)
    Blend: CC-PVTZ-JKFIT
  @DF-UKS Final Energy:  -109.48349035395233
    Total Energy =                       -109.4834903539523339
    Molecular point group: c2h
  Basis Set: CC-PVTZ
    Blend: CC-PVTZ
  Basis Set: (CC-PVTZ AUX)
    Blend: CC-PVTZ-JKFIT

  -Total Gradient:
     Atom            X                  Y                   Z
    ------   -----------------  -----------------  -----------------
       1        0.000000000000     0.000000125831     0.000149561307
       2        0.000000000000    -0.000000125831    -0.000149561307

  Vibration                       6
  Freq [cm^-1]                1889.5304
  Irrep                           Ag
  Reduced mass [u]             14.0031
  Force const [mDyne/A]        29.4565

  IR activ [km/mol]             0.0000

  ==> Thermochemistry Components <==

  Entropy, S
    Electronic S                             1.377 [cal/(mol K)]        5.763 [J/(mol K)]       0.00219507 [mEh/K] (multiplicity = 2)
    Translational S                         35.924 [cal/(mol K)]      150.307 [J/(mol K)]       0.05724883 [mEh/K] (mol. weight = 28.0061 [u], P = 101325.00 [Pa])
    Rotational S                            10.149 [cal/(mol K)]       42.465 [J/(mol K)]       0.01617414 [mEh/K] (symmetry no. = 2)
    Vibrational S                            0.002 [cal/(mol K)]        0.009 [J/(mol K)]       0.00000351 [mEh/K]
  Total S                                   47.453 [cal/(mol K)]      198.544 [J/(mol K)]       0.07562155 [mEh/K]
  Correction S                               0.000 [cal/(mol K)]        0.000 [J/(mol K)]       0.00000000 [mEh/K]

  Constant volume heat capacity, Cv
    Electronic Cv                            0.000 [cal/(mol K)]        0.000 [J/(mol K)]       0.00000000 [mEh/K]
    Translational Cv                         2.981 [cal/(mol K)]       12.472 [J/(mol K)]       0.00475022 [mEh/K]
    Rotational Cv                            1.987 [cal/(mol K)]        8.314 [J/(mol K)]       0.00316681 [mEh/K]
    Vibrational Cv                           0.018 [cal/(mol K)]        0.076 [J/(mol K)]       0.00002888 [mEh/K]
  Total Cv                                   4.986 [cal/(mol K)]       20.862 [J/(mol K)]       0.00794590 [mEh/K]
  Correction Cv                              0.000 [cal/(mol K)]        0.000 [J/(mol K)]       0.00000000 [mEh/K]

  Constant pressure heat capacity, Cp
    Electronic Cp                            0.000 [cal/(mol K)]        0.000 [J/(mol K)]       0.00000000 [mEh/K]
    Translational Cp                         4.968 [cal/(mol K)]       20.786 [J/(mol K)]       0.00791703 [mEh/K]
    Rotational Cp                            1.987 [cal/(mol K)]        8.314 [J/(mol K)]       0.00316681 [mEh/K]
    Vibrational Cp                           0.018 [cal/(mol K)]        0.076 [J/(mol K)]       0.00002888 [mEh/K]
  Total Cp                                   6.973 [cal/(mol K)]       29.176 [J/(mol K)]       0.01111271 [mEh/K]
  Correction Cp                              0.000 [cal/(mol K)]        0.000 [J/(mol K)]       0.00000000 [mEh/K]

  ==> Thermochemistry Energy Analysis <==

  Raw electronic energy, E_e
  Total E_e, Electronic energy at well bottom                                          -109.48349035 [Eh]

  Zero-point vibrational energy, ZPVE = Sum_i omega_i / 2,  E_0 = E_e + ZPVE
    Vibrational ZPVE                         2.701 [kcal/mol]       11.302 [kJ/mol]       0.00430467 [Eh]         944.765 [cm^-1]
  Correction ZPVE to E_e                     2.701 [kcal/mol]       11.302 [kJ/mol]       0.00430467 [Eh]         944.765 [cm^-1]
  Total E_0, Enthalpy at 0 [K]                                                         -109.47918569 [Eh]
  *** Absolute enthalpy, not an enthalpy of formation ***

  Thermal (internal) energy, E (includes ZPVE and finite-temperature corrections)
    Electronic contrib to E beyond E_e       0.000 [kcal/mol]        0.000 [kJ/mol]       0.00000000 [Eh]
    Translational contrib to E               0.889 [kcal/mol]        3.718 [kJ/mol]       0.00141628 [Eh]
    Rotational contrib to E                  0.592 [kcal/mol]        2.479 [kJ/mol]       0.00094418 [Eh]
    Vibrational contrib to E                 2.702 [kcal/mol]       11.304 [kJ/mol]       0.00430561 [Eh]
  Correction E                               4.183 [kcal/mol]       17.502 [kJ/mol]       0.00666607 [Eh]
  Total E, Thermal (internal) energy at  298.15 [K]                                    -109.47682428 [Eh]

  Enthalpy, H_trans = E_trans + k_B * T = E_trans + P * V
    Electronic contrib to H beyond E_e       0.000 [kcal/mol]        0.000 [kJ/mol]       0.00000000 [Eh]
    Translational contrib to H               1.481 [kcal/mol]        6.197 [kJ/mol]       0.00236046 [Eh]
    Rotational contrib to H                  0.592 [kcal/mol]        2.479 [kJ/mol]       0.00094418 [Eh]
    Vibrational contrib to H                 2.702 [kcal/mol]       11.304 [kJ/mol]       0.00430561 [Eh]
  Correction H                               4.776 [kcal/mol]       19.981 [kJ/mol]       0.00761026 [Eh]
  Total H, Enthalpy at  298.15 [K]                                                     -109.47588010 [Eh]
  *** Absolute enthalpy, not an enthalpy of formation ***

  Gibbs free energy, G = H - T * S
    Electronic contrib to G beyond E_e      -0.411 [kcal/mol]       -1.718 [kJ/mol]      -0.00065446 [Eh]
    Translational contrib to G              -9.230 [kcal/mol]      -38.617 [kJ/mol]      -0.01470828 [Eh]
    Rotational contrib to G                 -2.434 [kcal/mol]      -10.182 [kJ/mol]      -0.00387813 [Eh]
    Vibrational contrib to G                 2.701 [kcal/mol]       11.302 [kJ/mol]       0.00430456 [Eh]
  Correction G                              -9.373 [kcal/mol]      -39.215 [kJ/mol]      -0.01493631 [Eh]
  Total G, Gibbs energy at  298.15 [K]                                                 -109.49842666 [Eh]

    Molecular point group: d2h

    Geometry (in Angstrom), charge = -1, multiplicity = 2:

       Center              X                  Y                   Z               Mass
    ------------   -----------------  -----------------  -----------------  -----------------
         N            0.000000000000     0.000000000000    -0.594257219885    14.003074004430
         N            0.000000000000     0.000000000000     0.594257219885    14.003074004430

  Charge       = -1
  Multiplicity = 2
  Basis Set: CC-PVTZ
    Blend: CC-PVTZ
  Basis Set: (CC-PVTZ AUX)
    Blend: CC-PVTZ-JKFIT

    Irrep   Nso     Nmo

    Orbital Energies [Eh]
    ---------------------

    Alpha Occupied:

       1Ag   -14.020493     1B1u  -14.019721     2Ag    -0.690400
       2B1u   -0.224656     1B2u   -0.098651     1B3u   -0.076139
       3Ag    -0.066081     1B3g    0.192741

    Alpha Virtual:

       1B2g    0.286508     3B1u    0.539311     2B2u    0.696209
       2B3u    0.698605     4Ag     0.702363     2B3g    0.799866
       5Ag     0.808841     2B2g    0.814895     4B1u    0.937719
       5B1u    1.133109     1B1g    1.183764     6Ag     1.184887
       3B2u    1.387971     3B3u    1.388538     1Au     1.562069
       6B1u    1.563640     3B3g    1.987256     3B2g    1.990105
       7Ag     2.006219     7B1u    2.109122     4B2u    3.094404
       4B3u    3.106168     8Ag     3.251188     4B3g    3.369596
       4B2g    3.378901     8B1u    3.805360     2B1g    3.818969
       9Ag     3.819981     5B3u    3.915457     5B2u    3.919178
       6B2u    4.015477     6B3u    4.015707    10Ag     4.229418
       5B3g    4.379417     5B2g    4.379655     3B1g    4.711748
      11Ag     4.714671     9B1u    4.780336     2Au     4.819921
      10B1u    4.823323     6B3g    4.915527     6B2g    4.922444
       3Au     5.112133    11B1u    5.113470     7B2u    5.244390
       7B3u    5.246842    12Ag     5.616046    12B1u    5.801561
      13Ag     6.326022     7B2g    6.414669     7B3g    6.415871
      13B1u   13.425683

    Beta Occupied:

       1Ag   -14.010021     1B1u  -14.009184     2Ag    -0.671190
       2B1u   -0.189957     1B3u   -0.067406     3Ag    -0.049400
       1B2u   -0.034763

    Beta Virtual:

       1B2g    0.298125     1B3g    0.330724     3B1u    0.547068
       2B3u    0.702713     4Ag     0.707726     2B2u    0.722511
       5Ag     0.818236     2B2g    0.821886     2B3g    0.843323
       4B1u    0.953274     5B1u    1.149607     1B1g    1.201158
       6Ag     1.201391     3B3u    1.390523     3B2u    1.415561
       1Au     1.591081     6B1u    1.591172     3B2g    1.993556
       3B3g    2.016008     7Ag     2.016945     7B1u    2.119494
       4B3u    3.114297     4B2u    3.144413     8Ag     3.259857
       4B2g    3.387794     4B3g    3.419732     8B1u    3.822195
       2B1g    3.834246     9Ag     3.834496     5B3u    3.917854
       5B2u    3.942952     6B3u    4.044373     6B2u    4.044478
      10Ag     4.241170     5B2g    4.411868     5B3g    4.411888
       3B1g    4.755640    11Ag     4.755755     9B1u    4.794789
       2Au     4.863574    10B1u    4.864075     6B2g    4.926252
       6B3g    4.953801     3Au     5.134767    11B1u    5.135627
       7B3u    5.250594     7B2u    5.280018    12Ag     5.636336
      12B1u    5.814297    13Ag     6.337525     7B2g    6.418051
       7B3g    6.445317    13B1u   13.441089

    Final Occupation by Irrep:
             Ag   B1g   B2g   B3g    Au   B1u   B2u   B3u
    DOCC [     3,    0,    0,    0,    0,    2,    1,    1 ]
    SOCC [     0,    0,    0,    1,    0,    0,    0,    0 ]
    NA   [     3,    0,    0,    1,    0,    2,    1,    1 ]
    NB   [     3,    0,    0,    0,    0,    2,    1,    1 ]

  @DF-UKS Final Energy:  -109.48349035384598

   => Energetics <=

    Nuclear Repulsion Energy =             21.8168853950474357
    One-Electron Energy =                -196.4305873072372037
    Two-Electron Energy =                  76.4386724943748845
    DFT Exchange-Correlation Energy =     -11.3084609360311106
    Empirical Dispersion Energy =           0.0000000000000000
    VV10 Nonlocal Energy =                  0.0000000000000000
    Total Energy =                       -109.4834903538459798

  UHF NO Occupations:
  HONO-2 :    2B1u 1.9996662
  HONO-1 :    1B2u 1.9990695
  HONO-0 :    1B3g 1.0000000
  LUNO+0 :    2B2u 0.0009305
  LUNO+1 :    3B1u 0.0003338
  LUNO+2 :    4 Ag 0.0001704
  LUNO+3 :    2B3u 0.0000333

Computation Completed

Properties will be evaluated at   0.000000,   0.000000,   0.000000 [a0]

Properties computed using the B3LYP density matrix

 Multipole Moments:

 ------------------------------------------------------------------------------------
     Multipole            Electronic (a.u.)      Nuclear  (a.u.)        Total (a.u.)
 ------------------------------------------------------------------------------------

 L = 1.  Multiply by 2.5417464519 to convert [e a0] to [Debye]
 Dipole X            :          0.0000000            0.0000000            0.0000000
 Dipole Y            :          0.0000000            0.0000000            0.0000000
 Dipole Z            :          0.0000000            0.0000000            0.0000000
 Magnitude           :                                                    0.0000000

 L = 2.  Multiply by 1.3450342976 to convert [e a0^2] to [Debye ang]
 Quadrupole XX       :         -9.2655536            0.0000000           -9.2655536
 Quadrupole XY       :          0.0000000            0.0000000            0.0000000
 Quadrupole XZ       :          0.0000000            0.0000000            0.0000000
 Quadrupole YY       :        -10.4105654            0.0000000          -10.4105654
 Quadrupole YZ       :          0.0000000            0.0000000            0.0000000
 Quadrupole ZZ       :        -30.5665529           17.6552838          -12.9112691
 Traceless XX        :          7.4820037           -5.8850946            1.5969091
 Traceless YY        :          6.3369919           -5.8850946            0.4518973
 Traceless ZZ        :        -13.8189956           11.7701892           -2.0488064

 ------------------------------------------------------------------------------------
  Mulliken Charges: (a.u.)
   Center  Symbol    Alpha    Beta     Spin     Total
       1     N     4.00000  3.50000  0.50000 -0.50000
       2     N     4.00000  3.50000  0.50000 -0.50000

   Total alpha =  8.00000, Total beta =  7.00000, Total charge = -1.00000

*** tstop() called on Mac.lan at Sun Aug 10 17:32:13 2025
Module time:
	user time   =      14.73 seconds =       0.25 minutes
	system time =       1.94 seconds =       0.03 minutes
	total time  =          1 seconds =       0.02 minutes
Total time:
	user time   =     152.97 seconds =       2.55 minutes
	system time =      16.19 seconds =       0.27 minutes
	total time  =         16 seconds =       0.27 minutes

    Psi4 stopped on: Sunday, 10 August 2025 05:32PM
    Psi4 wall time for execution: 0:00:16.92

*** Psi4 exiting successfully. Buy a developer a beer!
