                               Psi4 1.9.1 release

  ==> Input File <==

--------------------------------------------------------------------------
molecule {
-1 2
H           0.000000           0.000000           0.000000
H           0.000000           0.000000           1.517044
}

set {
basis              cc-pvtz
reference          uks
maxiter            500
DAMPING_PERCENTAGE 1
E_CONVERGENCE      1.0E-8
D_CONVERGENCE      1.0E-8
DIIS_MAX_VECS      400
MBIS_MAXITER       8000
}

E, wfn = optimize('b3lyp', return_wfn=True)
frequencies('b3lyp', wfn=wfn, return_wfn=True)
properties('b3lyp','MULLIKEN_CHARGES', wfn=wfn)
--------------------------------------------------------------------------

    Molecular point group: d2h
  Charge       = -1
  Multiplicity = 2
  Basis Set: CC-PVTZ
    Blend: CC-PVTZ
  Basis Set: (CC-PVTZ AUX)
    Blend: CC-PVTZ-JKFIT
  @DF-UKS Final Energy:    -1.05711302364267
    Total Energy =                         -1.0571130236426742
 Dipole X            :          0.0000000            0.0000000            0.0000000
 Dipole Y            :          0.0000000            0.0000000            0.0000000
 Dipole Z            :          0.0000000            0.0000000            0.0000000
 Magnitude           :                                                    0.0000000
    Molecular point group: d2h
  Basis Set: CC-PVTZ
    Blend: CC-PVTZ
  Basis Set: (CC-PVTZ AUX)
    Blend: CC-PVTZ-JKFIT
  Basis Set: CC-PVTZ
    Blend: CC-PVTZ
  Basis Set: (CC-PVTZ AUX)
    Blend: CC-PVTZ-JKFIT
  @DF-UKS Final Energy:    -1.05722124032935
    Total Energy =                         -1.0572212403293513
  Basis Set: CC-PVTZ
    Blend: CC-PVTZ
  Basis Set: (CC-PVTZ AUX)
    Blend: CC-PVTZ-JKFIT
  Basis Set: CC-PVTZ
    Blend: CC-PVTZ
  @DF-UKS Final Energy:    -1.05812392962913
    Total Energy =                         -1.0581239296291314
  @DF-UKS Final Energy:    -1.05812042959333
    Total Energy =                         -1.0581204295933306
  @DF-UKS Final Energy:    -1.05812846762540
    Total Energy =                         -1.0581284676253997
  @DF-UKS Final Energy:    -1.05812851001422
    Total Energy =                         -1.0581285100142224
    Final optimized geometry and variables:
                               Psi4 1.9.1 release
  @DF-UKS Final Energy:    -1.05812850927161
    Total Energy =                         -1.0581285092716124
                               Psi4 1.9.1 release
  @DF-UKS Final Energy:    -1.05812831099444
    Total Energy =                         -1.0581283109944395
                               Psi4 1.9.1 release
  @DF-UKS Final Energy:    -1.05812827522070
    Total Energy =                         -1.0581282752206964
                               Psi4 1.9.1 release
    Blend: CC-PVTZ-JKFIT
  @DF-UKS Final Energy:    -1.05812850930265
    Total Energy =                         -1.0581285093026498
  Basis Set: CC-PVTZ
    Blend: CC-PVTZ
  Basis Set: (CC-PVTZ AUX)
    Blend: CC-PVTZ-JKFIT
                               Psi4 1.9.1 release
  Basis Set: CC-PVTZ
    Blend: CC-PVTZ
  Basis Set: (CC-PVTZ AUX)
    Blend: CC-PVTZ-JKFIT
  @DF-UKS Final Energy:    -1.05812850930263
    Total Energy =                         -1.0581285093026298
    Molecular point group: c2h
  Basis Set: CC-PVTZ
    Blend: CC-PVTZ
  Basis Set: (CC-PVTZ AUX)
    Blend: CC-PVTZ-JKFIT

  -Total Gradient:
     Atom            X                  Y                   Z
    ------   -----------------  -----------------  -----------------
       1        0.000000000000     0.000000006507     0.000002031450
       2        0.000000000000    -0.000000006507    -0.000002031450

  Vibration                       6
  Freq [cm^-1]                 676.0382
  Irrep                           Ag
  Reduced mass [u]              1.0078
  Force const [mDyne/A]         0.2714

  IR activ [km/mol]             0.0000

  ==> Thermochemistry Components <==

  Entropy, S
    Electronic S                             1.377 [cal/(mol K)]        5.763 [J/(mol K)]       0.00219507 [mEh/K] (multiplicity = 2)
    Translational S                         28.080 [cal/(mol K)]      117.488 [J/(mol K)]       0.04474872 [mEh/K] (mol. weight = 2.0157 [u], P = 101325.00 [Pa])
    Rotational S                             4.836 [cal/(mol K)]       20.235 [J/(mol K)]       0.00770707 [mEh/K] (symmetry no. = 2)
    Vibrational S                            0.336 [cal/(mol K)]        1.405 [J/(mol K)]       0.00053509 [mEh/K]
  Total S                                   34.630 [cal/(mol K)]      144.891 [J/(mol K)]       0.05518595 [mEh/K]
  Correction S                               0.000 [cal/(mol K)]        0.000 [J/(mol K)]       0.00000000 [mEh/K]

  Constant volume heat capacity, Cv
    Electronic Cv                            0.000 [cal/(mol K)]        0.000 [J/(mol K)]       0.00000000 [mEh/K]
    Translational Cv                         2.981 [cal/(mol K)]       12.472 [J/(mol K)]       0.00475022 [mEh/K]
    Rotational Cv                            1.987 [cal/(mol K)]        8.314 [J/(mol K)]       0.00316681 [mEh/K]
    Vibrational Cv                           0.876 [cal/(mol K)]        3.664 [J/(mol K)]       0.00139567 [mEh/K]
  Total Cv                                   5.844 [cal/(mol K)]       24.450 [J/(mol K)]       0.00931270 [mEh/K]
  Correction Cv                              0.000 [cal/(mol K)]        0.000 [J/(mol K)]       0.00000000 [mEh/K]

  Constant pressure heat capacity, Cp
    Electronic Cp                            0.000 [cal/(mol K)]        0.000 [J/(mol K)]       0.00000000 [mEh/K]
    Translational Cp                         4.968 [cal/(mol K)]       20.786 [J/(mol K)]       0.00791703 [mEh/K]
    Rotational Cp                            1.987 [cal/(mol K)]        8.314 [J/(mol K)]       0.00316681 [mEh/K]
    Vibrational Cp                           0.876 [cal/(mol K)]        3.664 [J/(mol K)]       0.00139567 [mEh/K]
  Total Cp                                   7.831 [cal/(mol K)]       32.765 [J/(mol K)]       0.01247951 [mEh/K]
  Correction Cp                              0.000 [cal/(mol K)]        0.000 [J/(mol K)]       0.00000000 [mEh/K]

  ==> Thermochemistry Energy Analysis <==

  Raw electronic energy, E_e
  Total E_e, Electronic energy at well bottom                                            -1.05812851 [Eh]

  Zero-point vibrational energy, ZPVE = Sum_i omega_i / 2,  E_0 = E_e + ZPVE
    Vibrational ZPVE                         0.966 [kcal/mol]        4.044 [kJ/mol]       0.00154013 [Eh]         338.019 [cm^-1]
  Correction ZPVE to E_e                     0.966 [kcal/mol]        4.044 [kJ/mol]       0.00154013 [Eh]         338.019 [cm^-1]
  Total E_0, Enthalpy at 0 [K]                                                           -1.05658838 [Eh]
  *** Absolute enthalpy, not an enthalpy of formation ***

  Thermal (internal) energy, E (includes ZPVE and finite-temperature corrections)
    Electronic contrib to E beyond E_e       0.000 [kcal/mol]        0.000 [kJ/mol]       0.00000000 [Eh]
    Translational contrib to E               0.889 [kcal/mol]        3.718 [kJ/mol]       0.00141628 [Eh]
    Rotational contrib to E                  0.592 [kcal/mol]        2.479 [kJ/mol]       0.00094418 [Eh]
    Vibrational contrib to E                 1.043 [kcal/mol]        4.366 [kJ/mol]       0.00166280 [Eh]
  Correction E                               2.525 [kcal/mol]       10.563 [kJ/mol]       0.00402326 [Eh]
  Total E, Thermal (internal) energy at  298.15 [K]                                      -1.05410525 [Eh]

  Enthalpy, H_trans = E_trans + k_B * T = E_trans + P * V
    Electronic contrib to H beyond E_e       0.000 [kcal/mol]        0.000 [kJ/mol]       0.00000000 [Eh]
    Translational contrib to H               1.481 [kcal/mol]        6.197 [kJ/mol]       0.00236046 [Eh]
    Rotational contrib to H                  0.592 [kcal/mol]        2.479 [kJ/mol]       0.00094418 [Eh]
    Vibrational contrib to H                 1.043 [kcal/mol]        4.366 [kJ/mol]       0.00166280 [Eh]
  Correction H                               3.117 [kcal/mol]       13.042 [kJ/mol]       0.00496744 [Eh]
  Total H, Enthalpy at  298.15 [K]                                                       -1.05316107 [Eh]
  *** Absolute enthalpy, not an enthalpy of formation ***

  Gibbs free energy, G = H - T * S
    Electronic contrib to G beyond E_e      -0.411 [kcal/mol]       -1.718 [kJ/mol]      -0.00065446 [Eh]
    Translational contrib to G              -6.891 [kcal/mol]      -28.832 [kJ/mol]      -0.01098137 [Eh]
    Rotational contrib to G                 -0.849 [kcal/mol]       -3.554 [kJ/mol]      -0.00135368 [Eh]
    Vibrational contrib to G                 0.943 [kcal/mol]        3.947 [kJ/mol]       0.00150326 [Eh]
  Correction G                              -7.208 [kcal/mol]      -30.157 [kJ/mol]      -0.01148625 [Eh]
  Total G, Gibbs energy at  298.15 [K]                                                   -1.06961476 [Eh]

    Molecular point group: d2h

    Geometry (in Angstrom), charge = -1, multiplicity = 2:

       Center              X                  Y                   Z               Mass
    ------------   -----------------  -----------------  -----------------  -----------------
         H            0.000000000000     0.000000000000    -0.581847277368     1.007825032230
         H            0.000000000000     0.000000000000     0.581847277368     1.007825032230

  Charge       = -1
  Multiplicity = 2
  Basis Set: CC-PVTZ
    Blend: CC-PVTZ
  Basis Set: (CC-PVTZ AUX)
    Blend: CC-PVTZ-JKFIT

    Irrep   Nso     Nmo

    Orbital Energies [Eh]
    ---------------------

    Alpha Occupied:

       1Ag    -0.067898     1B1u    0.166886

    Alpha Virtual:

       2Ag     0.469815     2B1u    0.589268     1B2u    0.794716
       1B3u    0.794716     3Ag     1.043762     1B2g    1.117952
       1B3g    1.117952     3B1u    1.528603     4Ag     2.561008
       4B1u    2.691027     2B2u    3.177336     2B3u    3.177336
       5Ag     3.278876     6Ag     3.322175     1B1g    3.322175
       5B1u    3.732344     1Au     3.732344     3B2u    3.913134
       3B3u    3.913134     2B3g    3.992307     2B2g    3.992307
       6B1u    4.086361     3B2g    4.568482     3B3g    4.568482
       7Ag     4.685889     7B1u    5.877855

    Beta Occupied:

       1Ag    -0.027349

    Beta Virtual:

       1B1u    0.267757     2Ag     0.488105     2B1u    0.638760
       1B3u    0.811848     1B2u    0.811848     3Ag     1.086680
       1B2g    1.156909     1B3g    1.156909     3B1u    1.570767
       4Ag     2.602301     4B1u    2.738648     2B2u    3.196754
       2B3u    3.196754     5Ag     3.306121     6Ag     3.348918
       1B1g    3.348918     5B1u    3.765225     1Au     3.765225
       3B2u    3.958449     3B3u    3.958449     2B3g    4.037429
       2B2g    4.037429     6B1u    4.141471     3B2g    4.602871
       3B3g    4.602871     7Ag     4.731533     7B1u    5.908082

    Final Occupation by Irrep:
             Ag   B1g   B2g   B3g    Au   B1u   B2u   B3u
    DOCC [     1,    0,    0,    0,    0,    0,    0,    0 ]
    SOCC [     0,    0,    0,    0,    0,    1,    0,    0 ]
    NA   [     1,    0,    0,    0,    0,    1,    0,    0 ]
    NB   [     1,    0,    0,    0,    0,    0,    0,    0 ]

  @DF-UKS Final Energy:    -1.05812850927161

   => Energetics <=

    Nuclear Repulsion Energy =              0.4547389248458423
    One-Electron Energy =                  -2.6033700359570227
    Two-Electron Energy =                   1.7720774660119480
    DFT Exchange-Correlation Energy =      -0.6815748641723802
    Empirical Dispersion Energy =           0.0000000000000000
    VV10 Nonlocal Energy =                  0.0000000000000000
    Total Energy =                         -1.0581285092716124

  UHF NO Occupations:
  HONO-1 :    1 Ag 1.9992297
  HONO-0 :    1B1u 1.0000000
  LUNO+0 :    2 Ag 0.0007703
  LUNO+1 :    3 Ag 0.0000000
  LUNO+2 :    4 Ag 0.0000000
  LUNO+3 :    2B1u 0.0000000

Computation Completed

Properties will be evaluated at   0.000000,   0.000000,   0.000000 [a0]

Properties computed using the B3LYP density matrix

 Multipole Moments:

 ------------------------------------------------------------------------------------
     Multipole            Electronic (a.u.)      Nuclear  (a.u.)        Total (a.u.)
 ------------------------------------------------------------------------------------

 L = 1.  Multiply by 2.5417464519 to convert [e a0] to [Debye]
 Dipole X            :          0.0000000            0.0000000            0.0000000
 Dipole Y            :          0.0000000            0.0000000            0.0000000
 Dipole Z            :          0.0000000            0.0000000            0.0000000
 Magnitude           :                                                    0.0000000

 L = 2.  Multiply by 1.3450342976 to convert [e a0^2] to [Debye ang]
 Quadrupole XX       :         -4.3046676            0.0000000           -4.3046676
 Quadrupole XY       :          0.0000000            0.0000000            0.0000000
 Quadrupole XZ       :          0.0000000            0.0000000            0.0000000
 Quadrupole YY       :         -4.3046676            0.0000000           -4.3046676
 Quadrupole YZ       :          0.0000000            0.0000000            0.0000000
 Quadrupole ZZ       :        -10.3906105            2.4179412           -7.9726693
 Traceless XX        :          2.0286476           -0.8059804            1.2226672
 Traceless YY        :          2.0286476           -0.8059804            1.2226672
 Traceless ZZ        :         -4.0572953            1.6119608           -2.4453345

 ------------------------------------------------------------------------------------
  Mulliken Charges: (a.u.)
   Center  Symbol    Alpha    Beta     Spin     Total
       1     H     1.00000  0.50000  0.50000 -0.50000
       2     H     1.00000  0.50000  0.50000 -0.50000

   Total alpha =  2.00000, Total beta =  1.00000, Total charge = -1.00000

*** tstop() called on Mac.lan at Sun Aug 10 17:25:36 2025
Module time:
	user time   =       1.25 seconds =       0.02 minutes
	system time =       2.49 seconds =       0.04 minutes
	total time  =          0 seconds =       0.00 minutes
Total time:
	user time   =      20.94 seconds =       0.35 minutes
	system time =      44.18 seconds =       0.74 minutes
	total time  =          8 seconds =       0.13 minutes

    Psi4 stopped on: Sunday, 10 August 2025 05:25PM
    Psi4 wall time for execution: 0:00:09.30

*** Psi4 exiting successfully. Buy a developer a beer!
