                               Psi4 1.9.1 release

  ==> Input File <==

--------------------------------------------------------------------------
molecule {
-1 2
C           0.000000           0.000000           0.000000
C           0.000000           0.000000           1.271942
}

set {
basis              cc-pvtz
reference          uks
maxiter            500
DAMPING_PERCENTAGE 1
E_CONVERGENCE      1.0E-8
D_CONVERGENCE      1.0E-8
DIIS_MAX_VECS      400
MBIS_MAXITER       8000
}

E, wfn = optimize('b3lyp', return_wfn=True)
frequencies('b3lyp', wfn=wfn, return_wfn=True)
properties('b3lyp','MULLIKEN_CHARGES', wfn=wfn)
--------------------------------------------------------------------------

    Molecular point group: d2h
  Charge       = -1
  Multiplicity = 2
  Basis Set: CC-PVTZ
    Blend: CC-PVTZ
  Basis Set: (CC-PVTZ AUX)
    Blend: CC-PVTZ-JKFIT
  @DF-UKS Final Energy:   -76.05853302561178
    Total Energy =                        -76.0585330256118084
 Dipole X            :          0.0000000            0.0000000            0.0000000
 Dipole Y            :          0.0000000            0.0000000            0.0000000
 Dipole Z            :          0.0000000           -0.0000000           -0.0000000
 Magnitude           :                                                    0.0000000
    Molecular point group: d2h
  Basis Set: CC-PVTZ
    Blend: CC-PVTZ
  Basis Set: (CC-PVTZ AUX)
    Blend: CC-PVTZ-JKFIT
  Basis Set: CC-PVTZ
    Blend: CC-PVTZ
  Basis Set: (CC-PVTZ AUX)
    Blend: CC-PVTZ-JKFIT
  @DF-UKS Final Energy:   -76.05886328530215
    Total Energy =                        -76.0588632853021522
  Basis Set: CC-PVTZ
    Blend: CC-PVTZ
  Basis Set: (CC-PVTZ AUX)
    Blend: CC-PVTZ-JKFIT
    Final optimized geometry and variables:
                               Psi4 1.9.1 release
  Basis Set: CC-PVTZ
    Blend: CC-PVTZ
  @DF-UKS Final Energy:   -76.05886328609670
    Total Energy =                        -76.0588632860966953
                               Psi4 1.9.1 release
  @DF-UKS Final Energy:   -76.05886115622529
    Total Energy =                        -76.0588611562252908
                               Psi4 1.9.1 release
  @DF-UKS Final Energy:   -76.05886214718066
    Total Energy =                        -76.0588621471806761
                               Psi4 1.9.1 release
    Blend: CC-PVTZ-JKFIT
  @DF-UKS Final Energy:   -76.05886328589769
    Total Energy =                        -76.0588632858977007
  Basis Set: CC-PVTZ
    Blend: CC-PVTZ
  Basis Set: (CC-PVTZ AUX)
    Blend: CC-PVTZ-JKFIT
                               Psi4 1.9.1 release
  Basis Set: CC-PVTZ
    Blend: CC-PVTZ
  Basis Set: (CC-PVTZ AUX)
    Blend: CC-PVTZ-JKFIT
  @DF-UKS Final Energy:   -76.05886328590660
    Total Energy =                        -76.0588632859065967
    Molecular point group: c2h
  Basis Set: CC-PVTZ
    Blend: CC-PVTZ
  Basis Set: (CC-PVTZ AUX)
    Blend: CC-PVTZ-JKFIT

  -Total Gradient:
     Atom            X                  Y                   Z
    ------   -----------------  -----------------  -----------------
       1       -0.000000000000    -0.000000209191    -0.000243340956
       2       -0.000000000000     0.000000209191     0.000243340956

  Vibration                       6
  Freq [cm^-1]                1858.7701
  Irrep                           Ag
  Reduced mass [u]             12.0000
  Force const [mDyne/A]        24.4277

  IR activ [km/mol]             0.0000

  ==> Thermochemistry Components <==

  Entropy, S
    Electronic S                             1.377 [cal/(mol K)]        5.763 [J/(mol K)]       0.00219507 [mEh/K] (multiplicity = 2)
    Translational S                         35.464 [cal/(mol K)]      148.382 [J/(mol K)]       0.05651554 [mEh/K] (mol. weight = 24.0000 [u], P = 101325.00 [Pa])
    Rotational S                            10.064 [cal/(mol K)]       42.107 [J/(mol K)]       0.01603767 [mEh/K] (symmetry no. = 2)
    Vibrational S                            0.003 [cal/(mol K)]        0.011 [J/(mol K)]       0.00000402 [mEh/K]
  Total S                                   46.908 [cal/(mol K)]      196.262 [J/(mol K)]       0.07475229 [mEh/K]
  Correction S                               0.000 [cal/(mol K)]        0.000 [J/(mol K)]       0.00000000 [mEh/K]

  Constant volume heat capacity, Cv
    Electronic Cv                            0.000 [cal/(mol K)]        0.000 [J/(mol K)]       0.00000000 [mEh/K]
    Translational Cv                         2.981 [cal/(mol K)]       12.472 [J/(mol K)]       0.00475022 [mEh/K]
    Rotational Cv                            1.987 [cal/(mol K)]        8.314 [J/(mol K)]       0.00316681 [mEh/K]
    Vibrational Cv                           0.020 [cal/(mol K)]        0.085 [J/(mol K)]       0.00003242 [mEh/K]
  Total Cv                                   4.988 [cal/(mol K)]       20.871 [J/(mol K)]       0.00794944 [mEh/K]
  Correction Cv                              0.000 [cal/(mol K)]        0.000 [J/(mol K)]       0.00000000 [mEh/K]

  Constant pressure heat capacity, Cp
    Electronic Cp                            0.000 [cal/(mol K)]        0.000 [J/(mol K)]       0.00000000 [mEh/K]
    Translational Cp                         4.968 [cal/(mol K)]       20.786 [J/(mol K)]       0.00791703 [mEh/K]
    Rotational Cp                            1.987 [cal/(mol K)]        8.314 [J/(mol K)]       0.00316681 [mEh/K]
    Vibrational Cp                           0.020 [cal/(mol K)]        0.085 [J/(mol K)]       0.00003242 [mEh/K]
  Total Cp                                   6.976 [cal/(mol K)]       29.186 [J/(mol K)]       0.01111625 [mEh/K]
  Correction Cp                              0.000 [cal/(mol K)]        0.000 [J/(mol K)]       0.00000000 [mEh/K]

  ==> Thermochemistry Energy Analysis <==

  Raw electronic energy, E_e
  Total E_e, Electronic energy at well bottom                                           -76.05886329 [Eh]

  Zero-point vibrational energy, ZPVE = Sum_i omega_i / 2,  E_0 = E_e + ZPVE
    Vibrational ZPVE                         2.657 [kcal/mol]       11.118 [kJ/mol]       0.00423459 [Eh]         929.385 [cm^-1]
  Correction ZPVE to E_e                     2.657 [kcal/mol]       11.118 [kJ/mol]       0.00423459 [Eh]         929.385 [cm^-1]
  Total E_0, Enthalpy at 0 [K]                                                          -76.05462870 [Eh]
  *** Absolute enthalpy, not an enthalpy of formation ***

  Thermal (internal) energy, E (includes ZPVE and finite-temperature corrections)
    Electronic contrib to E beyond E_e       0.000 [kcal/mol]        0.000 [kJ/mol]       0.00000000 [Eh]
    Translational contrib to E               0.889 [kcal/mol]        3.718 [kJ/mol]       0.00141628 [Eh]
    Rotational contrib to E                  0.592 [kcal/mol]        2.479 [kJ/mol]       0.00094418 [Eh]
    Vibrational contrib to E                 2.658 [kcal/mol]       11.121 [kJ/mol]       0.00423567 [Eh]
  Correction E                               4.139 [kcal/mol]       17.318 [kJ/mol]       0.00659613 [Eh]
  Total E, Thermal (internal) energy at  298.15 [K]                                     -76.05226716 [Eh]

  Enthalpy, H_trans = E_trans + k_B * T = E_trans + P * V
    Electronic contrib to H beyond E_e       0.000 [kcal/mol]        0.000 [kJ/mol]       0.00000000 [Eh]
    Translational contrib to H               1.481 [kcal/mol]        6.197 [kJ/mol]       0.00236046 [Eh]
    Rotational contrib to H                  0.592 [kcal/mol]        2.479 [kJ/mol]       0.00094418 [Eh]
    Vibrational contrib to H                 2.658 [kcal/mol]       11.121 [kJ/mol]       0.00423567 [Eh]
  Correction H                               4.732 [kcal/mol]       19.797 [kJ/mol]       0.00754031 [Eh]
  Total H, Enthalpy at  298.15 [K]                                                      -76.05132297 [Eh]
  *** Absolute enthalpy, not an enthalpy of formation ***

  Gibbs free energy, G = H - T * S
    Electronic contrib to G beyond E_e      -0.411 [kcal/mol]       -1.718 [kJ/mol]      -0.00065446 [Eh]
    Translational contrib to G              -9.092 [kcal/mol]      -38.043 [kJ/mol]      -0.01448965 [Eh]
    Rotational contrib to G                 -2.408 [kcal/mol]      -10.075 [kJ/mol]      -0.00383745 [Eh]
    Vibrational contrib to G                 2.657 [kcal/mol]       11.118 [kJ/mol]       0.00423447 [Eh]
  Correction G                              -9.254 [kcal/mol]      -38.718 [kJ/mol]      -0.01474708 [Eh]
  Total G, Gibbs energy at  298.15 [K]                                                  -76.07361037 [Eh]

    Molecular point group: d2h

    Geometry (in Angstrom), charge = -1, multiplicity = 2:

       Center              X                  Y                   Z               Mass
    ------------   -----------------  -----------------  -----------------  -----------------
         C            0.000000000000     0.000000000000    -0.628257599802    12.000000000000
         C            0.000000000000     0.000000000000     0.628257599802    12.000000000000

  Charge       = -1
  Multiplicity = 2
  Basis Set: CC-PVTZ
    Blend: CC-PVTZ
  Basis Set: (CC-PVTZ AUX)
    Blend: CC-PVTZ-JKFIT

    Irrep   Nso     Nmo

    Orbital Energies [Eh]
    ---------------------

    Alpha Occupied:

       1Ag    -9.916342     1B1u   -9.914645     2Ag    -0.469423
       2B1u   -0.121319     3Ag    -0.037250     1B3u   -0.013840
       1B2u   -0.013840

    Alpha Virtual:

       1B3g    0.290916     1B2g    0.290916     3B1u    0.393879
       4Ag     0.501712     2B3u    0.528441     2B2u    0.528441
       5Ag     0.619945     2B3g    0.635276     2B2g    0.635276
       4B1u    0.791752     6Ag     0.862676     1B1g    0.862676
       5B1u    0.920383     3B3u    1.049170     3B2u    1.049170
       6B1u    1.153736     1Au     1.153736     3B3g    1.408105
       3B2g    1.408105     7Ag     1.417252     7B1u    1.674456
       4B2u    2.237684     4B3u    2.237684     8Ag     2.364913
       4B2g    2.506536     4B3g    2.506536     8B1u    2.636028
       2B1g    2.739641     9Ag     2.739641     5B3u    2.800385
       5B2u    2.800385     6B2u    2.819833     6B3u    2.819833
      10Ag     3.030185     5B2g    3.191851     5B3g    3.191851
       3B1g    3.257462    11Ag     3.257462     6B2g    3.296250
       6B3g    3.296250     2Au     3.343955     9B1u    3.343956
      10B1u    3.576822     7B2u    3.761421     7B3u    3.761421
      11B1u    3.812849     3Au     3.812849    12Ag     3.920262
      12B1u    4.293427     7B2g    4.901192     7B3g    4.901192
      13Ag     5.078487    13B1u   12.593873

    Beta Occupied:

       1Ag    -9.907775     1B1u   -9.906324     2Ag    -0.438108
       2B1u   -0.059304     1B3u   -0.005555     1B2u   -0.005555

    Beta Virtual:

       3Ag     0.094486     1B3g    0.304081     1B2g    0.304081
       3B1u    0.404484     4Ag     0.525289     2B3u    0.532753
       2B2u    0.532753     5Ag     0.640566     2B3g    0.642116
       2B2g    0.642116     4B1u    0.823178     1B1g    0.864454
       6Ag     0.864454     5B1u    0.942084     3B3u    1.073088
       3B2u    1.073088     1Au     1.159915     6B1u    1.159915
       3B3g    1.427244     3B2g    1.427244     7Ag     1.450598
       7B1u    1.708722     4B2u    2.244320     4B3u    2.244320
       8Ag     2.394339     4B2g    2.511868     4B3g    2.511868
       8B1u    2.672733     2B1g    2.753023     9Ag     2.753023
       5B2u    2.821617     5B3u    2.821617     6B3u    2.833722
       6B2u    2.833722    10Ag     3.090781     5B2g    3.194367
       5B3g    3.194367     3B1g    3.268417    11Ag     3.268417
       6B2g    3.342330     6B3g    3.342330     2Au     3.353404
       9B1u    3.353405    10B1u    3.614969     7B2u    3.799522
       7B3u    3.799522    11B1u    3.828683     3Au     3.828683
      12Ag     3.949041    12B1u    4.341685     7B2g    4.928328
       7B3g    4.928328    13Ag     5.104671    13B1u   12.609712

    Final Occupation by Irrep:
             Ag   B1g   B2g   B3g    Au   B1u   B2u   B3u
    DOCC [     2,    0,    0,    0,    0,    2,    1,    1 ]
    SOCC [     1,    0,    0,    0,    0,    0,    0,    0 ]
    NA   [     3,    0,    0,    0,    0,    2,    1,    1 ]
    NB   [     2,    0,    0,    0,    0,    2,    1,    1 ]

  @DF-UKS Final Energy:   -76.05886328609670

   => Energetics <=

    Nuclear Repulsion Energy =             15.1612806515405154
    One-Electron Energy =                -135.2867048291081460
    Two-Electron Energy =                  52.8682861816402578
    DFT Exchange-Correlation Energy =      -8.8017252901693261
    Empirical Dispersion Energy =           0.0000000000000000
    VV10 Nonlocal Energy =                  0.0000000000000000
    Total Energy =                        -76.0588632860966953

  UHF NO Occupations:
  HONO-2 :    2 Ag 1.9997183
  HONO-1 :    2B1u 1.9984992
  HONO-0 :    3 Ag 1.0000000
  LUNO+0 :    3B1u 0.0015008
  LUNO+1 :    4 Ag 0.0002817
  LUNO+2 :    2B3u 0.0001004
  LUNO+3 :    2B2u 0.0001004

Computation Completed

Properties will be evaluated at   0.000000,   0.000000,   0.000000 [a0]

Properties computed using the B3LYP density matrix

 Multipole Moments:

 ------------------------------------------------------------------------------------
     Multipole            Electronic (a.u.)      Nuclear  (a.u.)        Total (a.u.)
 ------------------------------------------------------------------------------------

 L = 1.  Multiply by 2.5417464519 to convert [e a0] to [Debye]
 Dipole X            :          0.0000000            0.0000000            0.0000000
 Dipole Y            :          0.0000000            0.0000000            0.0000000
 Dipole Z            :          0.0000000            0.0000000            0.0000000
 Magnitude           :                                                    0.0000000

 L = 2.  Multiply by 1.3450342976 to convert [e a0^2] to [Debye ang]
 Quadrupole XX       :        -11.4870456            0.0000000          -11.4870456
 Quadrupole XY       :          0.0000000            0.0000000            0.0000000
 Quadrupole XZ       :          0.0000000            0.0000000            0.0000000
 Quadrupole YY       :        -11.4870456            0.0000000          -11.4870456
 Quadrupole YZ       :          0.0000000            0.0000000            0.0000000
 Quadrupole ZZ       :        -30.3118225           16.9143176          -13.3975048
 Traceless XX        :          6.2749256           -5.6381059            0.6368197
 Traceless YY        :          6.2749256           -5.6381059            0.6368197
 Traceless ZZ        :        -12.5498512           11.2762118           -1.2736395

 ------------------------------------------------------------------------------------
  Mulliken Charges: (a.u.)
   Center  Symbol    Alpha    Beta     Spin     Total
       1     C     3.50000  3.00000  0.50000 -0.50000
       2     C     3.50000  3.00000  0.50000 -0.50000

   Total alpha =  7.00000, Total beta =  6.00000, Total charge = -1.00000

*** tstop() called on Mac.lan at Sun Aug 10 17:29:27 2025
Module time:
	user time   =      14.40 seconds =       0.24 minutes
	system time =       1.36 seconds =       0.02 minutes
	total time  =          2 seconds =       0.03 minutes
Total time:
	user time   =     140.99 seconds =       2.35 minutes
	system time =      16.62 seconds =       0.28 minutes
	total time  =         15 seconds =       0.25 minutes

    Psi4 stopped on: Sunday, 10 August 2025 05:29PM
    Psi4 wall time for execution: 0:00:15.80

*** Psi4 exiting successfully. Buy a developer a beer!
