                               Psi4 1.9.1 release

  ==> Input File <==

--------------------------------------------------------------------------
molecule {
-1 1
O           0.000000           0.000000           0.000000
H           0.000000           0.000000           0.993397
}

set {
basis              cc-pvtz
reference          uks
maxiter            500
DAMPING_PERCENTAGE 1
E_CONVERGENCE      1.0E-8
D_CONVERGENCE      1.0E-8
DIIS_MAX_VECS      400
MBIS_MAXITER       8000
}

E, wfn = optimize('b3lyp', return_wfn=True)
frequencies('b3lyp', wfn=wfn, return_wfn=True)
properties('b3lyp','MULLIKEN_CHARGES', wfn=wfn)
--------------------------------------------------------------------------

    Molecular point group: c2v
  Charge       = -1
  Multiplicity = 1
  Basis Set: CC-PVTZ
    Blend: CC-PVTZ
  Basis Set: (CC-PVTZ AUX)
    Blend: CC-PVTZ-JKFIT
  @DF-UKS Final Energy:   -75.79003513206926
    Total Energy =                        -75.7900351320692778
 Dipole X            :          0.0000000            0.0000000            0.0000000
 Dipole Y            :          0.0000000            0.0000000            0.0000000
 Dipole Z            :         -0.4753971            0.8757955            0.4003984
 Magnitude           :                                                    0.4003984
    Molecular point group: c2v
  Basis Set: CC-PVTZ
    Blend: CC-PVTZ
  Basis Set: (CC-PVTZ AUX)
    Blend: CC-PVTZ-JKFIT
  Basis Set: CC-PVTZ
    Blend: CC-PVTZ
  Basis Set: (CC-PVTZ AUX)
    Blend: CC-PVTZ-JKFIT
  @DF-UKS Final Energy:   -75.79040895234760
    Total Energy =                        -75.7904089523476046
  Basis Set: CC-PVTZ
    Blend: CC-PVTZ
  Basis Set: (CC-PVTZ AUX)
    Blend: CC-PVTZ-JKFIT
  Basis Set: CC-PVTZ
    Blend: CC-PVTZ
  @DF-UKS Final Energy:   -75.79041575130030
    Total Energy =                        -75.7904157513003156
    Final optimized geometry and variables:
                               Psi4 1.9.1 release
  @DF-UKS Final Energy:   -75.79041575277161
    Total Energy =                        -75.7904157527716080
                               Psi4 1.9.1 release
  @DF-UKS Final Energy:   -75.79041080668470
    Total Energy =                        -75.7904108066847044
                               Psi4 1.9.1 release
  @DF-UKS Final Energy:   -75.79040851144821
    Total Energy =                        -75.7904085114482058
                               Psi4 1.9.1 release
    Blend: CC-PVTZ-JKFIT
  @DF-UKS Final Energy:   -75.79041575263965
    Total Energy =                        -75.7904157526396460
  Basis Set: CC-PVTZ
    Blend: CC-PVTZ
  Basis Set: (CC-PVTZ AUX)
    Blend: CC-PVTZ-JKFIT
                               Psi4 1.9.1 release
  Basis Set: CC-PVTZ
    Blend: CC-PVTZ
  Basis Set: (CC-PVTZ AUX)
    Blend: CC-PVTZ-JKFIT
  @DF-UKS Final Energy:   -75.79041575263841
    Total Energy =                        -75.7904157526384097
    Molecular point group: cs
  Basis Set: CC-PVTZ
    Blend: CC-PVTZ
  Basis Set: (CC-PVTZ AUX)
    Blend: CC-PVTZ-JKFIT

  -Total Gradient:
     Atom            X                  Y                   Z
    ------   -----------------  -----------------  -----------------
       1        0.000000000000     0.000000594416     0.000212417579
       2        0.000000000000    -0.000000592648    -0.000211785470

  Vibration                       6
  Freq [cm^-1]                3589.1904
  Irrep                           A1
  Reduced mass [u]              1.0671
  Force const [mDyne/A]         8.0992

  IR activ [km/mol]            257.6016

  ==> Thermochemistry Components <==

  Entropy, S
    Electronic S                             0.000 [cal/(mol K)]        0.000 [J/(mol K)]       0.00000000 [mEh/K] (multiplicity = 1)
    Translational S                         34.437 [cal/(mol K)]      144.083 [J/(mol K)]       0.05487824 [mEh/K] (mol. weight = 17.0027 [u], P = 101325.00 [Pa])
    Rotational S                             6.750 [cal/(mol K)]       28.244 [J/(mol K)]       0.01075753 [mEh/K] (symmetry no. = 1)
    Vibrational S                            0.000 [cal/(mol K)]        0.000 [J/(mol K)]       0.00000000 [mEh/K]
  Total S                                   41.187 [cal/(mol K)]      172.327 [J/(mol K)]       0.06563576 [mEh/K]
  Correction S                               0.000 [cal/(mol K)]        0.000 [J/(mol K)]       0.00000000 [mEh/K]

  Constant volume heat capacity, Cv
    Electronic Cv                            0.000 [cal/(mol K)]        0.000 [J/(mol K)]       0.00000000 [mEh/K]
    Translational Cv                         2.981 [cal/(mol K)]       12.472 [J/(mol K)]       0.00475022 [mEh/K]
    Rotational Cv                            1.987 [cal/(mol K)]        8.314 [J/(mol K)]       0.00316681 [mEh/K]
    Vibrational Cv                           0.000 [cal/(mol K)]        0.000 [J/(mol K)]       0.00000003 [mEh/K]
  Total Cv                                   4.968 [cal/(mol K)]       20.786 [J/(mol K)]       0.00791705 [mEh/K]
  Correction Cv                              0.000 [cal/(mol K)]        0.000 [J/(mol K)]       0.00000000 [mEh/K]

  Constant pressure heat capacity, Cp
    Electronic Cp                            0.000 [cal/(mol K)]        0.000 [J/(mol K)]       0.00000000 [mEh/K]
    Translational Cp                         4.968 [cal/(mol K)]       20.786 [J/(mol K)]       0.00791703 [mEh/K]
    Rotational Cp                            1.987 [cal/(mol K)]        8.314 [J/(mol K)]       0.00316681 [mEh/K]
    Vibrational Cp                           0.000 [cal/(mol K)]        0.000 [J/(mol K)]       0.00000003 [mEh/K]
  Total Cp                                   6.955 [cal/(mol K)]       29.101 [J/(mol K)]       0.01108387 [mEh/K]
  Correction Cp                              0.000 [cal/(mol K)]        0.000 [J/(mol K)]       0.00000000 [mEh/K]

  ==> Thermochemistry Energy Analysis <==

  Raw electronic energy, E_e
  Total E_e, Electronic energy at well bottom                                           -75.79041575 [Eh]

  Zero-point vibrational energy, ZPVE = Sum_i omega_i / 2,  E_0 = E_e + ZPVE
    Vibrational ZPVE                         5.131 [kcal/mol]       21.468 [kJ/mol]       0.00817678 [Eh]        1794.595 [cm^-1]
  Correction ZPVE to E_e                     5.131 [kcal/mol]       21.468 [kJ/mol]       0.00817678 [Eh]        1794.595 [cm^-1]
  Total E_0, Enthalpy at 0 [K]                                                          -75.78223898 [Eh]
  *** Absolute enthalpy, not an enthalpy of formation ***

  Thermal (internal) energy, E (includes ZPVE and finite-temperature corrections)
    Electronic contrib to E beyond E_e       0.000 [kcal/mol]        0.000 [kJ/mol]       0.00000000 [Eh]
    Translational contrib to E               0.889 [kcal/mol]        3.718 [kJ/mol]       0.00141628 [Eh]
    Rotational contrib to E                  0.592 [kcal/mol]        2.479 [kJ/mol]       0.00094418 [Eh]
    Vibrational contrib to E                 5.131 [kcal/mol]       21.468 [kJ/mol]       0.00817678 [Eh]
  Correction E                               6.612 [kcal/mol]       27.666 [kJ/mol]       0.01053724 [Eh]
  Total E, Thermal (internal) energy at  298.15 [K]                                     -75.77987851 [Eh]

  Enthalpy, H_trans = E_trans + k_B * T = E_trans + P * V
    Electronic contrib to H beyond E_e       0.000 [kcal/mol]        0.000 [kJ/mol]       0.00000000 [Eh]
    Translational contrib to H               1.481 [kcal/mol]        6.197 [kJ/mol]       0.00236046 [Eh]
    Rotational contrib to H                  0.592 [kcal/mol]        2.479 [kJ/mol]       0.00094418 [Eh]
    Vibrational contrib to H                 5.131 [kcal/mol]       21.468 [kJ/mol]       0.00817678 [Eh]
  Correction H                               7.205 [kcal/mol]       30.144 [kJ/mol]       0.01148142 [Eh]
  Total H, Enthalpy at  298.15 [K]                                                      -75.77893433 [Eh]
  *** Absolute enthalpy, not an enthalpy of formation ***

  Gibbs free energy, G = H - T * S
    Electronic contrib to G beyond E_e       0.000 [kcal/mol]        0.000 [kJ/mol]       0.00000000 [Eh]
    Translational contrib to G              -8.786 [kcal/mol]      -36.761 [kJ/mol]      -0.01400148 [Eh]
    Rotational contrib to G                 -1.420 [kcal/mol]       -5.942 [kJ/mol]      -0.00226317 [Eh]
    Vibrational contrib to G                 5.131 [kcal/mol]       21.468 [kJ/mol]       0.00817678 [Eh]
  Correction G                              -5.075 [kcal/mol]      -21.235 [kJ/mol]      -0.00808788 [Eh]
  Total G, Gibbs energy at  298.15 [K]                                                  -75.79850363 [Eh]

    Molecular point group: c2v

    Geometry (in Angstrom), charge = -1, multiplicity = 1:

       Center              X                  Y                   Z               Mass
    ------------   -----------------  -----------------  -----------------  -----------------
         O            0.000000000000     0.000000000000    -0.057558962584    15.994914619570
         H            0.000000000000     0.000000000000     0.913502505571     1.007825032230

  Charge       = -1
  Multiplicity = 1
  Basis Set: CC-PVTZ
    Blend: CC-PVTZ
  Basis Set: (CC-PVTZ AUX)
    Blend: CC-PVTZ-JKFIT

    Irrep   Nso     Nmo

    Orbital Energies [Eh]
    ---------------------

    Alpha Occupied:

       1A1   -18.670733     2A1    -0.518424     3A1    -0.024422
       1B2     0.117839     1B1     0.117839

    Alpha Virtual:

       4A1     0.315615     5A1     0.722200     6A1     0.853856
       2B2     0.943656     2B1     0.943656     3B1     1.050915
       3B2     1.050915     7A1     1.258329     8A1     1.624685
       9A1     1.885396     1A2     1.885396     4B1     2.180130
       4B2     2.180130    10A1     2.269797    11A1     2.837371
      12A1     3.588863     2A2     3.588863     5B1     3.783731
       5B2     3.783731     6B1     4.035447     6B2     4.035447
      13A1     4.078760     7B1     4.484071     7B2     4.484071
      14A1     4.764958    15A1     5.099344     8B2     5.587231
       8B1     5.587231    16A1     5.833323     3A2     5.833323
       4A2     6.676748    17A1     6.676749     9B1     6.796113
       9B2     6.796113    18A1     6.820629    10B1     7.045960
      10B2     7.045960    19A1     7.452160    20A1    10.621317

    Beta Occupied:

       1A1   -18.670733     2A1    -0.518424     3A1    -0.024422
       1B2     0.117839     1B1     0.117839

    Beta Virtual:

       4A1     0.315615     5A1     0.722200     6A1     0.853856
       2B2     0.943656     2B1     0.943656     3B1     1.050915
       3B2     1.050915     7A1     1.258329     8A1     1.624685
       9A1     1.885396     1A2     1.885396     4B1     2.180130
       4B2     2.180130    10A1     2.269797    11A1     2.837371
      12A1     3.588863     2A2     3.588863     5B1     3.783731
       5B2     3.783731     6B1     4.035447     6B2     4.035447
      13A1     4.078760     7B1     4.484071     7B2     4.484071
      14A1     4.764958    15A1     5.099344     8B2     5.587231
       8B1     5.587231    16A1     5.833323     3A2     5.833323
       4A2     6.676748    17A1     6.676749     9B1     6.796113
       9B2     6.796113    18A1     6.820629    10B1     7.045960
      10B2     7.045960    19A1     7.452160    20A1    10.621317

    Final Occupation by Irrep:
             A1    A2    B1    B2
    DOCC [     3,    0,    1,    1 ]
    SOCC [     0,    0,    0,    0 ]
    NA   [     3,    0,    1,    1 ]
    NB   [     3,    0,    1,    1 ]

  @DF-UKS Final Energy:   -75.79041575277161

   => Energetics <=

    Nuclear Repulsion Energy =              4.3595774564162095
    One-Electron Energy =                -116.9830891965146122
    Two-Electron Energy =                  44.2969486844309301
    DFT Exchange-Correlation Energy =      -7.4638526971041301
    Empirical Dispersion Energy =           0.0000000000000000
    VV10 Nonlocal Energy =                  0.0000000000000000
    Total Energy =                        -75.7904157527716080

  UHF NO Occupations:
  HONO-2 :    1 B1 2.0000000
  HONO-1 :    2 A1 2.0000000
  HONO-0 :    3 A1 2.0000000
  LUNO+0 :    4 A1 0.0000000
  LUNO+1 :    5 A1 0.0000000
  LUNO+2 :    6 A1 0.0000000
  LUNO+3 :    2 B1 0.0000000

Computation Completed

Properties will be evaluated at   0.000000,   0.000000,   0.000000 [a0]

Properties computed using the B3LYP density matrix

 Multipole Moments:

 ------------------------------------------------------------------------------------
     Multipole            Electronic (a.u.)      Nuclear  (a.u.)        Total (a.u.)
 ------------------------------------------------------------------------------------

 L = 1.  Multiply by 2.5417464519 to convert [e a0] to [Debye]
 Dipole X            :          0.0000000            0.0000000            0.0000000
 Dipole Y            :          0.0000000            0.0000000            0.0000000
 Dipole Z            :         -0.4341192            0.8561041            0.4219850
 Magnitude           :                                                    0.4219850

 L = 2.  Multiply by 1.3450342976 to convert [e a0^2] to [Debye ang]
 Quadrupole XX       :         -6.3157637            0.0000000           -6.3157637
 Quadrupole XY       :          0.0000000            0.0000000            0.0000000
 Quadrupole XZ       :          0.0000000            0.0000000            0.0000000
 Quadrupole YY       :         -6.3157637            0.0000000           -6.3157637
 Quadrupole YZ       :          0.0000000            0.0000000            0.0000000
 Quadrupole ZZ       :         -8.2496168            3.0746550           -5.1749618
 Traceless XX        :          0.6446177           -1.0248850           -0.3802673
 Traceless YY        :          0.6446177           -1.0248850           -0.3802673
 Traceless ZZ        :         -1.2892354            2.0497700            0.7605346

 ------------------------------------------------------------------------------------
  Mulliken Charges: (a.u.)
   Center  Symbol    Alpha    Beta     Spin     Total
       1     O     4.54627  4.54627 -0.00000 -1.09254
       2     H     0.45373  0.45373  0.00000  0.09254

   Total alpha =  5.00000, Total beta =  5.00000, Total charge = -1.00000

*** tstop() called on Mac.lan at Sun Aug 10 17:36:51 2025
Module time:
	user time   =      10.70 seconds =       0.18 minutes
	system time =       1.63 seconds =       0.03 minutes
	total time  =          1 seconds =       0.02 minutes
Total time:
	user time   =     117.38 seconds =       1.96 minutes
	system time =      16.46 seconds =       0.27 minutes
	total time  =         13 seconds =       0.22 minutes

    Psi4 stopped on: Sunday, 10 August 2025 05:36PM
    Psi4 wall time for execution: 0:00:13.69

*** Psi4 exiting successfully. Buy a developer a beer!
