                               Psi4 1.9.1 release

  ==> Input File <==

--------------------------------------------------------------------------
molecule {
-1 3
O           0.000000           0.000000           0.000000
N           0.000000           0.000000           1.276495
}

set {
basis              cc-pvtz
reference          uks
maxiter            500
DAMPING_PERCENTAGE 1
E_CONVERGENCE      1.0E-8
D_CONVERGENCE      1.0E-8
DIIS_MAX_VECS      400
MBIS_MAXITER       8000
}

E, wfn = optimize('b3lyp', return_wfn=True)
frequencies('b3lyp', wfn=wfn, return_wfn=True)
properties('b3lyp','MULLIKEN_CHARGES', wfn=wfn)
--------------------------------------------------------------------------

    Molecular point group: c2v
  Charge       = -1
  Multiplicity = 3
  Basis Set: CC-PVTZ
    Blend: CC-PVTZ
  Basis Set: (CC-PVTZ AUX)
    Blend: CC-PVTZ-JKFIT
  @DF-UKS Final Energy:  -129.93105019656204
    Total Energy =                       -129.9310501965620404
 Dipole X            :          0.0000000            0.0000000            0.0000000
 Dipole Y            :          0.0000000            0.0000000            0.0000000
 Dipole Z            :         -0.2650406           -0.0048400           -0.2698807
 Magnitude           :                                                    0.2698807
    Molecular point group: c2v
  Basis Set: CC-PVTZ
    Blend: CC-PVTZ
  Basis Set: (CC-PVTZ AUX)
    Blend: CC-PVTZ-JKFIT
  Basis Set: CC-PVTZ
    Blend: CC-PVTZ
  Basis Set: (CC-PVTZ AUX)
    Blend: CC-PVTZ-JKFIT
  @DF-UKS Final Energy:  -129.93110399119161
    Total Energy =                       -129.9311039911916055
  Basis Set: CC-PVTZ
    Blend: CC-PVTZ
  Basis Set: (CC-PVTZ AUX)
    Blend: CC-PVTZ-JKFIT
  Basis Set: CC-PVTZ
    Blend: CC-PVTZ
  @DF-UKS Final Energy:  -129.93110721208330
    Total Energy =                       -129.9311072120833046
    Final optimized geometry and variables:
                               Psi4 1.9.1 release
  @DF-UKS Final Energy:  -129.93110723346823
    Total Energy =                       -129.9311072334682251
                               Psi4 1.9.1 release
  @DF-UKS Final Energy:  -129.93110633200257
    Total Energy =                       -129.9311063320025710
                               Psi4 1.9.1 release
  @DF-UKS Final Energy:  -129.93110616190515
    Total Energy =                       -129.9311061619051486
                               Psi4 1.9.1 release
    Blend: CC-PVTZ-JKFIT
  @DF-UKS Final Energy:  -129.93110720958168
    Total Energy =                       -129.9311072095816826
  Basis Set: CC-PVTZ
    Blend: CC-PVTZ
  Basis Set: (CC-PVTZ AUX)
    Blend: CC-PVTZ-JKFIT
                               Psi4 1.9.1 release
  Basis Set: CC-PVTZ
    Blend: CC-PVTZ
  Basis Set: (CC-PVTZ AUX)
    Blend: CC-PVTZ-JKFIT
  @DF-UKS Final Energy:  -129.93110720958282
    Total Energy =                       -129.9311072095828195
    Molecular point group: cs
  Basis Set: CC-PVTZ
    Blend: CC-PVTZ
  Basis Set: (CC-PVTZ AUX)
    Blend: CC-PVTZ-JKFIT

  -Total Gradient:
     Atom            X                  Y                   Z
    ------   -----------------  -----------------  -----------------
       1        0.000000000000     0.000000039880     0.000052263224
       2        0.000000000000    -0.000000035198    -0.000046127224

  Vibration                       6
  Freq [cm^-1]                1435.3587
  Irrep                           A1
  Reduced mass [u]             14.8673
  Force const [mDyne/A]        18.0469

  IR activ [km/mol]            43.5905

  ==> Thermochemistry Components <==

  Entropy, S
    Electronic S                             2.183 [cal/(mol K)]        9.134 [J/(mol K)]       0.00347910 [mEh/K] (multiplicity = 3)
    Translational S                         36.129 [cal/(mol K)]      151.164 [J/(mol K)]       0.05757520 [mEh/K] (mol. weight = 29.9980 [u], P = 101325.00 [Pa])
    Rotational S                            11.915 [cal/(mol K)]       49.852 [J/(mol K)]       0.01898775 [mEh/K] (symmetry no. = 1)
    Vibrational S                            0.015 [cal/(mol K)]        0.065 [J/(mol K)]       0.00002466 [mEh/K]
  Total S                                   50.243 [cal/(mol K)]      210.215 [J/(mol K)]       0.08006670 [mEh/K]
  Correction S                               0.000 [cal/(mol K)]        0.000 [J/(mol K)]       0.00000000 [mEh/K]

  Constant volume heat capacity, Cv
    Electronic Cv                            0.000 [cal/(mol K)]        0.000 [J/(mol K)]       0.00000000 [mEh/K]
    Translational Cv                         2.981 [cal/(mol K)]       12.472 [J/(mol K)]       0.00475022 [mEh/K]
    Rotational Cv                            1.987 [cal/(mol K)]        8.314 [J/(mol K)]       0.00316681 [mEh/K]
    Vibrational Cv                           0.094 [cal/(mol K)]        0.392 [J/(mol K)]       0.00014939 [mEh/K]
  Total Cv                                   5.062 [cal/(mol K)]       21.178 [J/(mol K)]       0.00806642 [mEh/K]
  Correction Cv                              0.000 [cal/(mol K)]        0.000 [J/(mol K)]       0.00000000 [mEh/K]

  Constant pressure heat capacity, Cp
    Electronic Cp                            0.000 [cal/(mol K)]        0.000 [J/(mol K)]       0.00000000 [mEh/K]
    Translational Cp                         4.968 [cal/(mol K)]       20.786 [J/(mol K)]       0.00791703 [mEh/K]
    Rotational Cp                            1.987 [cal/(mol K)]        8.314 [J/(mol K)]       0.00316681 [mEh/K]
    Vibrational Cp                           0.094 [cal/(mol K)]        0.392 [J/(mol K)]       0.00014939 [mEh/K]
  Total Cp                                   7.049 [cal/(mol K)]       29.493 [J/(mol K)]       0.01123323 [mEh/K]
  Correction Cp                              0.000 [cal/(mol K)]        0.000 [J/(mol K)]       0.00000000 [mEh/K]

  ==> Thermochemistry Energy Analysis <==

  Raw electronic energy, E_e
  Total E_e, Electronic energy at well bottom                                          -129.93110723 [Eh]

  Zero-point vibrational energy, ZPVE = Sum_i omega_i / 2,  E_0 = E_e + ZPVE
    Vibrational ZPVE                         2.052 [kcal/mol]        8.585 [kJ/mol]       0.00326999 [Eh]         717.679 [cm^-1]
  Correction ZPVE to E_e                     2.052 [kcal/mol]        8.585 [kJ/mol]       0.00326999 [Eh]         717.679 [cm^-1]
  Total E_0, Enthalpy at 0 [K]                                                         -129.92783725 [Eh]
  *** Absolute enthalpy, not an enthalpy of formation ***

  Thermal (internal) energy, E (includes ZPVE and finite-temperature corrections)
    Electronic contrib to E beyond E_e       0.000 [kcal/mol]        0.000 [kJ/mol]       0.00000000 [Eh]
    Translational contrib to E               0.889 [kcal/mol]        3.718 [kJ/mol]       0.00141628 [Eh]
    Rotational contrib to E                  0.592 [kcal/mol]        2.479 [kJ/mol]       0.00094418 [Eh]
    Vibrational contrib to E                 2.056 [kcal/mol]        8.602 [kJ/mol]       0.00327641 [Eh]
  Correction E                               3.537 [kcal/mol]       14.800 [kJ/mol]       0.00563687 [Eh]
  Total E, Thermal (internal) energy at  298.15 [K]                                    -129.92547036 [Eh]

  Enthalpy, H_trans = E_trans + k_B * T = E_trans + P * V
    Electronic contrib to H beyond E_e       0.000 [kcal/mol]        0.000 [kJ/mol]       0.00000000 [Eh]
    Translational contrib to H               1.481 [kcal/mol]        6.197 [kJ/mol]       0.00236046 [Eh]
    Rotational contrib to H                  0.592 [kcal/mol]        2.479 [kJ/mol]       0.00094418 [Eh]
    Vibrational contrib to H                 2.056 [kcal/mol]        8.602 [kJ/mol]       0.00327641 [Eh]
  Correction H                               4.130 [kcal/mol]       17.279 [kJ/mol]       0.00658106 [Eh]
  Total H, Enthalpy at  298.15 [K]                                                     -129.92452618 [Eh]
  *** Absolute enthalpy, not an enthalpy of formation ***

  Gibbs free energy, G = H - T * S
    Electronic contrib to G beyond E_e      -0.651 [kcal/mol]       -2.723 [kJ/mol]      -0.00103729 [Eh]
    Translational contrib to G              -9.291 [kcal/mol]      -38.872 [kJ/mol]      -0.01480558 [Eh]
    Rotational contrib to G                 -2.960 [kcal/mol]      -12.385 [kJ/mol]      -0.00471701 [Eh]
    Vibrational contrib to G                 2.051 [kcal/mol]        8.583 [kJ/mol]       0.00326906 [Eh]
  Correction G                             -10.850 [kcal/mol]      -45.397 [kJ/mol]      -0.01729083 [Eh]
  Total G, Gibbs energy at  298.15 [K]                                                 -129.94839806 [Eh]

    Molecular point group: c2v

    Geometry (in Angstrom), charge = -1, multiplicity = 3:

       Center              X                  Y                   Z               Mass
    ------------   -----------------  -----------------  -----------------  -----------------
         O            0.000000000000     0.000000000000    -0.592364998377    15.994914619570
         N            0.000000000000     0.000000000000     0.676624830352    14.003074004430

  Charge       = -1
  Multiplicity = 3
  Basis Set: CC-PVTZ
    Blend: CC-PVTZ
  Basis Set: (CC-PVTZ AUX)
    Blend: CC-PVTZ-JKFIT

    Irrep   Nso     Nmo

    Orbital Energies [Eh]
    ---------------------

    Alpha Occupied:

       1A1   -18.838861     2A1   -14.030851     3A1    -0.770566
       4A1    -0.339467     1B2    -0.118024     1B1    -0.118024
       5A1    -0.098692     2B1     0.123916     2B2     0.123916

    Alpha Virtual:

       6A1     0.497925     3B2     0.727004     3B1     0.727004
       7A1     0.762910     8A1     0.777852     9A1     0.875435
       4B1     0.899039     4B2     0.899039     1A2     1.285454
      10A1     1.285454     5B2     1.426429     5B1     1.426429
      11A1     1.498320    12A1     1.844813     2A2     1.844813
      13A1     1.903648     6B2     2.284917     6B1     2.284917
      14A1     2.477679     7B2     3.175441     7B1     3.175441
      15A1     3.429726     8B2     3.848988     8B1     3.848988
       3A2     4.133629    16A1     4.133629     9B2     4.171184
       9B1     4.171184    17A1     4.382541    10B2     4.403438
      10B1     4.403438    18A1     4.558935     4A2     4.730452
      19A1     4.730452    20A1     4.945906    11B2     5.042270
      11B1     5.042270    12B2     5.427523    12B1     5.427523
      21A1     5.732801     5A2     5.732801    22A1     6.177723
      13B1     6.484055    13B2     6.484055    23A1     6.530543
       6A2     6.530559    24A1     6.985733    14B1     7.089910
      14B2     7.089910    25A1     7.638557    26A1    11.168499

    Beta Occupied:

       1A1   -18.819586     2A1   -14.002499     3A1    -0.727577
       4A1    -0.266260     5A1    -0.061430     1B2    -0.042684
       1B1    -0.042684

    Beta Virtual:

       2B1     0.291181     2B2     0.291181     6A1     0.517261
       3B2     0.777194     3B1     0.777194     7A1     0.792014
       8A1     0.803663     9A1     0.893013     4B1     0.931872
       4B2     0.931872    10A1     1.338634     1A2     1.338634
       5B2     1.457219     5B1     1.457219    11A1     1.518751
      12A1     1.885699     2A2     1.885699    13A1     1.928977
       6B2     2.314337     6B1     2.314337    14A1     2.500148
       7B2     3.254215     7B1     3.254215    15A1     3.454452
       8B2     3.896989     8B1     3.896989     3A2     4.180283
      16A1     4.180283     9B2     4.256281     9B1     4.256281
      17A1     4.421175    10B2     4.442799    10B1     4.442799
      18A1     4.585700     4A2     4.847675    19A1     4.847675
      20A1     4.983144    11B2     5.094749    11B1     5.094749
      12B2     5.473048    12B1     5.473048    21A1     5.766617
       5A2     5.766618    22A1     6.203499    13B1     6.519006
      13B2     6.519006    23A1     6.599273     6A2     6.599289
      24A1     7.007674    14B1     7.121333    14B2     7.121333
      25A1     7.671719    26A1    11.202691

    Final Occupation by Irrep:
             A1    A2    B1    B2
    DOCC [     5,    0,    1,    1 ]
    SOCC [     0,    0,    1,    1 ]
    NA   [     5,    0,    2,    2 ]
    NB   [     5,    0,    1,    1 ]

  @DF-UKS Final Energy:  -129.93110723346823

   => Energetics <=

    Nuclear Repulsion Energy =             23.3523729872659871
    One-Electron Energy =                -229.4291743840878439
    Two-Electron Energy =                  88.8204326859768969
    DFT Exchange-Correlation Energy =     -12.6747385226232758
    Empirical Dispersion Energy =           0.0000000000000000
    VV10 Nonlocal Energy =                  0.0000000000000000
    Total Energy =                       -129.9311072334682251

  UHF NO Occupations:
  HONO-2 :    1 B2 1.9986369
  HONO-1 :    2 B2 1.0000000
  HONO-0 :    2 B1 1.0000000
  LUNO+0 :    3 B1 0.0013631
  LUNO+1 :    3 B2 0.0013631
  LUNO+2 :    6 A1 0.0011845
  LUNO+3 :    7 A1 0.0002005

Computation Completed

Properties will be evaluated at   0.000000,   0.000000,   0.000000 [a0]

Properties computed using the B3LYP density matrix

 Multipole Moments:

 ------------------------------------------------------------------------------------
     Multipole            Electronic (a.u.)      Nuclear  (a.u.)        Total (a.u.)
 ------------------------------------------------------------------------------------

 L = 1.  Multiply by 2.5417464519 to convert [e a0] to [Debye]
 Dipole X            :          0.0000000            0.0000000            0.0000000
 Dipole Y            :          0.0000000            0.0000000            0.0000000
 Dipole Z            :         -0.2732458           -0.0048116           -0.2780574
 Magnitude           :                                                    0.2780574

 L = 2.  Multiply by 1.3450342976 to convert [e a0^2] to [Debye ang]
 Quadrupole XX       :         -9.5905406            0.0000000           -9.5905406
 Quadrupole XY       :          0.0000000            0.0000000            0.0000000
 Quadrupole XZ       :          0.0000000            0.0000000            0.0000000
 Quadrupole YY       :         -9.5905406            0.0000000           -9.5905406
 Quadrupole YZ       :          0.0000000            0.0000000            0.0000000
 Quadrupole ZZ       :        -33.6998300           21.4689506          -12.2308794
 Traceless XX        :          8.0364298           -7.1563169            0.8801130
 Traceless YY        :          8.0364298           -7.1563169            0.8801130
 Traceless ZZ        :        -16.0728596           14.3126337           -1.7602259

 ------------------------------------------------------------------------------------
  Mulliken Charges: (a.u.)
   Center  Symbol    Alpha    Beta     Spin     Total
       1     O     4.53499  3.93930  0.59569 -0.47430
       2     N     4.46501  3.06070  1.40431 -0.52570

   Total alpha =  9.00000, Total beta =  7.00000, Total charge = -1.00000

*** tstop() called on Mac.lan at Sun Aug 10 17:44:24 2025
Module time:
	user time   =      14.37 seconds =       0.24 minutes
	system time =       1.99 seconds =       0.03 minutes
	total time  =          2 seconds =       0.03 minutes
Total time:
	user time   =     166.86 seconds =       2.78 minutes
	system time =      17.98 seconds =       0.30 minutes
	total time  =         18 seconds =       0.30 minutes

    Psi4 stopped on: Sunday, 10 August 2025 05:44PM
    Psi4 wall time for execution: 0:00:18.35

*** Psi4 exiting successfully. Buy a developer a beer!
