                               Psi4 1.9.1 release

  ==> Input File <==

--------------------------------------------------------------------------
molecule {
-1 2
O           0.000000           0.000000           0.000000
O           0.000000           0.000000           1.354180
}

set {
basis              cc-pvtz
reference          uks
maxiter            500
DAMPING_PERCENTAGE 1
E_CONVERGENCE      1.0E-8
D_CONVERGENCE      1.0E-8
DIIS_MAX_VECS      400
MBIS_MAXITER       8000
}

E, wfn = optimize('b3lyp', return_wfn=True)
frequencies('b3lyp', wfn=wfn, return_wfn=True)
properties('b3lyp','MULLIKEN_CHARGES', wfn=wfn)
--------------------------------------------------------------------------

    Molecular point group: d2h
  Charge       = -1
  Multiplicity = 2
  Basis Set: CC-PVTZ
    Blend: CC-PVTZ
  Basis Set: (CC-PVTZ AUX)
    Blend: CC-PVTZ-JKFIT
  @DF-UKS Final Energy:  -150.37791881984049
    Total Energy =                       -150.3779188198404881
 Dipole X            :          0.0000000            0.0000000            0.0000000
 Dipole Y            :          0.0000000            0.0000000            0.0000000
 Dipole Z            :          0.0000000            0.0000000            0.0000000
 Magnitude           :                                                    0.0000000
    Molecular point group: d2h
  Basis Set: CC-PVTZ
    Blend: CC-PVTZ
  Basis Set: (CC-PVTZ AUX)
    Blend: CC-PVTZ-JKFIT
  Basis Set: CC-PVTZ
    Blend: CC-PVTZ
  Basis Set: (CC-PVTZ AUX)
    Blend: CC-PVTZ-JKFIT
  @DF-UKS Final Energy:  -150.37792116839773
    Total Energy =                       -150.3779211683977337
  Basis Set: CC-PVTZ
    Blend: CC-PVTZ
  Basis Set: (CC-PVTZ AUX)
    Blend: CC-PVTZ-JKFIT
  Basis Set: CC-PVTZ
    Blend: CC-PVTZ
  @DF-UKS Final Energy:  -150.37792131118354
    Total Energy =                       -150.3779213111835418
    Final optimized geometry and variables:
                               Psi4 1.9.1 release
  @DF-UKS Final Energy:  -150.37792131174911
    Total Energy =                       -150.3779213117491054
                               Psi4 1.9.1 release
  @DF-UKS Final Energy:  -150.37792063510631
    Total Energy =                       -150.3779206351062783
                               Psi4 1.9.1 release
  @DF-UKS Final Energy:  -150.37792067936653
    Total Energy =                       -150.3779206793665253
                               Psi4 1.9.1 release
    Blend: CC-PVTZ-JKFIT
  @DF-UKS Final Energy:  -150.37792131173092
    Total Energy =                       -150.3779213117309155
  Basis Set: CC-PVTZ
    Blend: CC-PVTZ
  Basis Set: (CC-PVTZ AUX)
    Blend: CC-PVTZ-JKFIT
                               Psi4 1.9.1 release
  Basis Set: CC-PVTZ
    Blend: CC-PVTZ
  Basis Set: (CC-PVTZ AUX)
    Blend: CC-PVTZ-JKFIT
  @DF-UKS Final Energy:  -150.37792131173290
    Total Energy =                       -150.3779213117329050
    Molecular point group: c2h
  Basis Set: CC-PVTZ
    Blend: CC-PVTZ
  Basis Set: (CC-PVTZ AUX)
    Blend: CC-PVTZ-JKFIT

  -Total Gradient:
     Atom            X                  Y                   Z
    ------   -----------------  -----------------  -----------------
       1        0.000000000000     0.000000001069     0.000001545191
       2       -0.000000000000    -0.000000001069    -0.000001545191

  Vibration                       6
  Freq [cm^-1]                1176.3206
  Irrep                           Ag
  Reduced mass [u]             15.9949
  Force const [mDyne/A]        13.0402

  IR activ [km/mol]             0.0000

  ==> Thermochemistry Components <==

  Entropy, S
    Electronic S                             1.377 [cal/(mol K)]        5.763 [J/(mol K)]       0.00219507 [mEh/K] (multiplicity = 2)
    Translational S                         36.321 [cal/(mol K)]      151.965 [J/(mol K)]       0.05788058 [mEh/K] (mol. weight = 31.9898 [u], P = 101325.00 [Pa])
    Rotational S                            10.927 [cal/(mol K)]       45.719 [J/(mol K)]       0.01741331 [mEh/K] (symmetry no. = 2)
    Vibrational S                            0.046 [cal/(mol K)]        0.191 [J/(mol K)]       0.00007265 [mEh/K]
  Total S                                   48.671 [cal/(mol K)]      203.638 [J/(mol K)]       0.07756161 [mEh/K]
  Correction S                               0.000 [cal/(mol K)]        0.000 [J/(mol K)]       0.00000000 [mEh/K]

  Constant volume heat capacity, Cv
    Electronic Cv                            0.000 [cal/(mol K)]        0.000 [J/(mol K)]       0.00000000 [mEh/K]
    Translational Cv                         2.981 [cal/(mol K)]       12.472 [J/(mol K)]       0.00475022 [mEh/K]
    Rotational Cv                            1.987 [cal/(mol K)]        8.314 [J/(mol K)]       0.00316681 [mEh/K]
    Vibrational Cv                           0.221 [cal/(mol K)]        0.924 [J/(mol K)]       0.00035195 [mEh/K]
  Total Cv                                   5.189 [cal/(mol K)]       21.710 [J/(mol K)]       0.00826897 [mEh/K]
  Correction Cv                              0.000 [cal/(mol K)]        0.000 [J/(mol K)]       0.00000000 [mEh/K]

  Constant pressure heat capacity, Cp
    Electronic Cp                            0.000 [cal/(mol K)]        0.000 [J/(mol K)]       0.00000000 [mEh/K]
    Translational Cp                         4.968 [cal/(mol K)]       20.786 [J/(mol K)]       0.00791703 [mEh/K]
    Rotational Cp                            1.987 [cal/(mol K)]        8.314 [J/(mol K)]       0.00316681 [mEh/K]
    Vibrational Cp                           0.221 [cal/(mol K)]        0.924 [J/(mol K)]       0.00035195 [mEh/K]
  Total Cp                                   7.176 [cal/(mol K)]       30.025 [J/(mol K)]       0.01143578 [mEh/K]
  Correction Cp                              0.000 [cal/(mol K)]        0.000 [J/(mol K)]       0.00000000 [mEh/K]

  ==> Thermochemistry Energy Analysis <==

  Raw electronic energy, E_e
  Total E_e, Electronic energy at well bottom                                          -150.37792131 [Eh]

  Zero-point vibrational energy, ZPVE = Sum_i omega_i / 2,  E_0 = E_e + ZPVE
    Vibrational ZPVE                         1.682 [kcal/mol]        7.036 [kJ/mol]       0.00267986 [Eh]         588.160 [cm^-1]
  Correction ZPVE to E_e                     1.682 [kcal/mol]        7.036 [kJ/mol]       0.00267986 [Eh]         588.160 [cm^-1]
  Total E_0, Enthalpy at 0 [K]                                                         -150.37524146 [Eh]
  *** Absolute enthalpy, not an enthalpy of formation ***

  Thermal (internal) energy, E (includes ZPVE and finite-temperature corrections)
    Electronic contrib to E beyond E_e       0.000 [kcal/mol]        0.000 [kJ/mol]       0.00000000 [Eh]
    Translational contrib to E               0.889 [kcal/mol]        3.718 [kJ/mol]       0.00141628 [Eh]
    Rotational contrib to E                  0.592 [kcal/mol]        2.479 [kJ/mol]       0.00094418 [Eh]
    Vibrational contrib to E                 1.693 [kcal/mol]        7.084 [kJ/mol]       0.00269828 [Eh]
  Correction E                               3.174 [kcal/mol]       13.282 [kJ/mol]       0.00505874 [Eh]
  Total E, Thermal (internal) energy at  298.15 [K]                                    -150.37286257 [Eh]

  Enthalpy, H_trans = E_trans + k_B * T = E_trans + P * V
    Electronic contrib to H beyond E_e       0.000 [kcal/mol]        0.000 [kJ/mol]       0.00000000 [Eh]
    Translational contrib to H               1.481 [kcal/mol]        6.197 [kJ/mol]       0.00236046 [Eh]
    Rotational contrib to H                  0.592 [kcal/mol]        2.479 [kJ/mol]       0.00094418 [Eh]
    Vibrational contrib to H                 1.693 [kcal/mol]        7.084 [kJ/mol]       0.00269828 [Eh]
  Correction H                               3.767 [kcal/mol]       15.761 [kJ/mol]       0.00600292 [Eh]
  Total H, Enthalpy at  298.15 [K]                                                     -150.37191839 [Eh]
  *** Absolute enthalpy, not an enthalpy of formation ***

  Gibbs free energy, G = H - T * S
    Electronic contrib to G beyond E_e      -0.411 [kcal/mol]       -1.718 [kJ/mol]      -0.00065446 [Eh]
    Translational contrib to G              -9.348 [kcal/mol]      -39.111 [kJ/mol]      -0.01489663 [Eh]
    Rotational contrib to G                 -2.665 [kcal/mol]      -11.152 [kJ/mol]      -0.00424759 [Eh]
    Vibrational contrib to G                 1.680 [kcal/mol]        7.027 [kJ/mol]       0.00267662 [Eh]
  Correction G                             -10.744 [kcal/mol]      -44.954 [kJ/mol]      -0.01712207 [Eh]
  Total G, Gibbs energy at  298.15 [K]                                                 -150.39504338 [Eh]

    Molecular point group: d2h

    Geometry (in Angstrom), charge = -1, multiplicity = 2:

       Center              X                  Y                   Z               Mass
    ------------   -----------------  -----------------  -----------------  -----------------
         O            0.000000000000     0.000000000000    -0.676183885782    15.994914619570
         O            0.000000000000     0.000000000000     0.676183885782    15.994914619570

  Charge       = -1
  Multiplicity = 2
  Basis Set: CC-PVTZ
    Blend: CC-PVTZ
  Basis Set: (CC-PVTZ AUX)
    Blend: CC-PVTZ-JKFIT

    Irrep   Nso     Nmo

    Orbital Energies [Eh]
    ---------------------

    Alpha Occupied:

       1Ag   -18.834457     1B1u  -18.834372     2Ag    -0.774694
       2B1u   -0.451339     1B3u   -0.118167     3Ag    -0.117449
       1B2u   -0.079519     1B2g    0.063436     1B3g    0.105833

    Alpha Virtual:

       3B1u    0.432661     4B1u    0.795900     2B3u    0.837512
       2B2u    0.860265     4Ag     0.883426     2B2g    0.925313
       2B3g    0.945925     5Ag     1.039771     5B1u    1.537431
       3B3u    1.604879     3B2u    1.629219     1B1g    1.636945
       6Ag     1.637062     1Au     1.941859     6B1u    1.942125
       7Ag     2.290119     3B2g    2.424467     3B3g    2.450401
       7B1u    2.540173     4B3u    3.782022     4B2u    3.816691
       8Ag     3.867583     4B2g    4.011990     4B3g    4.049389
       8B1u    4.893505     5B3u    5.010312     5B2u    5.039306
       9Ag     5.095992     2B1g    5.100517    10Ag     5.154307
       6B3u    5.382834     6B2u    5.382876     5B2g    5.499268
       5B3g    5.499283     2Au     5.825062     9B1u    5.825276
       6B2g    6.382344     6B3g    6.414269    11Ag     6.444340
       3B1g    6.444384    10B1u    6.614760     3Au     6.620069
       7B3u    6.621220     7B2u    6.655682    11B1u    6.657785
      12B1u    6.878634    12Ag     7.068808     7B2g    7.279986
       7B3g    7.310865    13Ag     7.922749    13B1u   10.123617

    Beta Occupied:

       1Ag   -18.820221     1B1u  -18.820090     2Ag    -0.744211
       2B1u   -0.408279     3Ag    -0.101377     1B2u   -0.067818
       1B3u   -0.032756     1B3g    0.120606

    Beta Virtual:

       1B2g    0.229292     3B1u    0.450599     4B1u    0.804816
       2B2u    0.865776     2B3u    0.874593     4Ag     0.890179
       2B3g    0.951750     2B2g    0.965048     5Ag     1.050054
       5B1u    1.554896     3B3u    1.629635     3B2u    1.630686
       1B1g    1.658542     6Ag     1.659763     1Au     1.970735
       6B1u    1.972238     7Ag     2.305538     3B3g    2.454085
       3B2g    2.455915     7B1u    2.549747     4B2u    3.827052
       4B3u    3.843053     8Ag     3.877254     4B3g    4.060971
       4B2g    4.075548     8B1u    4.910503     5B3u    5.040843
       5B2u    5.043625     2B1g    5.121915     9Ag     5.123152
      10Ag     5.166812     6B2u    5.417643     6B3u    5.417933
       5B3g    5.535240     5B2g    5.535534     2Au     5.850277
       9B1u    5.851750     6B3g    6.420556     6B2g    6.427240
       3B1g    6.495296    11Ag     6.498867     7B2u    6.662552
      10B1u    6.667153     3Au     6.669371     7B3u    6.672945
      11B1u    6.675321    12B1u    6.897312    12Ag     7.082131
       7B3g    7.315165     7B2g    7.318227    13Ag     7.950586
      13B1u   10.143127

    Final Occupation by Irrep:
             Ag   B1g   B2g   B3g    Au   B1u   B2u   B3u
    DOCC [     3,    0,    0,    1,    0,    2,    1,    1 ]
    SOCC [     0,    0,    1,    0,    0,    0,    0,    0 ]
    NA   [     3,    0,    1,    1,    0,    2,    1,    1 ]
    NB   [     3,    0,    0,    1,    0,    2,    1,    1 ]

  @DF-UKS Final Energy:  -150.37792131174911

   => Energetics <=

    Nuclear Repulsion Energy =             25.0429965834909432
    One-Electron Energy =                -262.8530720071543669
    Two-Electron Energy =                 101.4555991652457863
    DFT Exchange-Correlation Energy =     -14.0234450533314572
    Empirical Dispersion Energy =           0.0000000000000000
    VV10 Nonlocal Energy =                  0.0000000000000000
    Total Energy =                       -150.3779213117491054

  UHF NO Occupations:
  HONO-2 :    2B1u 1.9997168
  HONO-1 :    1B3u 1.9984606
  HONO-0 :    1B2g 1.0000000
  LUNO+0 :    2B3u 0.0015394
  LUNO+1 :    3B1u 0.0002832
  LUNO+2 :    4 Ag 0.0001477
  LUNO+3 :    2B3g 0.0000492

Computation Completed

Properties will be evaluated at   0.000000,   0.000000,   0.000000 [a0]

Properties computed using the B3LYP density matrix

 Multipole Moments:

 ------------------------------------------------------------------------------------
     Multipole            Electronic (a.u.)      Nuclear  (a.u.)        Total (a.u.)
 ------------------------------------------------------------------------------------

 L = 1.  Multiply by 2.5417464519 to convert [e a0] to [Debye]
 Dipole X            :          0.0000000            0.0000000            0.0000000
 Dipole Y            :          0.0000000            0.0000000            0.0000000
 Dipole Z            :          0.0000000            0.0000000            0.0000000
 Magnitude           :                                                    0.0000000

 L = 2.  Multiply by 1.3450342976 to convert [e a0^2] to [Debye ang]
 Quadrupole XX       :         -8.8436837            0.0000000           -8.8436837
 Quadrupole XY       :          0.0000000            0.0000000            0.0000000
 Quadrupole XZ       :          0.0000000            0.0000000            0.0000000
 Quadrupole YY       :         -9.6482815            0.0000000           -9.6482815
 Quadrupole YZ       :          0.0000000            0.0000000            0.0000000
 Quadrupole ZZ       :        -37.4431784           26.1244617          -11.3187167
 Traceless XX        :          9.8013642           -8.7081539            1.0932103
 Traceless YY        :          8.9967663           -8.7081539            0.2886124
 Traceless ZZ        :        -18.7981306           17.4163078           -1.3818227

 ------------------------------------------------------------------------------------
  Mulliken Charges: (a.u.)
   Center  Symbol    Alpha    Beta     Spin     Total
       1     O     4.50000  4.00000  0.50000 -0.50000
       2     O     4.50000  4.00000  0.50000 -0.50000

   Total alpha =  9.00000, Total beta =  8.00000, Total charge = -1.00000

*** tstop() called on Mac.lan at Sun Aug 10 17:26:58 2025
Module time:
	user time   =      14.92 seconds =       0.25 minutes
	system time =       1.48 seconds =       0.02 minutes
	total time  =          2 seconds =       0.03 minutes
Total time:
	user time   =     149.53 seconds =       2.49 minutes
	system time =      17.04 seconds =       0.28 minutes
	total time  =         16 seconds =       0.27 minutes

    Psi4 stopped on: Sunday, 10 August 2025 05:26PM
    Psi4 wall time for execution: 0:00:16.65

*** Psi4 exiting successfully. Buy a developer a beer!
