                               Psi4 1.9.1 release

  ==> Input File <==

--------------------------------------------------------------------------
molecule {
0 2
N           0.000000           0.000000           0.000000
C           0.000000           0.000000           1.175160
}

set {
basis              cc-pvtz
reference          uks
maxiter            500
DAMPING_PERCENTAGE 1
E_CONVERGENCE      1.0E-8
D_CONVERGENCE      1.0E-8
DIIS_MAX_VECS      400
MBIS_MAXITER       8000
guess              SAP
}

E, wfn = optimize('b3lyp', return_wfn=True)
frequencies('b3lyp', wfn=wfn, return_wfn=True)
properties('b3lyp','MULLIKEN_CHARGES', wfn=wfn)
--------------------------------------------------------------------------

    Molecular point group: c2v
  Charge       = 0
  Multiplicity = 2
  Basis Set: CC-PVTZ
    Blend: CC-PVTZ
  Basis Set: (CC-PVTZ AUX)
    Blend: CC-PVTZ-JKFIT
  @DF-UKS Final Energy:   -92.74547621285483
    Total Energy =                        -92.7454762128548111
 Dipole X            :          0.0000000            0.0000000            0.0000000
 Dipole Y            :          0.0000000            0.0000000            0.0000000
 Dipole Z            :          0.5103767            0.0015752            0.5119518
 Magnitude           :                                                    0.5119518
    Molecular point group: c2v
  Basis Set: CC-PVTZ
    Blend: CC-PVTZ
  Basis Set: (CC-PVTZ AUX)
    Blend: CC-PVTZ-JKFIT
  Basis Set: CC-PVTZ
    Blend: CC-PVTZ
  Basis Set: (CC-PVTZ AUX)
    Blend: CC-PVTZ-JKFIT
  @DF-UKS Final Energy:   -92.74577391135935
    Total Energy =                        -92.7457739113593504
  Basis Set: CC-PVTZ
    Blend: CC-PVTZ
  Basis Set: (CC-PVTZ AUX)
    Blend: CC-PVTZ-JKFIT
  Basis Set: CC-PVTZ
    Blend: CC-PVTZ
  @DF-UKS Final Energy:   -92.74577593891038
    Total Energy =                        -92.7457759389103842
    Final optimized geometry and variables:
                               Psi4 1.9.1 release
  @DF-UKS Final Energy:   -92.74577593828242
    Total Energy =                        -92.7457759382824207
                               Psi4 1.9.1 release
  @DF-UKS Final Energy:   -92.74577392602355
    Total Energy =                        -92.7457739260235456
                               Psi4 1.9.1 release
  @DF-UKS Final Energy:   -92.74577356178854
    Total Energy =                        -92.7457735617885390
                               Psi4 1.9.1 release
    Blend: CC-PVTZ-JKFIT
  @DF-UKS Final Energy:   -92.74577593776426
    Total Energy =                        -92.7457759377642645
  Basis Set: CC-PVTZ
    Blend: CC-PVTZ
  Basis Set: (CC-PVTZ AUX)
    Blend: CC-PVTZ-JKFIT
                               Psi4 1.9.1 release
  Basis Set: CC-PVTZ
    Blend: CC-PVTZ
  Basis Set: (CC-PVTZ AUX)
    Blend: CC-PVTZ-JKFIT
  @DF-UKS Final Energy:   -92.74577593776407
    Total Energy =                        -92.7457759377640656
    Molecular point group: cs
  Basis Set: CC-PVTZ
    Blend: CC-PVTZ
  Basis Set: (CC-PVTZ AUX)
    Blend: CC-PVTZ-JKFIT

  -Total Gradient:
     Atom            X                  Y                   Z
    ------   -----------------  -----------------  -----------------
       1        0.000000000000     0.000000081358     0.000090889767
       2        0.000000000000    -0.000000079947    -0.000089314112

  Vibration                       6
  Freq [cm^-1]                2153.7643
  Irrep                           A1
  Reduced mass [u]             12.8481
  Force const [mDyne/A]        35.1145

  IR activ [km/mol]            19.3790

  ==> Thermochemistry Components <==

  Entropy, S
    Electronic S                             1.377 [cal/(mol K)]        5.763 [J/(mol K)]       0.00219507 [mEh/K] (multiplicity = 2)
    Translational S                         35.703 [cal/(mol K)]      149.381 [J/(mol K)]       0.05689632 [mEh/K] (mol. weight = 26.0031 [u], P = 101325.00 [Pa])
    Rotational S                            11.281 [cal/(mol K)]       47.198 [J/(mol K)]       0.01797672 [mEh/K] (symmetry no. = 1)
    Vibrational S                            0.001 [cal/(mol K)]        0.003 [J/(mol K)]       0.00000111 [mEh/K]
  Total S                                   48.362 [cal/(mol K)]      202.345 [J/(mol K)]       0.07706921 [mEh/K]
  Correction S                               0.000 [cal/(mol K)]        0.000 [J/(mol K)]       0.00000000 [mEh/K]

  Constant volume heat capacity, Cv
    Electronic Cv                            0.000 [cal/(mol K)]        0.000 [J/(mol K)]       0.00000000 [mEh/K]
    Translational Cv                         2.981 [cal/(mol K)]       12.472 [J/(mol K)]       0.00475022 [mEh/K]
    Rotational Cv                            1.987 [cal/(mol K)]        8.314 [J/(mol K)]       0.00316681 [mEh/K]
    Vibrational Cv                           0.007 [cal/(mol K)]        0.028 [J/(mol K)]       0.00001048 [mEh/K]
  Total Cv                                   4.975 [cal/(mol K)]       20.814 [J/(mol K)]       0.00792751 [mEh/K]
  Correction Cv                              0.000 [cal/(mol K)]        0.000 [J/(mol K)]       0.00000000 [mEh/K]

  Constant pressure heat capacity, Cp
    Electronic Cp                            0.000 [cal/(mol K)]        0.000 [J/(mol K)]       0.00000000 [mEh/K]
    Translational Cp                         4.968 [cal/(mol K)]       20.786 [J/(mol K)]       0.00791703 [mEh/K]
    Rotational Cp                            1.987 [cal/(mol K)]        8.314 [J/(mol K)]       0.00316681 [mEh/K]
    Vibrational Cp                           0.007 [cal/(mol K)]        0.028 [J/(mol K)]       0.00001048 [mEh/K]
  Total Cp                                   6.962 [cal/(mol K)]       29.128 [J/(mol K)]       0.01109432 [mEh/K]
  Correction Cp                              0.000 [cal/(mol K)]        0.000 [J/(mol K)]       0.00000000 [mEh/K]

  ==> Thermochemistry Energy Analysis <==

  Raw electronic energy, E_e
  Total E_e, Electronic energy at well bottom                                           -92.74577594 [Eh]

  Zero-point vibrational energy, ZPVE = Sum_i omega_i / 2,  E_0 = E_e + ZPVE
    Vibrational ZPVE                         3.079 [kcal/mol]       12.882 [kJ/mol]       0.00490664 [Eh]        1076.882 [cm^-1]
  Correction ZPVE to E_e                     3.079 [kcal/mol]       12.882 [kJ/mol]       0.00490664 [Eh]        1076.882 [cm^-1]
  Total E_0, Enthalpy at 0 [K]                                                          -92.74086930 [Eh]
  *** Absolute enthalpy, not an enthalpy of formation ***

  Thermal (internal) energy, E (includes ZPVE and finite-temperature corrections)
    Electronic contrib to E beyond E_e       0.000 [kcal/mol]        0.000 [kJ/mol]       0.00000000 [Eh]
    Translational contrib to E               0.889 [kcal/mol]        3.718 [kJ/mol]       0.00141628 [Eh]
    Rotational contrib to E                  0.592 [kcal/mol]        2.479 [kJ/mol]       0.00094418 [Eh]
    Vibrational contrib to E                 3.079 [kcal/mol]       12.883 [kJ/mol]       0.00490694 [Eh]
  Correction E                               4.560 [kcal/mol]       19.081 [kJ/mol]       0.00726740 [Eh]
  Total E, Thermal (internal) energy at  298.15 [K]                                     -92.73850854 [Eh]

  Enthalpy, H_trans = E_trans + k_B * T = E_trans + P * V
    Electronic contrib to H beyond E_e       0.000 [kcal/mol]        0.000 [kJ/mol]       0.00000000 [Eh]
    Translational contrib to H               1.481 [kcal/mol]        6.197 [kJ/mol]       0.00236046 [Eh]
    Rotational contrib to H                  0.592 [kcal/mol]        2.479 [kJ/mol]       0.00094418 [Eh]
    Vibrational contrib to H                 3.079 [kcal/mol]       12.883 [kJ/mol]       0.00490694 [Eh]
  Correction H                               5.153 [kcal/mol]       21.560 [kJ/mol]       0.00821158 [Eh]
  Total H, Enthalpy at  298.15 [K]                                                      -92.73756436 [Eh]
  *** Absolute enthalpy, not an enthalpy of formation ***

  Gibbs free energy, G = H - T * S
    Electronic contrib to G beyond E_e      -0.411 [kcal/mol]       -1.718 [kJ/mol]      -0.00065446 [Eh]
    Translational contrib to G              -9.164 [kcal/mol]      -38.341 [kJ/mol]      -0.01460318 [Eh]
    Rotational contrib to G                 -2.771 [kcal/mol]      -11.593 [kJ/mol]      -0.00441557 [Eh]
    Vibrational contrib to G                 3.079 [kcal/mol]       12.882 [kJ/mol]       0.00490661 [Eh]
  Correction G                              -9.266 [kcal/mol]      -38.770 [kJ/mol]      -0.01476660 [Eh]
  Total G, Gibbs energy at  298.15 [K]                                                  -92.76054254 [Eh]

    Molecular point group: c2v

    Geometry (in Angstrom), charge = 0, multiplicity = 2:

       Center              X                  Y                   Z               Mass
    ------------   -----------------  -----------------  -----------------  -----------------
         N            0.000000000000     0.000000000000    -0.536605539466    14.003074004430
         C            0.000000000000     0.000000000000     0.626177256694    12.000000000000

  Charge       = 0
  Multiplicity = 2
  Basis Set: CC-PVTZ
    Blend: CC-PVTZ
  Basis Set: (CC-PVTZ AUX)
    Blend: CC-PVTZ-JKFIT

    Irrep   Nso     Nmo     Nalpha   Nbeta   Ndocc  Nsocc

    Orbital Energies [Eh]
    ---------------------

    Alpha Occupied:

       1A1   -14.388269     2A1   -10.295684     3A1    -0.966632
       4A1    -0.504338     5A1    -0.412459     1B1    -0.395585
       1B2    -0.395585

    Alpha Virtual:

       2B1    -0.017077     2B2    -0.017077     6A1     0.165949
       7A1     0.267027     3B1     0.281138     3B2     0.281138
       8A1     0.437481     4B1     0.514485     4B2     0.514485
       9A1     0.599468    10A1     0.618939     1A2     0.618939
       5B1     0.821538     5B2     0.821538    11A1     0.881685
       2A2     1.158954    12A1     1.158954    13A1     1.273935
       6B2     1.506971     6B1     1.506971    14A1     1.746497
       7B1     1.958865     7B2     1.958865    15A1     2.189631
       8B2     2.615718     8B1     2.615718    16A1     2.705913
       3A2     2.705913    17A1     2.734387     9B2     2.784078
       9B1     2.784078    10B2     2.908964    10B1     2.908964
      18A1     2.909931     4A2     2.909932    19A1     3.097106
      11B2     3.399173    11B1     3.399173    20A1     3.886531
      12B2     3.924408    12B1     3.924408     5A2     4.392893
      21A1     4.392895     6A2     4.539983    22A1     4.539987
      13B2     4.793510    13B1     4.793510    23A1     4.956774
      24A1     5.321809    14B2     5.530032    14B1     5.530032
      25A1     5.945910    26A1    12.539804

    Beta Occupied:

       1A1   -14.383652     2A1   -10.279838     3A1    -0.943923
       4A1    -0.437944     1B1    -0.386986     1B2    -0.386986

    Beta Virtual:

       5A1    -0.253389     2B1     0.004779     2B2     0.004779
       6A1     0.173104     3B1     0.290732     3B2     0.290732
       7A1     0.306877     8A1     0.448653     4B1     0.516169
       4B2     0.516169     9A1     0.629299     1A2     0.629299
      10A1     0.645710     5B1     0.851594     5B2     0.851594
      11A1     0.893286     2A2     1.161133    12A1     1.161133
      13A1     1.311385     6B2     1.523645     6B1     1.523645
      14A1     1.773171     7B1     1.973733     7B2     1.973733
      15A1     2.240013     8B2     2.632303     8B1     2.632303
       3A2     2.721880    16A1     2.721880    17A1     2.775627
       9B2     2.820136     9B1     2.820136    10B2     2.945954
      10B1     2.945954    18A1     2.951434     4A2     2.951434
      19A1     3.176225    11B2     3.435352    11B1     3.435352
      12B2     3.919609    12B1     3.919609    20A1     3.921037
       5A2     4.392645    21A1     4.392647     6A2     4.546830
      22A1     4.546834    13B2     4.816653    13B1     4.816653
      23A1     4.994291    24A1     5.350980    14B2     5.555851
      14B1     5.555851    25A1     5.960456    26A1    12.560190

    Final Occupation by Irrep:
             A1    A2    B1    B2
    DOCC [     4,    0,    1,    1 ]
    SOCC [     1,    0,    0,    0 ]
    NA   [     5,    0,    1,    1 ]
    NB   [     4,    0,    1,    1 ]

  @DF-UKS Final Energy:   -92.74577593828242

   => Energetics <=

    Nuclear Repulsion Energy =             19.1140107348760608
    One-Electron Energy =                -162.4584925079034292
    Two-Electron Energy =                  60.4349545186060055
    DFT Exchange-Correlation Energy =      -9.8362486838610472
    Empirical Dispersion Energy =           0.0000000000000000
    VV10 Nonlocal Energy =                  0.0000000000000000
    Total Energy =                        -92.7457759382824207

  UHF NO Occupations:
  HONO-2 :    1 B2 1.9986174
  HONO-1 :    1 B1 1.9986174
  HONO-0 :    5 A1 1.0000000
  LUNO+0 :    2 B2 0.0013826
  LUNO+1 :    2 B1 0.0013826
  LUNO+2 :    6 A1 0.0011251
  LUNO+3 :    7 A1 0.0000964

Computation Completed

Properties will be evaluated at   0.000000,   0.000000,   0.000000 [a0]

Properties computed using the B3LYP density matrix

 Multipole Moments:

 ------------------------------------------------------------------------------------
     Multipole            Electronic (a.u.)      Nuclear  (a.u.)        Total (a.u.)
 ------------------------------------------------------------------------------------

 L = 1.  Multiply by 2.5417464519 to convert [e a0] to [Debye]
 Dipole X            :          0.0000000            0.0000000            0.0000000
 Dipole Y            :          0.0000000            0.0000000            0.0000000
 Dipole Z            :          0.5186509            0.0015586            0.5202094
 Magnitude           :                                                    0.5202094

 L = 2.  Multiply by 1.3450342976 to convert [e a0^2] to [Debye ang]
 Quadrupole XX       :         -8.1343456            0.0000000           -8.1343456
 Quadrupole XY       :          0.0000000            0.0000000            0.0000000
 Quadrupole XZ       :          0.0000000            0.0000000            0.0000000
 Quadrupole YY       :         -8.1343456            0.0000000           -8.1343456
 Quadrupole YZ       :          0.0000000            0.0000000            0.0000000
 Quadrupole ZZ       :        -23.3530614           15.5991478           -7.7539136
 Traceless XX        :          5.0729053           -5.1997159           -0.1268107
 Traceless YY        :          5.0729053           -5.1997159           -0.1268107
 Traceless ZZ        :        -10.1458106           10.3994319            0.2536213

 ------------------------------------------------------------------------------------
  Mulliken Charges: (a.u.)
   Center  Symbol    Alpha    Beta     Spin     Total
       1     N     3.57270  3.43840  0.13430 -0.01110
       2     C     3.42730  2.56160  0.86570  0.01110

   Total alpha =  7.00000, Total beta =  6.00000, Total charge =  0.00000

*** tstop() called on Mac.lan at Sun Aug 10 17:12:28 2025
Module time:
	user time   =      17.44 seconds =       0.29 minutes
	system time =       1.30 seconds =       0.02 minutes
	total time  =          1 seconds =       0.02 minutes
Total time:
	user time   =     191.69 seconds =       3.19 minutes
	system time =      16.29 seconds =       0.27 minutes
	total time  =         19 seconds =       0.32 minutes

    Psi4 stopped on: Sunday, 10 August 2025 05:12PM
    Psi4 wall time for execution: 0:00:20.59

*** Psi4 exiting successfully. Buy a developer a beer!
