                               Psi4 1.9.1 release

  ==> Input File <==

--------------------------------------------------------------------------
molecule {
0 2
C           0.000000           0.000000           0.000000
H           0.000000           0.000000           1.141955
}

set {
basis              cc-pvtz
reference          uks
maxiter            500
DAMPING_PERCENTAGE 1
E_CONVERGENCE      1.0E-8
D_CONVERGENCE      1.0E-8
DIIS_MAX_VECS      400
MBIS_MAXITER       8000
guess              SAP
}

E, wfn = optimize('b3lyp', return_wfn=True)
frequencies('b3lyp', wfn=wfn, return_wfn=True)
properties('b3lyp','MULLIKEN_CHARGES', wfn=wfn)
--------------------------------------------------------------------------

    Molecular point group: c2v
  Charge       = 0
  Multiplicity = 2
  Basis Set: CC-PVTZ
    Blend: CC-PVTZ
  Basis Set: (CC-PVTZ AUX)
    Blend: CC-PVTZ-JKFIT
  @DF-UKS Final Energy:   -38.49610319366356
    Total Energy =                        -38.4961031936635649
 Dipole X            :          0.0000000            0.0000000            0.0000000
 Dipole Y            :          0.0000000            0.0000000            0.0000000
 Dipole Z            :         -0.4209785            0.9876037            0.5666251
 Magnitude           :                                                    0.5666251
    Molecular point group: c2v
  Basis Set: CC-PVTZ
    Blend: CC-PVTZ
  Basis Set: (CC-PVTZ AUX)
    Blend: CC-PVTZ-JKFIT
  Basis Set: CC-PVTZ
    Blend: CC-PVTZ
  Basis Set: (CC-PVTZ AUX)
    Blend: CC-PVTZ-JKFIT
  @DF-UKS Final Energy:   -38.49626050404319
    Total Energy =                        -38.4962605040431924
  Basis Set: CC-PVTZ
    Blend: CC-PVTZ
  Basis Set: (CC-PVTZ AUX)
    Blend: CC-PVTZ-JKFIT
  Basis Set: CC-PVTZ
    Blend: CC-PVTZ
  @DF-UKS Final Energy:   -38.49626212725973
    Total Energy =                        -38.4962621272597261
    Final optimized geometry and variables:
                               Psi4 1.9.1 release
  @DF-UKS Final Energy:   -38.49626212393325
    Total Energy =                        -38.4962621239332492
                               Psi4 1.9.1 release
  @DF-UKS Final Energy:   -38.49625865027955
    Total Energy =                        -38.4962586502795503
                               Psi4 1.9.1 release
  @DF-UKS Final Energy:   -38.49625807409799
    Total Energy =                        -38.4962580740979874
                               Psi4 1.9.1 release
    Blend: CC-PVTZ-JKFIT
  @DF-UKS Final Energy:   -38.49626212430289
    Total Energy =                        -38.4962621243028948
  Basis Set: CC-PVTZ
    Blend: CC-PVTZ
  Basis Set: (CC-PVTZ AUX)
    Blend: CC-PVTZ-JKFIT
                               Psi4 1.9.1 release
  Basis Set: CC-PVTZ
    Blend: CC-PVTZ
  Basis Set: (CC-PVTZ AUX)
    Blend: CC-PVTZ-JKFIT
  @DF-UKS Final Energy:   -38.49626212430280
    Total Energy =                        -38.4962621243027954
    Molecular point group: cs
  Basis Set: CC-PVTZ
    Blend: CC-PVTZ
  Basis Set: (CC-PVTZ AUX)
    Blend: CC-PVTZ-JKFIT

  -Total Gradient:
     Atom            X                  Y                   Z
    ------   -----------------  -----------------  -----------------
       1        0.000000000000     0.000000122410     0.000050127674
       2        0.000000000000    -0.000000121724    -0.000049846695

  Vibration                       6
  Freq [cm^-1]                2819.9935
  Irrep                           A1
  Reduced mass [u]              1.0848
  Force const [mDyne/A]         5.0828

  IR activ [km/mol]            159.4900

  ==> Thermochemistry Components <==

  Entropy, S
    Electronic S                             1.377 [cal/(mol K)]        5.763 [J/(mol K)]       0.00219507 [mEh/K] (multiplicity = 2)
    Translational S                         33.638 [cal/(mol K)]      140.743 [J/(mol K)]       0.05360602 [mEh/K] (mol. weight = 13.0078 [u], P = 101325.00 [Pa])
    Rotational S                             7.292 [cal/(mol K)]       30.509 [J/(mol K)]       0.01162031 [mEh/K] (symmetry no. = 1)
    Vibrational S                            0.000 [cal/(mol K)]        0.000 [J/(mol K)]       0.00000006 [mEh/K]
  Total S                                   42.308 [cal/(mol K)]      177.015 [J/(mol K)]       0.06742145 [mEh/K]
  Correction S                               0.000 [cal/(mol K)]        0.000 [J/(mol K)]       0.00000000 [mEh/K]

  Constant volume heat capacity, Cv
    Electronic Cv                            0.000 [cal/(mol K)]        0.000 [J/(mol K)]       0.00000000 [mEh/K]
    Translational Cv                         2.981 [cal/(mol K)]       12.472 [J/(mol K)]       0.00475022 [mEh/K]
    Rotational Cv                            1.987 [cal/(mol K)]        8.314 [J/(mol K)]       0.00316681 [mEh/K]
    Vibrational Cv                           0.000 [cal/(mol K)]        0.002 [J/(mol K)]       0.00000072 [mEh/K]
  Total Cv                                   4.968 [cal/(mol K)]       20.788 [J/(mol K)]       0.00791775 [mEh/K]
  Correction Cv                              0.000 [cal/(mol K)]        0.000 [J/(mol K)]       0.00000000 [mEh/K]

  Constant pressure heat capacity, Cp
    Electronic Cp                            0.000 [cal/(mol K)]        0.000 [J/(mol K)]       0.00000000 [mEh/K]
    Translational Cp                         4.968 [cal/(mol K)]       20.786 [J/(mol K)]       0.00791703 [mEh/K]
    Rotational Cp                            1.987 [cal/(mol K)]        8.314 [J/(mol K)]       0.00316681 [mEh/K]
    Vibrational Cp                           0.000 [cal/(mol K)]        0.002 [J/(mol K)]       0.00000072 [mEh/K]
  Total Cp                                   6.956 [cal/(mol K)]       29.103 [J/(mol K)]       0.01108456 [mEh/K]
  Correction Cp                              0.000 [cal/(mol K)]        0.000 [J/(mol K)]       0.00000000 [mEh/K]

  ==> Thermochemistry Energy Analysis <==

  Raw electronic energy, E_e
  Total E_e, Electronic energy at well bottom                                           -38.49626212 [Eh]

  Zero-point vibrational energy, ZPVE = Sum_i omega_i / 2,  E_0 = E_e + ZPVE
    Vibrational ZPVE                         4.031 [kcal/mol]       16.867 [kJ/mol]       0.00642442 [Eh]        1409.997 [cm^-1]
  Correction ZPVE to E_e                     4.031 [kcal/mol]       16.867 [kJ/mol]       0.00642442 [Eh]        1409.997 [cm^-1]
  Total E_0, Enthalpy at 0 [K]                                                          -38.48983771 [Eh]
  *** Absolute enthalpy, not an enthalpy of formation ***

  Thermal (internal) energy, E (includes ZPVE and finite-temperature corrections)
    Electronic contrib to E beyond E_e       0.000 [kcal/mol]        0.000 [kJ/mol]       0.00000000 [Eh]
    Translational contrib to E               0.889 [kcal/mol]        3.718 [kJ/mol]       0.00141628 [Eh]
    Rotational contrib to E                  0.592 [kcal/mol]        2.479 [kJ/mol]       0.00094418 [Eh]
    Vibrational contrib to E                 4.031 [kcal/mol]       16.867 [kJ/mol]       0.00642443 [Eh]
  Correction E                               5.513 [kcal/mol]       23.065 [kJ/mol]       0.00878490 [Eh]
  Total E, Thermal (internal) energy at  298.15 [K]                                     -38.48747723 [Eh]

  Enthalpy, H_trans = E_trans + k_B * T = E_trans + P * V
    Electronic contrib to H beyond E_e       0.000 [kcal/mol]        0.000 [kJ/mol]       0.00000000 [Eh]
    Translational contrib to H               1.481 [kcal/mol]        6.197 [kJ/mol]       0.00236046 [Eh]
    Rotational contrib to H                  0.592 [kcal/mol]        2.479 [kJ/mol]       0.00094418 [Eh]
    Vibrational contrib to H                 4.031 [kcal/mol]       16.867 [kJ/mol]       0.00642443 [Eh]
  Correction H                               6.105 [kcal/mol]       25.544 [kJ/mol]       0.00972908 [Eh]
  Total H, Enthalpy at  298.15 [K]                                                      -38.48653304 [Eh]
  *** Absolute enthalpy, not an enthalpy of formation ***

  Gibbs free energy, G = H - T * S
    Electronic contrib to G beyond E_e      -0.411 [kcal/mol]       -1.718 [kJ/mol]      -0.00065446 [Eh]
    Translational contrib to G              -8.548 [kcal/mol]      -35.765 [kJ/mol]      -0.01362217 [Eh]
    Rotational contrib to G                 -1.582 [kcal/mol]       -6.617 [kJ/mol]      -0.00252041 [Eh]
    Vibrational contrib to G                 4.031 [kcal/mol]       16.867 [kJ/mol]       0.00642442 [Eh]
  Correction G                              -6.509 [kcal/mol]      -27.233 [kJ/mol]      -0.01037262 [Eh]
  Total G, Gibbs energy at  298.15 [K]                                                  -38.50663475 [Eh]

    Molecular point group: c2v

    Geometry (in Angstrom), charge = 0, multiplicity = 2:

       Center              X                  Y                   Z               Mass
    ------------   -----------------  -----------------  -----------------  -----------------
         C            0.000000000000     0.000000000000    -0.087062458498    12.000000000000
         H            0.000000000000     0.000000000000     1.036637777957     1.007825032230

  Charge       = 0
  Multiplicity = 2
  Basis Set: CC-PVTZ
    Blend: CC-PVTZ
  Basis Set: (CC-PVTZ AUX)
    Blend: CC-PVTZ-JKFIT

    Irrep   Nso     Nmo     Nalpha   Nbeta   Ndocc  Nsocc

    Orbital Energies [Eh]
    ---------------------

    Alpha Occupied:

       1A1   -10.281406     2A1    -0.650705     3A1    -0.324169
       1B2    -0.259657

    Alpha Virtual:

       1B1    -0.147777     4A1     0.058059     5A1     0.282469
       2B2     0.291667     2B1     0.311317     6A1     0.346862
       7A1     0.446110     3B2     0.568306     3B1     0.571674
       1A2     0.654988     8A1     0.660739     9A1     0.951784
       4B2     1.026749     4B1     1.027080    10A1     1.378050
       5B2     1.930317     5B1     1.956438    11A1     2.055965
      12A1     2.192193     2A2     2.520982    13A1     2.524653
       6B2     2.611499     6B1     2.618008     7B2     2.641579
       7B1     2.644112    14A1     2.891780     3A2     2.901497
      15A1     2.919620     8B2     3.051316     8B1     3.059297
      16A1     3.230237     4A2     3.550838    17A1     3.552586
       9B1     3.794531     9B2     3.797015    18A1     4.440553
      10B2     4.666498    10B1     4.667776    19A1     4.728771
      20A1     8.011750

    Beta Occupied:

       1A1   -10.266701     2A1    -0.608375     3A1    -0.303832

    Beta Virtual:

       1B1    -0.131711     1B2    -0.085807     4A1     0.063236
       5A1     0.289262     2B1     0.318758     2B2     0.347283
       6A1     0.358194     7A1     0.461029     3B1     0.573195
       3B2     0.596150     8A1     0.698247     1A2     0.698512
       9A1     0.964562     4B1     1.028519     4B2     1.048103
      10A1     1.389515     5B1     1.968026     5B2     2.012090
      11A1     2.064729    12A1     2.209071     2A2     2.551092
      13A1     2.551411     6B1     2.621012     6B2     2.653719
       7B1     2.700127     7B2     2.701019    14A1     2.911863
       3A2     2.978857    15A1     2.985970     8B1     3.063657
       8B2     3.102551    16A1     3.244140     4A2     3.562500
      17A1     3.562926     9B1     3.790881     9B2     3.800574
      18A1     4.448773    10B1     4.668727    10B2     4.692217
      19A1     4.734512    20A1     8.028429

    Final Occupation by Irrep:
             A1    A2    B1    B2
    DOCC [     3,    0,    0,    0 ]
    SOCC [     0,    0,    0,    1 ]
    NA   [     3,    0,    0,    1 ]
    NB   [     3,    0,    0,    0 ]

  @DF-UKS Final Energy:   -38.49626212393325

   => Energetics <=

    Nuclear Repulsion Energy =              2.8255429348613426
    One-Electron Energy =                 -56.6647338577425543
    Two-Electron Energy =                  19.8909779034903451
    DFT Exchange-Correlation Energy =      -4.5480491045423799
    Empirical Dispersion Energy =           0.0000000000000000
    VV10 Nonlocal Energy =                  0.0000000000000000
    Total Energy =                        -38.4962621239332492

  UHF NO Occupations:
  HONO-2 :    2 A1 1.9998374
  HONO-1 :    3 A1 1.9986767
  HONO-0 :    1 B2 1.0000000
  LUNO+0 :    4 A1 0.0013233
  LUNO+1 :    5 A1 0.0001626
  LUNO+2 :    6 A1 0.0000007
  LUNO+3 :    7 A1 0.0000000

Computation Completed

Properties will be evaluated at   0.000000,   0.000000,   0.000000 [a0]

Properties computed using the B3LYP density matrix

 Multipole Moments:

 ------------------------------------------------------------------------------------
     Multipole            Electronic (a.u.)      Nuclear  (a.u.)        Total (a.u.)
 ------------------------------------------------------------------------------------

 L = 1.  Multiply by 2.5417464519 to convert [e a0] to [Debye]
 Dipole X            :          0.0000000            0.0000000            0.0000000
 Dipole Y            :          0.0000000            0.0000000            0.0000000
 Dipole Z            :         -0.3915950            0.9718163            0.5802212
 Magnitude           :                                                    0.5802212

 L = 2.  Multiply by 1.3450342976 to convert [e a0^2] to [Debye ang]
 Quadrupole XX       :         -4.2072739            0.0000000           -4.2072739
 Quadrupole XY       :          0.0000000            0.0000000            0.0000000
 Quadrupole XZ       :          0.0000000            0.0000000            0.0000000
 Quadrupole YY       :         -5.7036767            0.0000000           -5.7036767
 Quadrupole YZ       :          0.0000000            0.0000000            0.0000000
 Quadrupole ZZ       :         -9.5553984            3.9999394           -5.5554589
 Traceless XX        :          2.2815091           -1.3333131            0.9481960
 Traceless YY        :          0.7851063           -1.3333131           -0.5482069
 Traceless ZZ        :         -3.0666154            2.6666263           -0.3999891

 ------------------------------------------------------------------------------------
  Mulliken Charges: (a.u.)
   Center  Symbol    Alpha    Beta     Spin     Total
       1     C     3.55921  2.54399  1.01521 -0.10320
       2     H     0.44079  0.45601 -0.01521  0.10320

   Total alpha =  4.00000, Total beta =  3.00000, Total charge =  0.00000

*** tstop() called on Mac.lan at Sun Aug 10 17:08:12 2025
Module time:
	user time   =       8.72 seconds =       0.15 minutes
	system time =       1.36 seconds =       0.02 minutes
	total time  =          1 seconds =       0.02 minutes
Total time:
	user time   =     108.56 seconds =       1.81 minutes
	system time =      14.59 seconds =       0.24 minutes
	total time  =         12 seconds =       0.20 minutes

    Psi4 stopped on: Sunday, 10 August 2025 05:08PM
    Psi4 wall time for execution: 0:00:12.79

*** Psi4 exiting successfully. Buy a developer a beer!
