                               Psi4 1.9.1 release

  ==> Input File <==

--------------------------------------------------------------------------
molecule {
0 1
O           0.000000           0.000000           0.000000
C           0.000000           0.000000           1.134486
}

set {
basis              cc-pvtz
reference          uks
maxiter            500
DAMPING_PERCENTAGE 1
E_CONVERGENCE      1.0E-8
D_CONVERGENCE      1.0E-8
DIIS_MAX_VECS      400
MBIS_MAXITER       8000
guess              SAP
}

E, wfn = optimize('b3lyp', return_wfn=True)
frequencies('b3lyp', wfn=wfn, return_wfn=True)
properties('b3lyp','MULLIKEN_CHARGES', wfn=wfn)
--------------------------------------------------------------------------

    Molecular point group: c2v
  Charge       = 0
  Multiplicity = 1
  Basis Set: CC-PVTZ
    Blend: CC-PVTZ
  Basis Set: (CC-PVTZ AUX)
    Blend: CC-PVTZ-JKFIT
  @DF-UKS Final Energy:  -113.35708639958020
    Total Energy =                       -113.3570863995801972
 Dipole X            :          0.0000000            0.0000000            0.0000000
 Dipole Y            :          0.0000000            0.0000000            0.0000000
 Dipole Z            :         -0.0355493           -0.0023366           -0.0378860
 Magnitude           :                                                    0.0378860
    Molecular point group: c2v
  Basis Set: CC-PVTZ
    Blend: CC-PVTZ
  Basis Set: (CC-PVTZ AUX)
    Blend: CC-PVTZ-JKFIT
  Basis Set: CC-PVTZ
    Blend: CC-PVTZ
  Basis Set: (CC-PVTZ AUX)
    Blend: CC-PVTZ-JKFIT
  @DF-UKS Final Energy:  -113.35723643940493
    Total Energy =                       -113.3572364394049288
  Basis Set: CC-PVTZ
    Blend: CC-PVTZ
  Basis Set: (CC-PVTZ AUX)
    Blend: CC-PVTZ-JKFIT
  Basis Set: CC-PVTZ
    Blend: CC-PVTZ
  @DF-UKS Final Energy:  -113.35724025120736
    Total Energy =                       -113.3572402512073580
    Final optimized geometry and variables:
                               Psi4 1.9.1 release
  @DF-UKS Final Energy:  -113.35724025119463
    Total Energy =                       -113.3572402511946251
                               Psi4 1.9.1 release
  @DF-UKS Final Energy:  -113.35723810741453
    Total Energy =                       -113.3572381074145312
                               Psi4 1.9.1 release
  @DF-UKS Final Energy:  -113.35723776553685
    Total Energy =                       -113.3572377655368513
                               Psi4 1.9.1 release
    Blend: CC-PVTZ-JKFIT
  @DF-UKS Final Energy:  -113.35724025119642
    Total Energy =                       -113.3572402511964157
  Basis Set: CC-PVTZ
    Blend: CC-PVTZ
  Basis Set: (CC-PVTZ AUX)
    Blend: CC-PVTZ-JKFIT
                               Psi4 1.9.1 release
  Basis Set: CC-PVTZ
    Blend: CC-PVTZ
  Basis Set: (CC-PVTZ AUX)
    Blend: CC-PVTZ-JKFIT
  @DF-UKS Final Energy:  -113.35724025120128
    Total Energy =                       -113.3572402512012758
    Molecular point group: cs
  Basis Set: CC-PVTZ
    Blend: CC-PVTZ
  Basis Set: (CC-PVTZ AUX)
    Blend: CC-PVTZ-JKFIT

  -Total Gradient:
     Atom            X                  Y                   Z
    ------   -----------------  -----------------  -----------------
       1        0.000000000000     0.000000084259     0.000093902509
       2        0.000000000000    -0.000000079120    -0.000088175416

  Vibration                       6
  Freq [cm^-1]                2212.1183
  Irrep                           A1
  Reduced mass [u]             13.4388
  Force const [mDyne/A]        38.7459

  IR activ [km/mol]            74.7347

  ==> Thermochemistry Components <==

  Entropy, S
    Electronic S                             0.000 [cal/(mol K)]        0.000 [J/(mol K)]       0.00000000 [mEh/K] (multiplicity = 1)
    Translational S                         35.923 [cal/(mol K)]      150.302 [J/(mol K)]       0.05724692 [mEh/K] (mol. weight = 27.9949 [u], P = 101325.00 [Pa])
    Rotational S                            11.271 [cal/(mol K)]       47.157 [J/(mol K)]       0.01796129 [mEh/K] (symmetry no. = 1)
    Vibrational S                            0.001 [cal/(mol K)]        0.002 [J/(mol K)]       0.00000085 [mEh/K]
  Total S                                   47.194 [cal/(mol K)]      197.461 [J/(mol K)]       0.07520907 [mEh/K]
  Correction S                               0.000 [cal/(mol K)]        0.000 [J/(mol K)]       0.00000000 [mEh/K]

  Constant volume heat capacity, Cv
    Electronic Cv                            0.000 [cal/(mol K)]        0.000 [J/(mol K)]       0.00000000 [mEh/K]
    Translational Cv                         2.981 [cal/(mol K)]       12.472 [J/(mol K)]       0.00475022 [mEh/K]
    Rotational Cv                            1.987 [cal/(mol K)]        8.314 [J/(mol K)]       0.00316681 [mEh/K]
    Vibrational Cv                           0.005 [cal/(mol K)]        0.022 [J/(mol K)]       0.00000834 [mEh/K]
  Total Cv                                   4.973 [cal/(mol K)]       20.808 [J/(mol K)]       0.00792537 [mEh/K]
  Correction Cv                              0.000 [cal/(mol K)]        0.000 [J/(mol K)]       0.00000000 [mEh/K]

  Constant pressure heat capacity, Cp
    Electronic Cp                            0.000 [cal/(mol K)]        0.000 [J/(mol K)]       0.00000000 [mEh/K]
    Translational Cp                         4.968 [cal/(mol K)]       20.786 [J/(mol K)]       0.00791703 [mEh/K]
    Rotational Cp                            1.987 [cal/(mol K)]        8.314 [J/(mol K)]       0.00316681 [mEh/K]
    Vibrational Cp                           0.005 [cal/(mol K)]        0.022 [J/(mol K)]       0.00000834 [mEh/K]
  Total Cp                                   6.960 [cal/(mol K)]       29.123 [J/(mol K)]       0.01109218 [mEh/K]
  Correction Cp                              0.000 [cal/(mol K)]        0.000 [J/(mol K)]       0.00000000 [mEh/K]

  ==> Thermochemistry Energy Analysis <==

  Raw electronic energy, E_e
  Total E_e, Electronic energy at well bottom                                          -113.35724025 [Eh]

  Zero-point vibrational energy, ZPVE = Sum_i omega_i / 2,  E_0 = E_e + ZPVE
    Vibrational ZPVE                         3.162 [kcal/mol]       13.231 [kJ/mol]       0.00503958 [Eh]        1106.059 [cm^-1]
  Correction ZPVE to E_e                     3.162 [kcal/mol]       13.231 [kJ/mol]       0.00503958 [Eh]        1106.059 [cm^-1]
  Total E_0, Enthalpy at 0 [K]                                                         -113.35220067 [Eh]
  *** Absolute enthalpy, not an enthalpy of formation ***

  Thermal (internal) energy, E (includes ZPVE and finite-temperature corrections)
    Electronic contrib to E beyond E_e       0.000 [kcal/mol]        0.000 [kJ/mol]       0.00000000 [Eh]
    Translational contrib to E               0.889 [kcal/mol]        3.718 [kJ/mol]       0.00141628 [Eh]
    Rotational contrib to E                  0.592 [kcal/mol]        2.479 [kJ/mol]       0.00094418 [Eh]
    Vibrational contrib to E                 3.163 [kcal/mol]       13.232 [kJ/mol]       0.00503981 [Eh]
  Correction E                               4.644 [kcal/mol]       19.429 [kJ/mol]       0.00740027 [Eh]
  Total E, Thermal (internal) energy at  298.15 [K]                                    -113.34983998 [Eh]

  Enthalpy, H_trans = E_trans + k_B * T = E_trans + P * V
    Electronic contrib to H beyond E_e       0.000 [kcal/mol]        0.000 [kJ/mol]       0.00000000 [Eh]
    Translational contrib to H               1.481 [kcal/mol]        6.197 [kJ/mol]       0.00236046 [Eh]
    Rotational contrib to H                  0.592 [kcal/mol]        2.479 [kJ/mol]       0.00094418 [Eh]
    Vibrational contrib to H                 3.163 [kcal/mol]       13.232 [kJ/mol]       0.00503981 [Eh]
  Correction H                               5.236 [kcal/mol]       21.908 [kJ/mol]       0.00834446 [Eh]
  Total H, Enthalpy at  298.15 [K]                                                     -113.34889580 [Eh]
  *** Absolute enthalpy, not an enthalpy of formation ***

  Gibbs free energy, G = H - T * S
    Electronic contrib to G beyond E_e       0.000 [kcal/mol]        0.000 [kJ/mol]       0.00000000 [Eh]
    Translational contrib to G              -9.229 [kcal/mol]      -38.615 [kJ/mol]      -0.01470771 [Eh]
    Rotational contrib to G                 -2.768 [kcal/mol]      -11.581 [kJ/mol]      -0.00441097 [Eh]
    Vibrational contrib to G                 3.162 [kcal/mol]       13.231 [kJ/mol]       0.00503955 [Eh]
  Correction G                              -8.835 [kcal/mol]      -36.965 [kJ/mol]      -0.01407913 [Eh]
  Total G, Gibbs energy at  298.15 [K]                                                 -113.37131938 [Eh]

    Molecular point group: c2v

    Geometry (in Angstrom), charge = 0, multiplicity = 1:

       Center              X                  Y                   Z               Mass
    ------------   -----------------  -----------------  -----------------  -----------------
         O            0.000000000000     0.000000000000    -0.482714931433    15.994914619570
         C            0.000000000000     0.000000000000     0.643415342822    12.000000000000

  Charge       = 0
  Multiplicity = 1
  Basis Set: CC-PVTZ
    Blend: CC-PVTZ
  Basis Set: (CC-PVTZ AUX)
    Blend: CC-PVTZ-JKFIT

    Irrep   Nso     Nmo     Nalpha   Nbeta   Ndocc  Nsocc

    Orbital Energies [Eh]
    ---------------------

    Alpha Occupied:

       1A1   -19.239193     2A1   -10.294044     3A1    -1.171838
       4A1    -0.581941     1B1    -0.482846     1B2    -0.482846
       5A1    -0.383541

    Alpha Virtual:

       2B2    -0.033098     2B1    -0.033098     6A1     0.157447
       3B1     0.287337     3B2     0.287337     7A1     0.302566
       8A1     0.535740     9A1     0.599525     4B2     0.611799
       4B1     0.611799    10A1     0.633115     1A2     0.633115
       5B2     0.855169     5B1     0.855169    11A1     1.110797
      12A1     1.309205     2A2     1.496200    13A1     1.496200
       6B1     1.870102     6B2     1.870102    14A1     1.922472
       7B2     1.980221     7B1     1.980221    15A1     2.430555
       8B1     2.630847     8B2     2.630847    16A1     2.807297
       3A2     2.807297    17A1     2.927348     4A2     2.927349
       9B2     2.959104     9B1     2.959104    18A1     3.087585
      10B2     3.219770    10B1     3.219770    19A1     3.363249
      11B1     4.053524    11B2     4.053524    20A1     4.419327
      12B1     5.067764    12B2     5.067764     5A2     5.471830
      21A1     5.471831    22A1     6.093527    23A1     6.215670
       6A2     6.215682    13B2     6.224566    13B1     6.224566
      14B1     6.719729    14B2     6.719729    24A1     6.725868
      25A1     6.980950    26A1    12.220193

    Beta Occupied:

       1A1   -19.239193     2A1   -10.294044     3A1    -1.171838
       4A1    -0.581941     1B1    -0.482846     1B2    -0.482846
       5A1    -0.383541

    Beta Virtual:

       2B2    -0.033098     2B1    -0.033098     6A1     0.157447
       3B1     0.287337     3B2     0.287337     7A1     0.302566
       8A1     0.535740     9A1     0.599525     4B2     0.611799
       4B1     0.611799    10A1     0.633115     1A2     0.633115
       5B2     0.855169     5B1     0.855169    11A1     1.110797
      12A1     1.309205     2A2     1.496200    13A1     1.496200
       6B1     1.870102     6B2     1.870102    14A1     1.922472
       7B2     1.980221     7B1     1.980221    15A1     2.430555
       8B1     2.630847     8B2     2.630847    16A1     2.807297
       3A2     2.807297    17A1     2.927348     4A2     2.927349
       9B2     2.959104     9B1     2.959104    18A1     3.087585
      10B2     3.219770    10B1     3.219770    19A1     3.363249
      11B1     4.053524    11B2     4.053524    20A1     4.419327
      12B1     5.067764    12B2     5.067764     5A2     5.471830
      21A1     5.471831    22A1     6.093527    23A1     6.215670
       6A2     6.215682    13B2     6.224566    13B1     6.224566
      14B1     6.719729    14B2     6.719729    24A1     6.725868
      25A1     6.980950    26A1    12.220193

    Final Occupation by Irrep:
             A1    A2    B1    B2
    DOCC [     5,    0,    1,    1 ]
    SOCC [     0,    0,    0,    0 ]
    NA   [     5,    0,    1,    1 ]
    NB   [     5,    0,    1,    1 ]

  @DF-UKS Final Energy:  -113.35724025119463

   => Energetics <=

    Nuclear Repulsion Energy =             22.5555663432891116
    One-Electron Energy =                -198.4724284818303204
    Two-Electron Energy =                  73.7945592739456515
    DFT Exchange-Correlation Energy =     -11.2349373865990732
    Empirical Dispersion Energy =           0.0000000000000000
    VV10 Nonlocal Energy =                  0.0000000000000000
    Total Energy =                       -113.3572402511946251

  UHF NO Occupations:
  HONO-2 :    4 A1 2.0000000
  HONO-1 :    5 A1 2.0000000
  HONO-0 :    1 B1 2.0000000
  LUNO+0 :    6 A1 0.0000000
  LUNO+1 :    7 A1 0.0000000
  LUNO+2 :    8 A1 0.0000000
  LUNO+3 :    9 A1 0.0000000

Computation Completed

Properties will be evaluated at   0.000000,   0.000000,   0.000000 [a0]

Properties computed using the B3LYP density matrix

 Multipole Moments:

 ------------------------------------------------------------------------------------
     Multipole            Electronic (a.u.)      Nuclear  (a.u.)        Total (a.u.)
 ------------------------------------------------------------------------------------

 L = 1.  Multiply by 2.5417464519 to convert [e a0] to [Debye]
 Dipole X            :          0.0000000            0.0000000            0.0000000
 Dipole Y            :          0.0000000            0.0000000            0.0000000
 Dipole Z            :         -0.0470322           -0.0023194           -0.0493517
 Magnitude           :                                                    0.0493517

 L = 2.  Multiply by 1.3450342976 to convert [e a0^2] to [Debye ang]
 Quadrupole XX       :         -7.5762391            0.0000000           -7.5762391
 Quadrupole XY       :          0.0000000            0.0000000            0.0000000
 Quadrupole XZ       :          0.0000000            0.0000000            0.0000000
 Quadrupole YY       :         -7.5762391            0.0000000           -7.5762391
 Quadrupole YZ       :          0.0000000            0.0000000            0.0000000
 Quadrupole ZZ       :        -24.6062314           15.5270237           -9.0792078
 Traceless XX        :          5.6766641           -5.1756746            0.5009896
 Traceless YY        :          5.6766641           -5.1756746            0.5009896
 Traceless ZZ        :        -11.3533282           10.3513491           -1.0019791

 ------------------------------------------------------------------------------------
  Mulliken Charges: (a.u.)
   Center  Symbol    Alpha    Beta     Spin     Total
       1     O     3.98645  3.98645  0.00000  0.02711
       2     C     3.01355  3.01355 -0.00000 -0.02711

   Total alpha =  7.00000, Total beta =  7.00000, Total charge =  0.00000

*** tstop() called on Mac.lan at Sun Aug 10 17:16:23 2025
Module time:
	user time   =      13.83 seconds =       0.23 minutes
	system time =       1.65 seconds =       0.03 minutes
	total time  =          2 seconds =       0.03 minutes
Total time:
	user time   =     155.50 seconds =       2.59 minutes
	system time =      16.18 seconds =       0.27 minutes
	total time  =         17 seconds =       0.28 minutes

    Psi4 stopped on: Sunday, 10 August 2025 05:16PM
    Psi4 wall time for execution: 0:00:17.15

*** Psi4 exiting successfully. Buy a developer a beer!
