                               Psi4 1.9.1 release

  ==> Input File <==

--------------------------------------------------------------------------
molecule {
0 1
H           0.000000           0.000000           0.000000
H           0.000000           0.000000           0.761422
}

set {
basis              cc-pvtz
reference          uks
maxiter            500
DAMPING_PERCENTAGE 1
E_CONVERGENCE      1.0E-8
D_CONVERGENCE      1.0E-8
DIIS_MAX_VECS      400
MBIS_MAXITER       8000
guess              SAP
}

E, wfn = optimize('b3lyp', return_wfn=True)
frequencies('b3lyp', wfn=wfn, return_wfn=True)
properties('b3lyp','MULLIKEN_CHARGES', wfn=wfn)
--------------------------------------------------------------------------

    Molecular point group: d2h
  Charge       = 0
  Multiplicity = 1
  Basis Set: CC-PVTZ
    Blend: CC-PVTZ
  Basis Set: (CC-PVTZ AUX)
    Blend: CC-PVTZ-JKFIT
  @DF-UKS Final Energy:    -1.17978074268873
    Total Energy =                         -1.1797807426887337
 Dipole X            :          0.0000000            0.0000000            0.0000000
 Dipole Y            :          0.0000000            0.0000000            0.0000000
 Dipole Z            :          0.0000000            0.0000000            0.0000000
 Magnitude           :                                                    0.0000000
    Molecular point group: d2h
  Basis Set: CC-PVTZ
    Blend: CC-PVTZ
  Basis Set: (CC-PVTZ AUX)
    Blend: CC-PVTZ-JKFIT
  Basis Set: CC-PVTZ
    Blend: CC-PVTZ
  Basis Set: (CC-PVTZ AUX)
    Blend: CC-PVTZ-JKFIT
  @DF-UKS Final Energy:    -1.17999973548165
    Total Energy =                         -1.1799997354816516
  Basis Set: CC-PVTZ
    Blend: CC-PVTZ
  Basis Set: (CC-PVTZ AUX)
    Blend: CC-PVTZ-JKFIT
  Basis Set: CC-PVTZ
    Blend: CC-PVTZ
  @DF-UKS Final Energy:    -1.18000002529836
    Total Energy =                         -1.1800000252983613
    Final optimized geometry and variables:
                               Psi4 1.9.1 release
  @DF-UKS Final Energy:    -1.18000002515809
    Total Energy =                         -1.1800000251580924
                               Psi4 1.9.1 release
  @DF-UKS Final Energy:    -1.17999105461749
    Total Energy =                         -1.1799910546174908
                               Psi4 1.9.1 release
  @DF-UKS Final Energy:    -1.17999051028866
    Total Energy =                         -1.1799905102886554
                               Psi4 1.9.1 release
    Blend: CC-PVTZ-JKFIT
  @DF-UKS Final Energy:    -1.18000002559642
    Total Energy =                         -1.1800000255964189
  Basis Set: CC-PVTZ
    Blend: CC-PVTZ
  Basis Set: (CC-PVTZ AUX)
    Blend: CC-PVTZ-JKFIT
                               Psi4 1.9.1 release
  Basis Set: CC-PVTZ
    Blend: CC-PVTZ
  Basis Set: (CC-PVTZ AUX)
    Blend: CC-PVTZ-JKFIT
  @DF-UKS Final Energy:    -1.18000002559639
    Total Energy =                         -1.1800000255963934
    Molecular point group: c2h
  Basis Set: CC-PVTZ
    Blend: CC-PVTZ
  Basis Set: (CC-PVTZ AUX)
    Blend: CC-PVTZ-JKFIT

  -Total Gradient:
     Atom            X                  Y                   Z
    ------   -----------------  -----------------  -----------------
       1        0.000000000000     0.000000108452     0.000021614912
       2        0.000000000000    -0.000000108452    -0.000021614912

  Vibration                       6
  Freq [cm^-1]                4420.3758
  Irrep                           Ag
  Reduced mass [u]              1.0078
  Force const [mDyne/A]        11.6026

  IR activ [km/mol]             0.0000

  ==> Thermochemistry Components <==

  Entropy, S
    Electronic S                             0.000 [cal/(mol K)]        0.000 [J/(mol K)]       0.00000000 [mEh/K] (multiplicity = 1)
    Translational S                         28.080 [cal/(mol K)]      117.488 [J/(mol K)]       0.04474872 [mEh/K] (mol. weight = 2.0157 [u], P = 101325.00 [Pa])
    Rotational S                             3.052 [cal/(mol K)]       12.771 [J/(mol K)]       0.00486428 [mEh/K] (symmetry no. = 2)
    Vibrational S                            0.000 [cal/(mol K)]        0.000 [J/(mol K)]       0.00000000 [mEh/K]
  Total S                                   31.133 [cal/(mol K)]      130.259 [J/(mol K)]       0.04961300 [mEh/K]
  Correction S                               0.000 [cal/(mol K)]        0.000 [J/(mol K)]       0.00000000 [mEh/K]

  Constant volume heat capacity, Cv
    Electronic Cv                            0.000 [cal/(mol K)]        0.000 [J/(mol K)]       0.00000000 [mEh/K]
    Translational Cv                         2.981 [cal/(mol K)]       12.472 [J/(mol K)]       0.00475022 [mEh/K]
    Rotational Cv                            1.987 [cal/(mol K)]        8.314 [J/(mol K)]       0.00316681 [mEh/K]
    Vibrational Cv                           0.000 [cal/(mol K)]        0.000 [J/(mol K)]       0.00000000 [mEh/K]
  Total Cv                                   4.968 [cal/(mol K)]       20.786 [J/(mol K)]       0.00791703 [mEh/K]
  Correction Cv                              0.000 [cal/(mol K)]        0.000 [J/(mol K)]       0.00000000 [mEh/K]

  Constant pressure heat capacity, Cp
    Electronic Cp                            0.000 [cal/(mol K)]        0.000 [J/(mol K)]       0.00000000 [mEh/K]
    Translational Cp                         4.968 [cal/(mol K)]       20.786 [J/(mol K)]       0.00791703 [mEh/K]
    Rotational Cp                            1.987 [cal/(mol K)]        8.314 [J/(mol K)]       0.00316681 [mEh/K]
    Vibrational Cp                           0.000 [cal/(mol K)]        0.000 [J/(mol K)]       0.00000000 [mEh/K]
  Total Cp                                   6.955 [cal/(mol K)]       29.101 [J/(mol K)]       0.01108384 [mEh/K]
  Correction Cp                              0.000 [cal/(mol K)]        0.000 [J/(mol K)]       0.00000000 [mEh/K]

  ==> Thermochemistry Energy Analysis <==

  Raw electronic energy, E_e
  Total E_e, Electronic energy at well bottom                                            -1.18000003 [Eh]

  Zero-point vibrational energy, ZPVE = Sum_i omega_i / 2,  E_0 = E_e + ZPVE
    Vibrational ZPVE                         6.319 [kcal/mol]       26.440 [kJ/mol]       0.01007036 [Eh]        2210.188 [cm^-1]
  Correction ZPVE to E_e                     6.319 [kcal/mol]       26.440 [kJ/mol]       0.01007036 [Eh]        2210.188 [cm^-1]
  Total E_0, Enthalpy at 0 [K]                                                           -1.16992967 [Eh]
  *** Absolute enthalpy, not an enthalpy of formation ***

  Thermal (internal) energy, E (includes ZPVE and finite-temperature corrections)
    Electronic contrib to E beyond E_e       0.000 [kcal/mol]        0.000 [kJ/mol]       0.00000000 [Eh]
    Translational contrib to E               0.889 [kcal/mol]        3.718 [kJ/mol]       0.00141628 [Eh]
    Rotational contrib to E                  0.592 [kcal/mol]        2.479 [kJ/mol]       0.00094418 [Eh]
    Vibrational contrib to E                 6.319 [kcal/mol]       26.440 [kJ/mol]       0.01007036 [Eh]
  Correction E                               7.800 [kcal/mol]       32.637 [kJ/mol]       0.01243082 [Eh]
  Total E, Thermal (internal) energy at  298.15 [K]                                      -1.16756921 [Eh]

  Enthalpy, H_trans = E_trans + k_B * T = E_trans + P * V
    Electronic contrib to H beyond E_e       0.000 [kcal/mol]        0.000 [kJ/mol]       0.00000000 [Eh]
    Translational contrib to H               1.481 [kcal/mol]        6.197 [kJ/mol]       0.00236046 [Eh]
    Rotational contrib to H                  0.592 [kcal/mol]        2.479 [kJ/mol]       0.00094418 [Eh]
    Vibrational contrib to H                 6.319 [kcal/mol]       26.440 [kJ/mol]       0.01007036 [Eh]
  Correction H                               8.393 [kcal/mol]       35.116 [kJ/mol]       0.01337500 [Eh]
  Total H, Enthalpy at  298.15 [K]                                                       -1.16662502 [Eh]
  *** Absolute enthalpy, not an enthalpy of formation ***

  Gibbs free energy, G = H - T * S
    Electronic contrib to G beyond E_e       0.000 [kcal/mol]        0.000 [kJ/mol]       0.00000000 [Eh]
    Translational contrib to G              -6.891 [kcal/mol]      -28.832 [kJ/mol]      -0.01098137 [Eh]
    Rotational contrib to G                 -0.318 [kcal/mol]       -1.329 [kJ/mol]      -0.00050610 [Eh]
    Vibrational contrib to G                 6.319 [kcal/mol]       26.440 [kJ/mol]       0.01007036 [Eh]
  Correction G                              -0.889 [kcal/mol]       -3.721 [kJ/mol]      -0.00141711 [Eh]
  Total G, Gibbs energy at  298.15 [K]                                                   -1.18141714 [Eh]

    Molecular point group: d2h

    Geometry (in Angstrom), charge = 0, multiplicity = 1:

       Center              X                  Y                   Z               Mass
    ------------   -----------------  -----------------  -----------------  -----------------
         H            0.000000000000     0.000000000000    -0.371432499797     1.007825032230
         H            0.000000000000     0.000000000000     0.371432499797     1.007825032230

  Charge       = 0
  Multiplicity = 1
  Basis Set: CC-PVTZ
    Blend: CC-PVTZ
  Basis Set: (CC-PVTZ AUX)
    Blend: CC-PVTZ-JKFIT

    Irrep   Nso     Nmo     Nalpha   Nbeta   Ndocc  Nsocc

    Orbital Energies [Eh]
    ---------------------

    Alpha Occupied:

       1Ag    -0.434093

    Alpha Virtual:

       1B1u    0.058115     2Ag     0.195727     2B1u    0.470605
       1B2u    0.511614     1B3u    0.511614     3Ag     0.910983
       1B3g    0.937216     1B2g    0.937216     3B1u    1.367251
       4B1u    2.035652     4Ag     2.093436     5Ag     2.882707
       1B1g    2.882707     2B3u    3.079834     2B2u    3.079834
       6Ag     3.356441     2B2g    3.600847     2B3g    3.600847
       5B1u    3.793352     1Au     3.793352     3B2u    3.807786
       3B3u    3.807786     6B1u    4.345897     3B3g    5.386766
       3B2g    5.386766     7Ag     5.448389     7B1u    6.522633

    Beta Occupied:

       1Ag    -0.434093

    Beta Virtual:

       1B1u    0.058115     2Ag     0.195727     2B1u    0.470605
       1B2u    0.511614     1B3u    0.511614     3Ag     0.910983
       1B3g    0.937216     1B2g    0.937216     3B1u    1.367251
       4B1u    2.035652     4Ag     2.093436     5Ag     2.882707
       1B1g    2.882707     2B3u    3.079834     2B2u    3.079834
       6Ag     3.356441     2B2g    3.600847     2B3g    3.600847
       5B1u    3.793352     1Au     3.793352     3B2u    3.807786
       3B3u    3.807786     6B1u    4.345897     3B3g    5.386766
       3B2g    5.386766     7Ag     5.448389     7B1u    6.522633

    Final Occupation by Irrep:
             Ag   B1g   B2g   B3g    Au   B1u   B2u   B3u
    DOCC [     1,    0,    0,    0,    0,    0,    0,    0 ]
    SOCC [     0,    0,    0,    0,    0,    0,    0,    0 ]
    NA   [     1,    0,    0,    0,    0,    0,    0,    0 ]
    NB   [     1,    0,    0,    0,    0,    0,    0,    0 ]

  @DF-UKS Final Energy:    -1.18000002515809

   => Energetics <=

    Nuclear Repulsion Energy =              0.7123464033974078
    One-Electron Energy =                  -2.5015483656886044
    Two-Electron Energy =                   1.1826004470031419
    DFT Exchange-Correlation Energy =      -0.5733985098700378
    Empirical Dispersion Energy =           0.0000000000000000
    VV10 Nonlocal Energy =                  0.0000000000000000
    Total Energy =                         -1.1800000251580924

  UHF NO Occupations:
  HONO-0 :    1 Ag 2.0000000
  LUNO+0 :    2 Ag 0.0000000
  LUNO+1 :    3 Ag 0.0000000
  LUNO+2 :    3B3u 0.0000000
  LUNO+3 :    2B3u 0.0000000

Computation Completed

Properties will be evaluated at   0.000000,   0.000000,   0.000000 [a0]

Properties computed using the B3LYP density matrix

 Multipole Moments:

 ------------------------------------------------------------------------------------
     Multipole            Electronic (a.u.)      Nuclear  (a.u.)        Total (a.u.)
 ------------------------------------------------------------------------------------

 L = 1.  Multiply by 2.5417464519 to convert [e a0] to [Debye]
 Dipole X            :          0.0000000            0.0000000            0.0000000
 Dipole Y            :          0.0000000            0.0000000            0.0000000
 Dipole Z            :          0.0000000            0.0000000            0.0000000
 Magnitude           :                                                    0.0000000

 L = 2.  Multiply by 1.3450342976 to convert [e a0^2] to [Debye ang]
 Quadrupole XX       :         -1.5659873            0.0000000           -1.5659873
 Quadrupole XY       :          0.0000000            0.0000000            0.0000000
 Quadrupole XZ       :          0.0000000            0.0000000            0.0000000
 Quadrupole YY       :         -1.5659873            0.0000000           -1.5659873
 Quadrupole YZ       :          0.0000000            0.0000000            0.0000000
 Quadrupole ZZ       :         -2.1294514            0.9853432           -1.1441082
 Traceless XX        :          0.1878214           -0.3284477           -0.1406264
 Traceless YY        :          0.1878214           -0.3284477           -0.1406264
 Traceless ZZ        :         -0.3756428            0.6568955            0.2812527

 ------------------------------------------------------------------------------------
  Mulliken Charges: (a.u.)
   Center  Symbol    Alpha    Beta     Spin     Total
       1     H     0.50000  0.50000 -0.00000  0.00000
       2     H     0.50000  0.50000 -0.00000  0.00000

   Total alpha =  1.00000, Total beta =  1.00000, Total charge =  0.00000

*** tstop() called on Mac.lan at Sun Aug 10 16:59:05 2025
Module time:
	user time   =       0.81 seconds =       0.01 minutes
	system time =       2.30 seconds =       0.04 minutes
	total time  =          0 seconds =       0.00 minutes
Total time:
	user time   =      12.34 seconds =       0.21 minutes
	system time =      34.63 seconds =       0.58 minutes
	total time  =          6 seconds =       0.10 minutes

    Psi4 stopped on: Sunday, 10 August 2025 04:59PM
    Psi4 wall time for execution: 0:00:06.44

*** Psi4 exiting successfully. Buy a developer a beer!
