                               Psi4 1.9.1 release

  ==> Input File <==

--------------------------------------------------------------------------
molecule {
0 2
O           0.000000           0.000000           0.000000
N           0.000000           0.000000           1.153902
}

set {
basis              cc-pvtz
reference          uks
maxiter            500
DAMPING_PERCENTAGE 1
E_CONVERGENCE      1.0E-8
D_CONVERGENCE      1.0E-8
DIIS_MAX_VECS      400
MBIS_MAXITER       8000
guess              SAP
}

E, wfn = optimize('b3lyp', return_wfn=True)
frequencies('b3lyp', wfn=wfn, return_wfn=True)
properties('b3lyp','MULLIKEN_CHARGES', wfn=wfn)
--------------------------------------------------------------------------

    Molecular point group: c2v
  Charge       = 0
  Multiplicity = 2
  Basis Set: CC-PVTZ
    Blend: CC-PVTZ
  Basis Set: (CC-PVTZ AUX)
    Blend: CC-PVTZ-JKFIT
  @DF-UKS Final Energy:  -129.94039679091560
    Total Energy =                       -129.9403967909155995
 Dipole X            :          0.0000000            0.0000000            0.0000000
 Dipole Y            :          0.0000000            0.0000000            0.0000000
 Dipole Z            :         -0.0302632           -0.0043752           -0.0346384
 Magnitude           :                                                    0.0346384
    Molecular point group: c2v
  Basis Set: CC-PVTZ
    Blend: CC-PVTZ
  Basis Set: (CC-PVTZ AUX)
    Blend: CC-PVTZ-JKFIT
  Basis Set: CC-PVTZ
    Blend: CC-PVTZ
  Basis Set: (CC-PVTZ AUX)
    Blend: CC-PVTZ-JKFIT
  @DF-UKS Final Energy:  -129.94051350297701
    Total Energy =                       -129.9405135029770122
  Basis Set: CC-PVTZ
    Blend: CC-PVTZ
  Basis Set: (CC-PVTZ AUX)
    Blend: CC-PVTZ-JKFIT
  Basis Set: CC-PVTZ
    Blend: CC-PVTZ
  @DF-UKS Final Energy:  -129.94051777748314
    Total Energy =                       -129.9405177774831373
    Final optimized geometry and variables:
                               Psi4 1.9.1 release
  @DF-UKS Final Energy:  -129.94051777391340
    Total Energy =                       -129.9405177739133990
                               Psi4 1.9.1 release
  @DF-UKS Final Energy:  -129.94051608838237
    Total Energy =                       -129.9405160883823669
                               Psi4 1.9.1 release
  @DF-UKS Final Energy:  -129.94051576025086
    Total Energy =                       -129.9405157602508609
                               Psi4 1.9.1 release
    Blend: CC-PVTZ-JKFIT
  @DF-UKS Final Energy:  -129.94051777171509
    Total Energy =                       -129.9405177717150934
  Basis Set: CC-PVTZ
    Blend: CC-PVTZ
  Basis Set: (CC-PVTZ AUX)
    Blend: CC-PVTZ-JKFIT
                               Psi4 1.9.1 release
  Basis Set: CC-PVTZ
    Blend: CC-PVTZ
  Basis Set: (CC-PVTZ AUX)
    Blend: CC-PVTZ-JKFIT
  @DF-UKS Final Energy:  -129.94051777387489
    Total Energy =                       -129.9405177738748876
    Molecular point group: cs
  Basis Set: CC-PVTZ
    Blend: CC-PVTZ
  Basis Set: (CC-PVTZ AUX)
    Blend: CC-PVTZ-JKFIT

  -Total Gradient:
     Atom            X                  Y                   Z
    ------   -----------------  -----------------  -----------------
       1        0.000000000000     0.000000076138     0.000090105654
       2        0.000000000000    -0.000000074552    -0.000088229196

  Vibration                       6
  Freq [cm^-1]                1977.3493
  Irrep                           A1
  Reduced mass [u]             14.8673
  Force const [mDyne/A]        34.2491

  IR activ [km/mol]            37.5633

  ==> Thermochemistry Components <==

  Entropy, S
    Electronic S                             1.377 [cal/(mol K)]        5.763 [J/(mol K)]       0.00219507 [mEh/K] (multiplicity = 2)
    Translational S                         36.129 [cal/(mol K)]      151.164 [J/(mol K)]       0.05757520 [mEh/K] (mol. weight = 29.9980 [u], P = 101325.00 [Pa])
    Rotational S                            11.510 [cal/(mol K)]       48.156 [J/(mol K)]       0.01834181 [mEh/K] (symmetry no. = 1)
    Vibrational S                            0.002 [cal/(mol K)]        0.006 [J/(mol K)]       0.00000240 [mEh/K]
  Total S                                   49.018 [cal/(mol K)]      205.090 [J/(mol K)]       0.07811447 [mEh/K]
  Correction S                               0.000 [cal/(mol K)]        0.000 [J/(mol K)]       0.00000000 [mEh/K]

  Constant volume heat capacity, Cv
    Electronic Cv                            0.000 [cal/(mol K)]        0.000 [J/(mol K)]       0.00000000 [mEh/K]
    Translational Cv                         2.981 [cal/(mol K)]       12.472 [J/(mol K)]       0.00475022 [mEh/K]
    Rotational Cv                            1.987 [cal/(mol K)]        8.314 [J/(mol K)]       0.00316681 [mEh/K]
    Vibrational Cv                           0.013 [cal/(mol K)]        0.054 [J/(mol K)]       0.00002070 [mEh/K]
  Total Cv                                   4.981 [cal/(mol K)]       20.840 [J/(mol K)]       0.00793772 [mEh/K]
  Correction Cv                              0.000 [cal/(mol K)]        0.000 [J/(mol K)]       0.00000000 [mEh/K]

  Constant pressure heat capacity, Cp
    Electronic Cp                            0.000 [cal/(mol K)]        0.000 [J/(mol K)]       0.00000000 [mEh/K]
    Translational Cp                         4.968 [cal/(mol K)]       20.786 [J/(mol K)]       0.00791703 [mEh/K]
    Rotational Cp                            1.987 [cal/(mol K)]        8.314 [J/(mol K)]       0.00316681 [mEh/K]
    Vibrational Cp                           0.013 [cal/(mol K)]        0.054 [J/(mol K)]       0.00002070 [mEh/K]
  Total Cp                                   6.968 [cal/(mol K)]       29.155 [J/(mol K)]       0.01110453 [mEh/K]
  Correction Cp                              0.000 [cal/(mol K)]        0.000 [J/(mol K)]       0.00000000 [mEh/K]

  ==> Thermochemistry Energy Analysis <==

  Raw electronic energy, E_e
  Total E_e, Electronic energy at well bottom                                          -129.94051777 [Eh]

  Zero-point vibrational energy, ZPVE = Sum_i omega_i / 2,  E_0 = E_e + ZPVE
    Vibrational ZPVE                         2.827 [kcal/mol]       11.827 [kJ/mol]       0.00450473 [Eh]         988.675 [cm^-1]
  Correction ZPVE to E_e                     2.827 [kcal/mol]       11.827 [kJ/mol]       0.00450473 [Eh]         988.675 [cm^-1]
  Total E_0, Enthalpy at 0 [K]                                                         -129.93601304 [Eh]
  *** Absolute enthalpy, not an enthalpy of formation ***

  Thermal (internal) energy, E (includes ZPVE and finite-temperature corrections)
    Electronic contrib to E beyond E_e       0.000 [kcal/mol]        0.000 [kJ/mol]       0.00000000 [Eh]
    Translational contrib to E               0.889 [kcal/mol]        3.718 [kJ/mol]       0.00141628 [Eh]
    Rotational contrib to E                  0.592 [kcal/mol]        2.479 [kJ/mol]       0.00094418 [Eh]
    Vibrational contrib to E                 2.827 [kcal/mol]       11.829 [kJ/mol]       0.00450538 [Eh]
  Correction E                               4.308 [kcal/mol]       18.026 [kJ/mol]       0.00686584 [Eh]
  Total E, Thermal (internal) energy at  298.15 [K]                                    -129.93365193 [Eh]

  Enthalpy, H_trans = E_trans + k_B * T = E_trans + P * V
    Electronic contrib to H beyond E_e       0.000 [kcal/mol]        0.000 [kJ/mol]       0.00000000 [Eh]
    Translational contrib to H               1.481 [kcal/mol]        6.197 [kJ/mol]       0.00236046 [Eh]
    Rotational contrib to H                  0.592 [kcal/mol]        2.479 [kJ/mol]       0.00094418 [Eh]
    Vibrational contrib to H                 2.827 [kcal/mol]       11.829 [kJ/mol]       0.00450538 [Eh]
  Correction H                               4.901 [kcal/mol]       20.505 [kJ/mol]       0.00781003 [Eh]
  Total H, Enthalpy at  298.15 [K]                                                     -129.93270775 [Eh]
  *** Absolute enthalpy, not an enthalpy of formation ***

  Gibbs free energy, G = H - T * S
    Electronic contrib to G beyond E_e      -0.411 [kcal/mol]       -1.718 [kJ/mol]      -0.00065446 [Eh]
    Translational contrib to G              -9.291 [kcal/mol]      -38.872 [kJ/mol]      -0.01480558 [Eh]
    Rotational contrib to G                 -2.839 [kcal/mol]      -11.879 [kJ/mol]      -0.00452443 [Eh]
    Vibrational contrib to G                 2.827 [kcal/mol]       11.827 [kJ/mol]       0.00450467 [Eh]
  Correction G                              -9.714 [kcal/mol]      -40.642 [kJ/mol]      -0.01547980 [Eh]
  Total G, Gibbs energy at  298.15 [K]                                                 -129.95599758 [Eh]

    Molecular point group: c2v

    Geometry (in Angstrom), charge = 0, multiplicity = 2:

       Center              X                  Y                   Z               Mass
    ------------   -----------------  -----------------  -----------------  -----------------
         O            0.000000000000     0.000000000000    -0.534930923314    15.994914619570
         N            0.000000000000     0.000000000000     0.611021154574    14.003074004430

  Charge       = 0
  Multiplicity = 2
  Basis Set: CC-PVTZ
    Blend: CC-PVTZ
  Basis Set: (CC-PVTZ AUX)
    Blend: CC-PVTZ-JKFIT

    Irrep   Nso     Nmo     Nalpha   Nbeta   Ndocc  Nsocc

    Orbital Energies [Eh]
    ---------------------

    Alpha Occupied:

       1A1   -19.269804     2A1   -14.456997     3A1    -1.253753
       4A1    -0.691663     1B1    -0.542926     1B2    -0.515681
       5A1    -0.489998     2B1    -0.218850

    Alpha Virtual:

       2B2    -0.107577     6A1     0.236201     3B1     0.410385
       3B2     0.416757     7A1     0.446881     8A1     0.511160
       9A1     0.574023     4B1     0.593830     4B2     0.601160
       1A2     0.920716    10A1     0.922516     5B1     1.125171
       5B2     1.125880    11A1     1.172479     2A2     1.518413
      12A1     1.519626    13A1     1.633824     6B1     1.995048
       6B2     1.997110    14A1     2.204895     7B1     2.805084
       7B2     2.821654    15A1     3.057680     8B1     3.526701
       8B2     3.534984     3A2     3.755570    16A1     3.757136
       9B1     3.776282     9B2     3.776839    17A1     3.875047
      10B1     4.046507    10B2     4.047222    18A1     4.279989
       4A2     4.351863    19A1     4.357859    11B1     4.723614
      11B2     4.727275    20A1     4.787348    12B1     5.047595
      12B2     5.047717     5A2     5.538102    21A1     5.539225
       6A2     6.147323    22A1     6.149405    23A1     6.279311
      13B1     6.386650    13B2     6.390224    14B2     6.919830
      14B1     6.921794    24A1     6.960266    25A1     7.109148
      26A1    13.375808

    Beta Occupied:

       1A1   -19.259212     2A1   -14.441336     3A1    -1.232823
       4A1    -0.655307     1B2    -0.506125     1B1    -0.469908
       5A1    -0.465808

    Beta Virtual:

       2B2    -0.092113     2B1    -0.050442     6A1     0.243028
       3B2     0.422564     3B1     0.444862     7A1     0.461868
       8A1     0.522688     9A1     0.586873     4B2     0.605019
       4B1     0.622557     1A2     0.947029    10A1     0.947129
       5B2     1.128498     5B1     1.156207    11A1     1.181530
      12A1     1.541520     2A2     1.541706    13A1     1.647858
       6B2     2.000274     6B1     2.023705    14A1     2.217683
       7B2     2.834645     7B1     2.874509    15A1     3.071599
       8B2     3.541587     8B1     3.572579    16A1     3.778839
       3A2     3.778895     9B2     3.820636     9B1     3.820707
      17A1     3.892709    10B2     4.052098    10B1     4.084123
      18A1     4.297301     4A2     4.417207    19A1     4.418985
      11B2     4.732185    11B1     4.766811    20A1     4.803926
      12B2     5.072181    12B1     5.072190     5A2     5.557824
      21A1     5.557958    22A1     6.184801     6A2     6.185000
      23A1     6.291604    13B2     6.394000    13B1     6.423774
      14B2     6.922961    14B1     6.951556    24A1     6.978110
      25A1     7.123018    26A1    13.394663

    Final Occupation by Irrep:
             A1    A2    B1    B2
    DOCC [     5,    0,    1,    1 ]
    SOCC [     0,    0,    1,    0 ]
    NA   [     5,    0,    2,    1 ]
    NB   [     5,    0,    1,    1 ]

  @DF-UKS Final Energy:  -129.94051777391340

   => Energetics <=

    Nuclear Repulsion Energy =             25.8596536184385819
    One-Electron Energy =                -228.1989748862233114
    Two-Electron Energy =                  84.8239176823534393
    DFT Exchange-Correlation Energy =     -12.4251141884821141
    Empirical Dispersion Energy =           0.0000000000000000
    VV10 Nonlocal Energy =                  0.0000000000000000
    Total Energy =                       -129.9405177739133990

  UHF NO Occupations:
  HONO-2 :    5 A1 1.9995258
  HONO-1 :    1 B1 1.9991913
  HONO-0 :    2 B1 1.0000000
  LUNO+0 :    3 B1 0.0008087
  LUNO+1 :    6 A1 0.0004742
  LUNO+2 :    2 B2 0.0001206
  LUNO+3 :    7 A1 0.0000940

Computation Completed

Properties will be evaluated at   0.000000,   0.000000,   0.000000 [a0]

Properties computed using the B3LYP density matrix

 Multipole Moments:

 ------------------------------------------------------------------------------------
     Multipole            Electronic (a.u.)      Nuclear  (a.u.)        Total (a.u.)
 ------------------------------------------------------------------------------------

 L = 1.  Multiply by 2.5417464519 to convert [e a0] to [Debye]
 Dipole X            :          0.0000000            0.0000000            0.0000000
 Dipole Y            :          0.0000000            0.0000000            0.0000000
 Dipole Z            :         -0.0383382           -0.0043451           -0.0426833
 Magnitude           :                                                    0.0426833

 L = 2.  Multiply by 1.3450342976 to convert [e a0^2] to [Debye ang]
 Quadrupole XX       :         -7.9135479            0.0000000           -7.9135479
 Quadrupole XY       :          0.0000000            0.0000000            0.0000000
 Quadrupole XZ       :          0.0000000            0.0000000            0.0000000
 Quadrupole YY       :         -7.0975210            0.0000000           -7.0975210
 Quadrupole YZ       :          0.0000000            0.0000000            0.0000000
 Quadrupole ZZ       :        -25.9121126           17.5076335           -8.4044791
 Traceless XX        :          5.7275126           -5.8358778           -0.1083652
 Traceless YY        :          6.5435395           -5.8358778            0.7076617
 Traceless ZZ        :        -12.2710521           11.6717557           -0.5992965

 ------------------------------------------------------------------------------------
  Mulliken Charges: (a.u.)
   Center  Symbol    Alpha    Beta     Spin     Total
       1     O     4.15325  3.84269  0.31056  0.00407
       2     N     3.84675  3.15731  0.68944 -0.00407

   Total alpha =  8.00000, Total beta =  7.00000, Total charge =  0.00000

*** tstop() called on Mac.lan at Sun Aug 10 17:19:24 2025
Module time:
	user time   =      15.60 seconds =       0.26 minutes
	system time =       0.99 seconds =       0.02 minutes
	total time  =          2 seconds =       0.03 minutes
Total time:
	user time   =     169.56 seconds =       2.83 minutes
	system time =      14.48 seconds =       0.24 minutes
	total time  =         18 seconds =       0.30 minutes

    Psi4 stopped on: Sunday, 10 August 2025 05:19PM
    Psi4 wall time for execution: 0:00:18.26

*** Psi4 exiting successfully. Buy a developer a beer!
