                               Psi4 1.9.1 release

  ==> Input File <==

--------------------------------------------------------------------------
molecule {
0 2
O           0.000000           0.000000           0.000000
H           0.000000           0.000000           0.983458
}

set {
basis              cc-pvtz
reference          uks
maxiter            500
DAMPING_PERCENTAGE 1
E_CONVERGENCE      1.0E-8
D_CONVERGENCE      1.0E-8
DIIS_MAX_VECS      400
MBIS_MAXITER       8000
guess              SAP
}

E, wfn = optimize('b3lyp', return_wfn=True)
frequencies('b3lyp', wfn=wfn, return_wfn=True)
properties('b3lyp','MULLIKEN_CHARGES', wfn=wfn)
--------------------------------------------------------------------------

    Molecular point group: c2v
  Charge       = 0
  Multiplicity = 2
  Basis Set: CC-PVTZ
    Blend: CC-PVTZ
  Basis Set: (CC-PVTZ AUX)
    Blend: CC-PVTZ-JKFIT
  @DF-UKS Final Energy:   -75.76406825432413
    Total Energy =                        -75.7640682543241297
 Dipole X            :          0.0000000            0.0000000            0.0000000
 Dipole Y            :          0.0000000            0.0000000            0.0000000
 Dipole Z            :         -0.2013728            0.8670331            0.6656604
 Magnitude           :                                                    0.6656604
    Molecular point group: c2v
  Basis Set: CC-PVTZ
    Blend: CC-PVTZ
  Basis Set: (CC-PVTZ AUX)
    Blend: CC-PVTZ-JKFIT
  Basis Set: CC-PVTZ
    Blend: CC-PVTZ
  Basis Set: (CC-PVTZ AUX)
    Blend: CC-PVTZ-JKFIT
  @DF-UKS Final Energy:   -75.76413496125831
    Total Energy =                        -75.7641349612583070
  Basis Set: CC-PVTZ
    Blend: CC-PVTZ
  Basis Set: (CC-PVTZ AUX)
    Blend: CC-PVTZ-JKFIT
  Basis Set: CC-PVTZ
    Blend: CC-PVTZ
  @DF-UKS Final Energy:   -75.76413522671308
    Total Energy =                        -75.7641352267130799
    Final optimized geometry and variables:
                               Psi4 1.9.1 release
  @DF-UKS Final Energy:   -75.76413522863609
    Total Energy =                        -75.7641352286360643
                               Psi4 1.9.1 release
  @DF-UKS Final Energy:   -75.76412888502701
    Total Energy =                        -75.7641288850270058
                               Psi4 1.9.1 release
  @DF-UKS Final Energy:   -75.76412864142468
    Total Energy =                        -75.7641286414246906
                               Psi4 1.9.1 release
    Blend: CC-PVTZ-JKFIT
  @DF-UKS Final Energy:   -75.76413522866002
    Total Energy =                        -75.7641352286600238
  Basis Set: CC-PVTZ
    Blend: CC-PVTZ
  Basis Set: (CC-PVTZ AUX)
    Blend: CC-PVTZ-JKFIT
                               Psi4 1.9.1 release
  Basis Set: CC-PVTZ
    Blend: CC-PVTZ
  Basis Set: (CC-PVTZ AUX)
    Blend: CC-PVTZ-JKFIT
  @DF-UKS Final Energy:   -75.76413522865973
    Total Energy =                        -75.7641352286597254
    Molecular point group: cs
  Basis Set: CC-PVTZ
    Blend: CC-PVTZ
  Basis Set: (CC-PVTZ AUX)
    Blend: CC-PVTZ-JKFIT

  -Total Gradient:
     Atom            X                  Y                   Z
    ------   -----------------  -----------------  -----------------
       1        0.000000000000     0.000000034880     0.000012509930
       2        0.000000000000    -0.000000033420    -0.000011986550

  Vibration                       6
  Freq [cm^-1]                3697.0319
  Irrep                           A1
  Reduced mass [u]              1.0671
  Force const [mDyne/A]         8.5933

  IR activ [km/mol]             8.6656

  ==> Thermochemistry Components <==

  Entropy, S
    Electronic S                             1.377 [cal/(mol K)]        5.763 [J/(mol K)]       0.00219507 [mEh/K] (multiplicity = 2)
    Translational S                         34.437 [cal/(mol K)]      144.083 [J/(mol K)]       0.05487824 [mEh/K] (mol. weight = 17.0027 [u], P = 101325.00 [Pa])
    Rotational S                             6.765 [cal/(mol K)]       28.304 [J/(mol K)]       0.01078060 [mEh/K] (symmetry no. = 1)
    Vibrational S                            0.000 [cal/(mol K)]        0.000 [J/(mol K)]       0.00000000 [mEh/K]
  Total S                                   42.579 [cal/(mol K)]      178.150 [J/(mol K)]       0.06785390 [mEh/K]
  Correction S                               0.000 [cal/(mol K)]        0.000 [J/(mol K)]       0.00000000 [mEh/K]

  Constant volume heat capacity, Cv
    Electronic Cv                            0.000 [cal/(mol K)]        0.000 [J/(mol K)]       0.00000000 [mEh/K]
    Translational Cv                         2.981 [cal/(mol K)]       12.472 [J/(mol K)]       0.00475022 [mEh/K]
    Rotational Cv                            1.987 [cal/(mol K)]        8.314 [J/(mol K)]       0.00316681 [mEh/K]
    Vibrational Cv                           0.000 [cal/(mol K)]        0.000 [J/(mol K)]       0.00000002 [mEh/K]
  Total Cv                                   4.968 [cal/(mol K)]       20.786 [J/(mol K)]       0.00791704 [mEh/K]
  Correction Cv                              0.000 [cal/(mol K)]        0.000 [J/(mol K)]       0.00000000 [mEh/K]

  Constant pressure heat capacity, Cp
    Electronic Cp                            0.000 [cal/(mol K)]        0.000 [J/(mol K)]       0.00000000 [mEh/K]
    Translational Cp                         4.968 [cal/(mol K)]       20.786 [J/(mol K)]       0.00791703 [mEh/K]
    Rotational Cp                            1.987 [cal/(mol K)]        8.314 [J/(mol K)]       0.00316681 [mEh/K]
    Vibrational Cp                           0.000 [cal/(mol K)]        0.000 [J/(mol K)]       0.00000002 [mEh/K]
  Total Cp                                   6.955 [cal/(mol K)]       29.101 [J/(mol K)]       0.01108385 [mEh/K]
  Correction Cp                              0.000 [cal/(mol K)]        0.000 [J/(mol K)]       0.00000000 [mEh/K]

  ==> Thermochemistry Energy Analysis <==

  Raw electronic energy, E_e
  Total E_e, Electronic energy at well bottom                                           -75.76413523 [Eh]

  Zero-point vibrational energy, ZPVE = Sum_i omega_i / 2,  E_0 = E_e + ZPVE
    Vibrational ZPVE                         5.285 [kcal/mol]       22.113 [kJ/mol]       0.00842246 [Eh]        1848.516 [cm^-1]
  Correction ZPVE to E_e                     5.285 [kcal/mol]       22.113 [kJ/mol]       0.00842246 [Eh]        1848.516 [cm^-1]
  Total E_0, Enthalpy at 0 [K]                                                          -75.75571277 [Eh]
  *** Absolute enthalpy, not an enthalpy of formation ***

  Thermal (internal) energy, E (includes ZPVE and finite-temperature corrections)
    Electronic contrib to E beyond E_e       0.000 [kcal/mol]        0.000 [kJ/mol]       0.00000000 [Eh]
    Translational contrib to E               0.889 [kcal/mol]        3.718 [kJ/mol]       0.00141628 [Eh]
    Rotational contrib to E                  0.592 [kcal/mol]        2.479 [kJ/mol]       0.00094418 [Eh]
    Vibrational contrib to E                 5.285 [kcal/mol]       22.113 [kJ/mol]       0.00842246 [Eh]
  Correction E                               6.766 [kcal/mol]       28.311 [kJ/mol]       0.01078292 [Eh]
  Total E, Thermal (internal) energy at  298.15 [K]                                     -75.75335231 [Eh]

  Enthalpy, H_trans = E_trans + k_B * T = E_trans + P * V
    Electronic contrib to H beyond E_e       0.000 [kcal/mol]        0.000 [kJ/mol]       0.00000000 [Eh]
    Translational contrib to H               1.481 [kcal/mol]        6.197 [kJ/mol]       0.00236046 [Eh]
    Rotational contrib to H                  0.592 [kcal/mol]        2.479 [kJ/mol]       0.00094418 [Eh]
    Vibrational contrib to H                 5.285 [kcal/mol]       22.113 [kJ/mol]       0.00842246 [Eh]
  Correction H                               7.359 [kcal/mol]       30.790 [kJ/mol]       0.01172710 [Eh]
  Total H, Enthalpy at  298.15 [K]                                                      -75.75240812 [Eh]
  *** Absolute enthalpy, not an enthalpy of formation ***

  Gibbs free energy, G = H - T * S
    Electronic contrib to G beyond E_e      -0.411 [kcal/mol]       -1.718 [kJ/mol]      -0.00065446 [Eh]
    Translational contrib to G              -8.786 [kcal/mol]      -36.761 [kJ/mol]      -0.01400148 [Eh]
    Rotational contrib to G                 -1.424 [kcal/mol]       -5.960 [kJ/mol]      -0.00227005 [Eh]
    Vibrational contrib to G                 5.285 [kcal/mol]       22.113 [kJ/mol]       0.00842246 [Eh]
  Correction G                              -5.336 [kcal/mol]      -22.326 [kJ/mol]      -0.00850354 [Eh]
  Total G, Gibbs energy at  298.15 [K]                                                  -75.77263877 [Eh]

    Molecular point group: c2v

    Geometry (in Angstrom), charge = 0, multiplicity = 2:

       Center              X                  Y                   Z               Mass
    ------------   -----------------  -----------------  -----------------  -----------------
         O            0.000000000000     0.000000000000    -0.057769029730    15.994914619570
         H            0.000000000000     0.000000000000     0.916836423630     1.007825032230

  Charge       = 0
  Multiplicity = 2
  Basis Set: CC-PVTZ
    Blend: CC-PVTZ
  Basis Set: (CC-PVTZ AUX)
    Blend: CC-PVTZ-JKFIT

    Irrep   Nso     Nmo     Nalpha   Nbeta   Ndocc  Nsocc

    Orbital Energies [Eh]
    ---------------------

    Alpha Occupied:

       1A1   -19.196562     2A1    -1.017594     3A1    -0.477201
       1B2    -0.416892     1B1    -0.344052

    Alpha Virtual:

       4A1     0.028577     5A1     0.366449     6A1     0.516139
       2B2     0.527172     2B1     0.562681     3B2     0.688460
       3B1     0.704218     7A1     0.871552     8A1     1.246679
       1A2     1.419438     9A1     1.419892     4B2     1.727684
       4B1     1.766147    10A1     1.878257    11A1     2.423478
       2A2     3.183234    12A1     3.183392     5B2     3.309148
       5B1     3.346691     6B2     3.598226     6B1     3.626180
      13A1     3.671849     7B2     4.026419     7B1     4.060458
      14A1     4.303731    15A1     4.655679     8B2     5.068982
       8B1     5.069241     3A2     5.337484    16A1     5.338159
      17A1     6.137073     4A2     6.137478     9B2     6.254749
       9B1     6.312624    18A1     6.345609    10B2     6.550643
      10B1     6.595285    19A1     6.968534    20A1    10.122537

    Beta Occupied:

       1A1   -19.171221     2A1    -0.947143     3A1    -0.451715
       1B1    -0.318504

    Beta Virtual:

       1B2    -0.169875     4A1     0.035202     5A1     0.372687
       6A1     0.524096     2B1     0.573031     2B2     0.599882
       3B1     0.703317     3B2     0.703377     7A1     0.900216
       8A1     1.258142     1A2     1.471584     9A1     1.477551
       4B1     1.772238     4B2     1.777752    10A1     1.892148
      11A1     2.430284     2A2     3.188800    12A1     3.189460
       5B1     3.353072     5B2     3.367156     6B1     3.629904
       6B2     3.640691    13A1     3.675861     7B1     4.066348
       7B2     4.072076    14A1     4.326469    15A1     4.685017
       8B1     5.139121     8B2     5.142109     3A2     5.382754
      16A1     5.387788     4A2     6.229296    17A1     6.243668
       9B1     6.326646     9B2     6.348093    18A1     6.370304
      10B1     6.601676    10B2     6.605454    19A1     6.996725
      20A1    10.157472

    Final Occupation by Irrep:
             A1    A2    B1    B2
    DOCC [     3,    0,    1,    0 ]
    SOCC [     0,    0,    0,    1 ]
    NA   [     3,    0,    1,    1 ]
    NB   [     3,    0,    1,    0 ]

  @DF-UKS Final Energy:   -75.76413522863609

   => Energetics <=

    Nuclear Repulsion Energy =              4.3437246023660983
    One-Electron Energy =                -112.7062451873710813
    Two-Electron Energy =                  39.7897804962367800
    DFT Exchange-Correlation Energy =      -7.1913951398678719
    Empirical Dispersion Energy =           0.0000000000000000
    VV10 Nonlocal Energy =                  0.0000000000000000
    Total Energy =                        -75.7641352286360643

  UHF NO Occupations:
  HONO-2 :    2 A1 1.9997392
  HONO-1 :    3 A1 1.9993108
  HONO-0 :    1 B2 1.0000000
  LUNO+0 :    4 A1 0.0006892
  LUNO+1 :    5 A1 0.0002608
  LUNO+2 :    2 B1 0.0001550
  LUNO+3 :    6 A1 0.0000006

Computation Completed

Properties will be evaluated at   0.000000,   0.000000,   0.000000 [a0]

Properties computed using the B3LYP density matrix

 Multipole Moments:

 ------------------------------------------------------------------------------------
     Multipole            Electronic (a.u.)      Nuclear  (a.u.)        Total (a.u.)
 ------------------------------------------------------------------------------------

 L = 1.  Multiply by 2.5417464519 to convert [e a0] to [Debye]
 Dipole X            :          0.0000000            0.0000000            0.0000000
 Dipole Y            :          0.0000000            0.0000000            0.0000000
 Dipole Z            :         -0.1950896            0.8592286            0.6641390
 Magnitude           :                                                    0.6641390

 L = 2.  Multiply by 1.3450342976 to convert [e a0^2] to [Debye ang]
 Quadrupole XX       :         -4.9036061            0.0000000           -4.9036061
 Quadrupole XY       :          0.0000000            0.0000000            0.0000000
 Quadrupole XZ       :          0.0000000            0.0000000            0.0000000
 Quadrupole YY       :         -4.0091152            0.0000000           -4.0091152
 Quadrupole YZ       :          0.0000000            0.0000000            0.0000000
 Quadrupole ZZ       :         -6.3610618            3.0971385           -3.2639233
 Traceless XX        :          0.1876549           -1.0323795           -0.8447246
 Traceless YY        :          1.0821458           -1.0323795            0.0497663
 Traceless ZZ        :         -1.2698008            2.0647590            0.7949582

 ------------------------------------------------------------------------------------
  Mulliken Charges: (a.u.)
   Center  Symbol    Alpha    Beta     Spin     Total
       1     O     4.62436  3.61010  1.01426 -0.23445
       2     H     0.37564  0.38990 -0.01426  0.23445

   Total alpha =  5.00000, Total beta =  4.00000, Total charge =  0.00000

*** tstop() called on Mac.lan at Sun Aug 10 17:10:14 2025
Module time:
	user time   =      10.93 seconds =       0.18 minutes
	system time =       1.18 seconds =       0.02 minutes
	total time  =          1 seconds =       0.02 minutes
Total time:
	user time   =     128.89 seconds =       2.15 minutes
	system time =      14.44 seconds =       0.24 minutes
	total time  =         14 seconds =       0.23 minutes

    Psi4 stopped on: Sunday, 10 August 2025 05:10PM
    Psi4 wall time for execution: 0:00:14.84

*** Psi4 exiting successfully. Buy a developer a beer!
