                               Psi4 1.9.1 release

  ==> Input File <==

--------------------------------------------------------------------------
molecule {
0 3
C           0.000000           0.000000           0.000000
C           0.000000           0.000000           1.315773
}

set {
basis              cc-pvtz
reference          uks
maxiter            500
DAMPING_PERCENTAGE 1
E_CONVERGENCE      1.0E-8
D_CONVERGENCE      1.0E-8
DIIS_MAX_VECS      400
MBIS_MAXITER       8000
guess              SAP
}

E, wfn = optimize('b3lyp', return_wfn=True)
frequencies('b3lyp', wfn=wfn, return_wfn=True)
properties('b3lyp','MULLIKEN_CHARGES', wfn=wfn)
--------------------------------------------------------------------------

    Molecular point group: d2h
  Charge       = 0
  Multiplicity = 3
  Basis Set: CC-PVTZ
    Blend: CC-PVTZ
  Basis Set: (CC-PVTZ AUX)
    Blend: CC-PVTZ-JKFIT
  @DF-UKS Final Energy:   -75.94389029243048
    Total Energy =                        -75.9438902924304955
 Dipole X            :          0.0000000            0.0000000            0.0000000
 Dipole Y            :          0.0000000            0.0000000            0.0000000
 Dipole Z            :          0.0000000            0.0000000            0.0000000
 Magnitude           :                                                    0.0000000
    Molecular point group: d2h
  Basis Set: CC-PVTZ
    Blend: CC-PVTZ
  Basis Set: (CC-PVTZ AUX)
    Blend: CC-PVTZ-JKFIT
  Basis Set: CC-PVTZ
    Blend: CC-PVTZ
  Basis Set: (CC-PVTZ AUX)
    Blend: CC-PVTZ-JKFIT
  @DF-UKS Final Energy:   -75.94411509666622
    Total Energy =                        -75.9441150966662235
  Basis Set: CC-PVTZ
    Blend: CC-PVTZ
  Basis Set: (CC-PVTZ AUX)
    Blend: CC-PVTZ-JKFIT
    Final optimized geometry and variables:
                               Psi4 1.9.1 release
  Basis Set: CC-PVTZ
    Blend: CC-PVTZ
  @DF-UKS Final Energy:   -75.94411509633252
    Total Energy =                        -75.9441150963325100
                               Psi4 1.9.1 release
  @DF-UKS Final Energy:   -75.94411340642839
    Total Energy =                        -75.9441134064284000
                               Psi4 1.9.1 release
  @DF-UKS Final Energy:   -75.94411407173853
    Total Energy =                        -75.9441140717385252
                               Psi4 1.9.1 release
    Blend: CC-PVTZ-JKFIT
  @DF-UKS Final Energy:   -75.94411507394975
    Total Energy =                        -75.9441150739497601
  Basis Set: CC-PVTZ
    Blend: CC-PVTZ
  Basis Set: (CC-PVTZ AUX)
    Blend: CC-PVTZ-JKFIT
                               Psi4 1.9.1 release
  Basis Set: CC-PVTZ
    Blend: CC-PVTZ
  Basis Set: (CC-PVTZ AUX)
    Blend: CC-PVTZ-JKFIT
  @DF-UKS Final Energy:   -75.94411509615354
    Total Energy =                        -75.9441150961535243
    Molecular point group: c2h
  Basis Set: CC-PVTZ
    Blend: CC-PVTZ
  Basis Set: (CC-PVTZ AUX)
    Blend: CC-PVTZ-JKFIT

  -Total Gradient:
     Atom            X                  Y                   Z
    ------   -----------------  -----------------  -----------------
       1       -0.000000000000    -0.000000135550    -0.000163362261
       2        0.000000000000     0.000000135550     0.000163362261

  Vibration                       6
  Freq [cm^-1]                1693.8857
  Irrep                           Ag
  Reduced mass [u]             12.0000
  Force const [mDyne/A]        20.2862

  IR activ [km/mol]             0.0000

  ==> Thermochemistry Components <==

  Entropy, S
    Electronic S                             2.183 [cal/(mol K)]        9.134 [J/(mol K)]       0.00347910 [mEh/K] (multiplicity = 3)
    Translational S                         35.464 [cal/(mol K)]      148.382 [J/(mol K)]       0.05651554 [mEh/K] (mol. weight = 24.0000 [u], P = 101325.00 [Pa])
    Rotational S                            10.205 [cal/(mol K)]       42.696 [J/(mol K)]       0.01626196 [mEh/K] (symmetry no. = 2)
    Vibrational S                            0.005 [cal/(mol K)]        0.022 [J/(mol K)]       0.00000819 [mEh/K]
  Total S                                   47.857 [cal/(mol K)]      200.233 [J/(mol K)]       0.07626478 [mEh/K]
  Correction S                               0.000 [cal/(mol K)]        0.000 [J/(mol K)]       0.00000000 [mEh/K]

  Constant volume heat capacity, Cv
    Electronic Cv                            0.000 [cal/(mol K)]        0.000 [J/(mol K)]       0.00000000 [mEh/K]
    Translational Cv                         2.981 [cal/(mol K)]       12.472 [J/(mol K)]       0.00475022 [mEh/K]
    Rotational Cv                            1.987 [cal/(mol K)]        8.314 [J/(mol K)]       0.00316681 [mEh/K]
    Vibrational Cv                           0.037 [cal/(mol K)]        0.157 [J/(mol K)]       0.00005967 [mEh/K]
  Total Cv                                   5.005 [cal/(mol K)]       20.943 [J/(mol K)]       0.00797670 [mEh/K]
  Correction Cv                              0.000 [cal/(mol K)]        0.000 [J/(mol K)]       0.00000000 [mEh/K]

  Constant pressure heat capacity, Cp
    Electronic Cp                            0.000 [cal/(mol K)]        0.000 [J/(mol K)]       0.00000000 [mEh/K]
    Translational Cp                         4.968 [cal/(mol K)]       20.786 [J/(mol K)]       0.00791703 [mEh/K]
    Rotational Cp                            1.987 [cal/(mol K)]        8.314 [J/(mol K)]       0.00316681 [mEh/K]
    Vibrational Cp                           0.037 [cal/(mol K)]        0.157 [J/(mol K)]       0.00005967 [mEh/K]
  Total Cp                                   6.993 [cal/(mol K)]       29.257 [J/(mol K)]       0.01114351 [mEh/K]
  Correction Cp                              0.000 [cal/(mol K)]        0.000 [J/(mol K)]       0.00000000 [mEh/K]

  ==> Thermochemistry Energy Analysis <==

  Raw electronic energy, E_e
  Total E_e, Electronic energy at well bottom                                           -75.94411510 [Eh]

  Zero-point vibrational energy, ZPVE = Sum_i omega_i / 2,  E_0 = E_e + ZPVE
    Vibrational ZPVE                         2.422 [kcal/mol]       10.132 [kJ/mol]       0.00385896 [Eh]         846.943 [cm^-1]
  Correction ZPVE to E_e                     2.422 [kcal/mol]       10.132 [kJ/mol]       0.00385896 [Eh]         846.943 [cm^-1]
  Total E_0, Enthalpy at 0 [K]                                                          -75.94025614 [Eh]
  *** Absolute enthalpy, not an enthalpy of formation ***

  Thermal (internal) energy, E (includes ZPVE and finite-temperature corrections)
    Electronic contrib to E beyond E_e       0.000 [kcal/mol]        0.000 [kJ/mol]       0.00000000 [Eh]
    Translational contrib to E               0.889 [kcal/mol]        3.718 [kJ/mol]       0.00141628 [Eh]
    Rotational contrib to E                  0.592 [kcal/mol]        2.479 [kJ/mol]       0.00094418 [Eh]
    Vibrational contrib to E                 2.423 [kcal/mol]       10.137 [kJ/mol]       0.00386113 [Eh]
  Correction E                               3.904 [kcal/mol]       16.335 [kJ/mol]       0.00622159 [Eh]
  Total E, Thermal (internal) energy at  298.15 [K]                                     -75.93789350 [Eh]

  Enthalpy, H_trans = E_trans + k_B * T = E_trans + P * V
    Electronic contrib to H beyond E_e       0.000 [kcal/mol]        0.000 [kJ/mol]       0.00000000 [Eh]
    Translational contrib to H               1.481 [kcal/mol]        6.197 [kJ/mol]       0.00236046 [Eh]
    Rotational contrib to H                  0.592 [kcal/mol]        2.479 [kJ/mol]       0.00094418 [Eh]
    Vibrational contrib to H                 2.423 [kcal/mol]       10.137 [kJ/mol]       0.00386113 [Eh]
  Correction H                               4.497 [kcal/mol]       18.814 [kJ/mol]       0.00716578 [Eh]
  Total H, Enthalpy at  298.15 [K]                                                      -75.93694932 [Eh]
  *** Absolute enthalpy, not an enthalpy of formation ***

  Gibbs free energy, G = H - T * S
    Electronic contrib to G beyond E_e      -0.651 [kcal/mol]       -2.723 [kJ/mol]      -0.00103729 [Eh]
    Translational contrib to G              -9.092 [kcal/mol]      -38.043 [kJ/mol]      -0.01448965 [Eh]
    Rotational contrib to G                 -2.450 [kcal/mol]      -10.251 [kJ/mol]      -0.00390432 [Eh]
    Vibrational contrib to G                 2.421 [kcal/mol]       10.131 [kJ/mol]       0.00385869 [Eh]
  Correction G                              -9.772 [kcal/mol]      -40.886 [kJ/mol]      -0.01557257 [Eh]
  Total G, Gibbs energy at  298.15 [K]                                                  -75.95968766 [Eh]

    Molecular point group: d2h

    Geometry (in Angstrom), charge = 0, multiplicity = 3:

       Center              X                  Y                   Z               Mass
    ------------   -----------------  -----------------  -----------------  -----------------
         C            0.000000000000     0.000000000000    -0.650904397798    12.000000000000
         C            0.000000000000     0.000000000000     0.650904397798    12.000000000000

  Charge       = 0
  Multiplicity = 3
  Basis Set: CC-PVTZ
    Blend: CC-PVTZ
  Basis Set: (CC-PVTZ AUX)
    Blend: CC-PVTZ-JKFIT

    Irrep   Nso     Nmo     Nalpha   Nbeta   Ndocc  Nsocc

    Orbital Energies [Eh]
    ---------------------

    Alpha Occupied:

       1Ag   -10.291407     1B1u  -10.290140     2Ag    -0.831026
       2B1u   -0.454906     1B2u   -0.374137     3Ag    -0.359684
       1B3u   -0.338838

    Alpha Virtual:

       1B3g   -0.050621     1B2g   -0.023347     3B1u    0.178910
       2B2u    0.255022     4Ag     0.267657     2B3u    0.270267
       5Ag     0.323617     2B3g    0.356559     2B2g    0.370379
       4B1u    0.467756     1B1g    0.543913     6Ag     0.544638
       5B1u    0.611895     3B2u    0.708996     3B3u    0.732906
       1Au     0.839723     6B1u    0.840219     3B3g    1.113666
       3B2g    1.129221     7Ag     1.138278     7B1u    1.295208
       4B2u    1.883568     4B3u    1.909720     8Ag     2.002018
       4B3g    2.121208     4B2g    2.149350     8B1u    2.336118
       2B1g    2.376896     9Ag     2.377734     5B2u    2.408130
       5B3u    2.437874     6B2u    2.479672     6B3u    2.479853
      10Ag     2.663742     5B3g    2.820777     5B2g    2.820891
       3B1g    2.892062    11Ag     2.892528     6B3g    2.981644
       9B1u    2.984047     2Au     2.984270     6B2g    3.001442
      10B1u    3.177657     7B2u    3.365775     7B3u    3.391167
       3Au     3.406000    11B1u    3.406960    12Ag     3.639607
      12B1u    3.856152     7B3g    4.428418     7B2g    4.456575
      13Ag     4.526622    13B1u   11.307220

    Beta Occupied:

       1Ag   -10.275053     1B1u  -10.274106     2Ag    -0.762688
       2B1u   -0.366040     1B3u   -0.320169

    Beta Virtual:

       1B2u   -0.224202     3Ag    -0.209580     1B2g   -0.001327
       1B3g    0.023370     3B1u    0.191680     2B3u    0.276194
       2B2u    0.285798     4Ag     0.289963     5Ag     0.359078
       2B2g    0.378143     2B3g    0.387993     4B1u    0.528493
       1B1g    0.572008     6Ag     0.574610     5B1u    0.633788
       3B3u    0.760734     3B2u    0.765577     1Au     0.864014
       6B1u    0.865990     3B2g    1.149883     3B3g    1.152668
       7Ag     1.178668     7B1u    1.338562     4B3u    1.922778
       4B2u    1.935883     8Ag     2.049981     4B2g    2.161836
       4B3g    2.171579     8B1u    2.385008     2B1g    2.417996
       9Ag     2.420736     5B3u    2.471285     5B2u    2.483980
       6B3u    2.514342     6B2u    2.515296    10Ag     2.736084
       5B2g    2.854737     5B3g    2.855693     3B1g    2.938154
      11Ag     2.942760     2Au     3.027576     9B1u    3.032180
       6B2g    3.049832     6B3g    3.058418    10B1u    3.234963
       7B3u    3.434670     7B2u    3.441035     3Au     3.447833
      11B1u    3.450643    12Ag     3.681817    12B1u    3.916723
       7B2g    4.486573     7B3g    4.496337    13Ag     4.569484
      13B1u   11.334390

    Final Occupation by Irrep:
             Ag   B1g   B2g   B3g    Au   B1u   B2u   B3u
    DOCC [     2,    0,    0,    0,    0,    2,    0,    1 ]
    SOCC [     1,    0,    0,    0,    0,    0,    1,    0 ]
    NA   [     3,    0,    0,    0,    0,    2,    1,    1 ]
    NB   [     2,    0,    0,    0,    0,    2,    0,    1 ]

  @DF-UKS Final Energy:   -75.94411509633252

   => Energetics <=

    Nuclear Repulsion Energy =             14.6337769790611354
    One-Electron Energy =                -130.0427779167088431
    Two-Electron Energy =                  48.0281370741586997
    DFT Exchange-Correlation Energy =      -8.5632512328435109
    Empirical Dispersion Energy =           0.0000000000000000
    VV10 Nonlocal Energy =                  0.0000000000000000
    Total Energy =                        -75.9441150963325100

  UHF NO Occupations:
  HONO-2 :    2B1u 1.9984566
  HONO-1 :    1B2u 1.0000000
  HONO-0 :    3 Ag 1.0000000
  LUNO+0 :    3B1u 0.0015434
  LUNO+1 :    4 Ag 0.0003751
  LUNO+2 :    2B3u 0.0001539
  LUNO+3 :    4B1u 0.0000006

Computation Completed

Properties will be evaluated at   0.000000,   0.000000,   0.000000 [a0]

Properties computed using the B3LYP density matrix

 Multipole Moments:

 ------------------------------------------------------------------------------------
     Multipole            Electronic (a.u.)      Nuclear  (a.u.)        Total (a.u.)
 ------------------------------------------------------------------------------------

 L = 1.  Multiply by 2.5417464519 to convert [e a0] to [Debye]
 Dipole X            :          0.0000000            0.0000000            0.0000000
 Dipole Y            :          0.0000000            0.0000000            0.0000000
 Dipole Z            :          0.0000000           -0.0000000           -0.0000000
 Magnitude           :                                                    0.0000000

 L = 2.  Multiply by 1.3450342976 to convert [e a0^2] to [Debye ang]
 Quadrupole XX       :         -9.3115158            0.0000000           -9.3115158
 Quadrupole XY       :          0.0000000            0.0000000            0.0000000
 Quadrupole XZ       :          0.0000000            0.0000000            0.0000000
 Quadrupole YY       :         -7.8684830            0.0000000           -7.8684830
 Quadrupole YZ       :          0.0000000            0.0000000            0.0000000
 Quadrupole ZZ       :        -27.3024478           18.1557165           -9.1467313
 Traceless XX        :          5.5159664           -6.0519055           -0.5359391
 Traceless YY        :          6.9589992           -6.0519055            0.9070937
 Traceless ZZ        :        -12.4749656           12.1038110           -0.3711546

 ------------------------------------------------------------------------------------
  Mulliken Charges: (a.u.)
   Center  Symbol    Alpha    Beta     Spin     Total
       1     C     3.50000  2.50000  1.00000  0.00000
       2     C     3.50000  2.50000  1.00000  0.00000

   Total alpha =  7.00000, Total beta =  5.00000, Total charge =  0.00000

*** tstop() called on Mac.lan at Sun Aug 10 17:02:57 2025
Module time:
	user time   =      15.23 seconds =       0.25 minutes
	system time =       1.37 seconds =       0.02 minutes
	total time  =          2 seconds =       0.03 minutes
Total time:
	user time   =     155.05 seconds =       2.58 minutes
	system time =      15.97 seconds =       0.27 minutes
	total time  =         17 seconds =       0.28 minutes

    Psi4 stopped on: Sunday, 10 August 2025 05:02PM
    Psi4 wall time for execution: 0:00:17.43

*** Psi4 exiting successfully. Buy a developer a beer!
