                               Psi4 1.9.1 release

  ==> Input File <==

--------------------------------------------------------------------------
molecule {
0 1
N           0.000000           0.000000           0.000000
N           0.000000           0.000000           1.104434
}

set {
basis              cc-pvtz
reference          uks
maxiter            500
DAMPING_PERCENTAGE 1
E_CONVERGENCE      1.0E-8
D_CONVERGENCE      1.0E-8
DIIS_MAX_VECS      400
MBIS_MAXITER       8000
guess              SAP
}

E, wfn = optimize('b3lyp', return_wfn=True)
frequencies('b3lyp', wfn=wfn, return_wfn=True)
properties('b3lyp','MULLIKEN_CHARGES', wfn=wfn)
--------------------------------------------------------------------------

    Molecular point group: d2h
  Charge       = 0
  Multiplicity = 1
  Basis Set: CC-PVTZ
    Blend: CC-PVTZ
  Basis Set: (CC-PVTZ AUX)
    Blend: CC-PVTZ-JKFIT
  @DF-UKS Final Energy:  -109.56794329191445
    Total Energy =                       -109.5679432919144460
 Dipole X            :          0.0000000            0.0000000            0.0000000
 Dipole Y            :          0.0000000            0.0000000            0.0000000
 Dipole Z            :          0.0000000            0.0000000            0.0000000
 Magnitude           :                                                    0.0000000
    Molecular point group: d2h
  Basis Set: CC-PVTZ
    Blend: CC-PVTZ
  Basis Set: (CC-PVTZ AUX)
    Blend: CC-PVTZ-JKFIT
  Basis Set: CC-PVTZ
    Blend: CC-PVTZ
  Basis Set: (CC-PVTZ AUX)
    Blend: CC-PVTZ-JKFIT
  @DF-UKS Final Energy:  -109.56840433630897
    Total Energy =                       -109.5684043363089728
  Basis Set: CC-PVTZ
    Blend: CC-PVTZ
  Basis Set: (CC-PVTZ AUX)
    Blend: CC-PVTZ-JKFIT
  Basis Set: CC-PVTZ
    Blend: CC-PVTZ
  @DF-UKS Final Energy:  -109.56841114683503
    Total Energy =                       -109.5684111468350324
    Final optimized geometry and variables:
                               Psi4 1.9.1 release
  @DF-UKS Final Energy:  -109.56841114674195
    Total Energy =                       -109.5684111467419513
                               Psi4 1.9.1 release
  @DF-UKS Final Energy:  -109.56840872814827
    Total Energy =                       -109.5684087281482704
                               Psi4 1.9.1 release
  @DF-UKS Final Energy:  -109.56840788272974
    Total Energy =                       -109.5684078827297441
                               Psi4 1.9.1 release
    Blend: CC-PVTZ-JKFIT
  @DF-UKS Final Energy:  -109.56841114692976
    Total Energy =                       -109.5684111469297619
  Basis Set: CC-PVTZ
    Blend: CC-PVTZ
  Basis Set: (CC-PVTZ AUX)
    Blend: CC-PVTZ-JKFIT
                               Psi4 1.9.1 release
  Basis Set: CC-PVTZ
    Blend: CC-PVTZ
  Basis Set: (CC-PVTZ AUX)
    Blend: CC-PVTZ-JKFIT
  @DF-UKS Final Energy:  -109.56841114693290
    Total Energy =                       -109.5684111469329025
    Molecular point group: c2h
  Basis Set: CC-PVTZ
    Blend: CC-PVTZ
  Basis Set: (CC-PVTZ AUX)
    Blend: CC-PVTZ-JKFIT

  -Total Gradient:
     Atom            X                  Y                   Z
    ------   -----------------  -----------------  -----------------
       1        0.000000000000     0.000000201787     0.000220228038
       2        0.000000000000    -0.000000201787    -0.000220228038

  Vibration                       6
  Freq [cm^-1]                2450.7687
  Irrep                           Ag
  Reduced mass [u]             14.0031
  Force const [mDyne/A]        49.5540

  IR activ [km/mol]             0.0000

  ==> Thermochemistry Components <==

  Entropy, S
    Electronic S                             0.000 [cal/(mol K)]        0.000 [J/(mol K)]       0.00000000 [mEh/K] (multiplicity = 1)
    Translational S                         35.924 [cal/(mol K)]      150.307 [J/(mol K)]       0.05724883 [mEh/K] (mol. weight = 28.0061 [u], P = 101325.00 [Pa])
    Rotational S                             9.810 [cal/(mol K)]       41.047 [J/(mol K)]       0.01563382 [mEh/K] (symmetry no. = 2)
    Vibrational S                            0.000 [cal/(mol K)]        0.001 [J/(mol K)]       0.00000030 [mEh/K]
  Total S                                   45.735 [cal/(mol K)]      191.354 [J/(mol K)]       0.07288294 [mEh/K]
  Correction S                               0.000 [cal/(mol K)]        0.000 [J/(mol K)]       0.00000000 [mEh/K]

  Constant volume heat capacity, Cv
    Electronic Cv                            0.000 [cal/(mol K)]        0.000 [J/(mol K)]       0.00000000 [mEh/K]
    Translational Cv                         2.981 [cal/(mol K)]       12.472 [J/(mol K)]       0.00475022 [mEh/K]
    Rotational Cv                            1.987 [cal/(mol K)]        8.314 [J/(mol K)]       0.00316681 [mEh/K]
    Vibrational Cv                           0.002 [cal/(mol K)]        0.008 [J/(mol K)]       0.00000324 [mEh/K]
  Total Cv                                   4.970 [cal/(mol K)]       20.795 [J/(mol K)]       0.00792026 [mEh/K]
  Correction Cv                              0.000 [cal/(mol K)]        0.000 [J/(mol K)]       0.00000000 [mEh/K]

  Constant pressure heat capacity, Cp
    Electronic Cp                            0.000 [cal/(mol K)]        0.000 [J/(mol K)]       0.00000000 [mEh/K]
    Translational Cp                         4.968 [cal/(mol K)]       20.786 [J/(mol K)]       0.00791703 [mEh/K]
    Rotational Cp                            1.987 [cal/(mol K)]        8.314 [J/(mol K)]       0.00316681 [mEh/K]
    Vibrational Cp                           0.002 [cal/(mol K)]        0.008 [J/(mol K)]       0.00000324 [mEh/K]
  Total Cp                                   6.957 [cal/(mol K)]       29.109 [J/(mol K)]       0.01108707 [mEh/K]
  Correction Cp                              0.000 [cal/(mol K)]        0.000 [J/(mol K)]       0.00000000 [mEh/K]

  ==> Thermochemistry Energy Analysis <==

  Raw electronic energy, E_e
  Total E_e, Electronic energy at well bottom                                          -109.56841115 [Eh]

  Zero-point vibrational energy, ZPVE = Sum_i omega_i / 2,  E_0 = E_e + ZPVE
    Vibrational ZPVE                         3.504 [kcal/mol]       14.659 [kJ/mol]       0.00558326 [Eh]        1225.384 [cm^-1]
  Correction ZPVE to E_e                     3.504 [kcal/mol]       14.659 [kJ/mol]       0.00558326 [Eh]        1225.384 [cm^-1]
  Total E_0, Enthalpy at 0 [K]                                                         -109.56282788 [Eh]
  *** Absolute enthalpy, not an enthalpy of formation ***

  Thermal (internal) energy, E (includes ZPVE and finite-temperature corrections)
    Electronic contrib to E beyond E_e       0.000 [kcal/mol]        0.000 [kJ/mol]       0.00000000 [Eh]
    Translational contrib to E               0.889 [kcal/mol]        3.718 [kJ/mol]       0.00141628 [Eh]
    Rotational contrib to E                  0.592 [kcal/mol]        2.479 [kJ/mol]       0.00094418 [Eh]
    Vibrational contrib to E                 3.504 [kcal/mol]       14.659 [kJ/mol]       0.00558334 [Eh]
  Correction E                               4.985 [kcal/mol]       20.856 [kJ/mol]       0.00794380 [Eh]
  Total E, Thermal (internal) energy at  298.15 [K]                                    -109.56046734 [Eh]

  Enthalpy, H_trans = E_trans + k_B * T = E_trans + P * V
    Electronic contrib to H beyond E_e       0.000 [kcal/mol]        0.000 [kJ/mol]       0.00000000 [Eh]
    Translational contrib to H               1.481 [kcal/mol]        6.197 [kJ/mol]       0.00236046 [Eh]
    Rotational contrib to H                  0.592 [kcal/mol]        2.479 [kJ/mol]       0.00094418 [Eh]
    Vibrational contrib to H                 3.504 [kcal/mol]       14.659 [kJ/mol]       0.00558334 [Eh]
  Correction H                               5.577 [kcal/mol]       23.335 [kJ/mol]       0.00888799 [Eh]
  Total H, Enthalpy at  298.15 [K]                                                     -109.55952316 [Eh]
  *** Absolute enthalpy, not an enthalpy of formation ***

  Gibbs free energy, G = H - T * S
    Electronic contrib to G beyond E_e       0.000 [kcal/mol]        0.000 [kJ/mol]       0.00000000 [Eh]
    Translational contrib to G              -9.230 [kcal/mol]      -38.617 [kJ/mol]      -0.01470828 [Eh]
    Rotational contrib to G                 -2.332 [kcal/mol]       -9.759 [kJ/mol]      -0.00371704 [Eh]
    Vibrational contrib to G                 3.504 [kcal/mol]       14.659 [kJ/mol]       0.00558326 [Eh]
  Correction G                              -8.059 [kcal/mol]      -33.717 [kJ/mol]      -0.01284206 [Eh]
  Total G, Gibbs energy at  298.15 [K]                                                 -109.58125321 [Eh]

    Molecular point group: d2h

    Geometry (in Angstrom), charge = 0, multiplicity = 1:

       Center              X                  Y                   Z               Mass
    ------------   -----------------  -----------------  -----------------  -----------------
         N            0.000000000000     0.000000000000    -0.545663321017    14.003074004430
         N            0.000000000000     0.000000000000     0.545663321017    14.003074004430

  Charge       = 0
  Multiplicity = 1
  Basis Set: CC-PVTZ
    Blend: CC-PVTZ
  Basis Set: (CC-PVTZ AUX)
    Blend: CC-PVTZ-JKFIT

    Irrep   Nso     Nmo     Nalpha   Nbeta   Ndocc  Nsocc

    Orbital Energies [Eh]
    ---------------------

    Alpha Occupied:

       1Ag   -14.419979     1B1u  -14.418101     2Ag    -1.132380
       2B1u   -0.554214     1B2u   -0.471514     1B3u   -0.471514
       3Ag    -0.434569

    Alpha Virtual:

       1B3g   -0.025226     1B2g   -0.025226     3B1u    0.294221
       2B3u    0.388576     2B2u    0.388576     4Ag     0.409526
       5Ag     0.486630     2B2g    0.532638     2B3g    0.532638
       4B1u    0.694346     1B1g    0.833254     6Ag     0.833254
       5B1u    0.873080     3B2u    1.098452     3B3u    1.098452
       1Au     1.267605     6B1u    1.267605     7Ag     1.680248
       3B2g    1.682867     3B3g    1.682867     7B1u    1.925255
       4B3u    2.738302     4B2u    2.738302     8Ag     2.915479
       4B3g    3.085511     4B2g    3.085511     8B1u    3.355540
       2B1g    3.462950     9Ag     3.462950     5B2u    3.595739
       5B3u    3.595739     6B3u    3.595760     6B2u    3.595760
      10Ag     3.965621     5B3g    4.081633     5B2g    4.081633
       3B1g    4.350097    11Ag     4.350100     6B2g    4.469883
       6B3g    4.469883     2Au     4.484058     9B1u    4.484061
      10B1u    4.638190    11B1u    4.925312     3Au     4.925312
       7B2u    5.003979     7B3u    5.003979    12Ag     5.098420
      12B1u    5.708040     7B3g    6.434401     7B2g    6.434401
      13Ag     6.507786    13B1u   16.150085

    Beta Occupied:

       1Ag   -14.419979     1B1u  -14.418101     2Ag    -1.132380
       2B1u   -0.554214     1B2u   -0.471514     1B3u   -0.471514
       3Ag    -0.434569

    Beta Virtual:

       1B3g   -0.025226     1B2g   -0.025226     3B1u    0.294221
       2B3u    0.388576     2B2u    0.388576     4Ag     0.409526
       5Ag     0.486630     2B2g    0.532638     2B3g    0.532638
       4B1u    0.694346     1B1g    0.833254     6Ag     0.833254
       5B1u    0.873080     3B2u    1.098452     3B3u    1.098452
       1Au     1.267605     6B1u    1.267605     7Ag     1.680248
       3B2g    1.682867     3B3g    1.682867     7B1u    1.925255
       4B3u    2.738302     4B2u    2.738302     8Ag     2.915479
       4B3g    3.085511     4B2g    3.085511     8B1u    3.355540
       2B1g    3.462950     9Ag     3.462950     5B2u    3.595739
       5B3u    3.595739     6B3u    3.595760     6B2u    3.595760
      10Ag     3.965621     5B3g    4.081633     5B2g    4.081633
       3B1g    4.350097    11Ag     4.350100     6B2g    4.469883
       6B3g    4.469883     2Au     4.484058     9B1u    4.484061
      10B1u    4.638190    11B1u    4.925312     3Au     4.925312
       7B2u    5.003979     7B3u    5.003979    12Ag     5.098420
      12B1u    5.708040     7B3g    6.434401     7B2g    6.434401
      13Ag     6.507786    13B1u   16.150085

    Final Occupation by Irrep:
             Ag   B1g   B2g   B3g    Au   B1u   B2u   B3u
    DOCC [     3,    0,    0,    0,    0,    2,    1,    1 ]
    SOCC [     0,    0,    0,    0,    0,    0,    0,    0 ]
    NA   [     3,    0,    0,    0,    0,    2,    1,    1 ]
    NB   [     3,    0,    0,    0,    0,    2,    1,    1 ]

  @DF-UKS Final Energy:  -109.56841114674195

   => Energetics <=

    Nuclear Repulsion Energy =             23.7597821991266294
    One-Electron Energy =                -194.8751959311724988
    Two-Electron Energy =                  72.6347291697945110
    DFT Exchange-Correlation Energy =     -11.0877265844905786
    Empirical Dispersion Energy =           0.0000000000000000
    VV10 Nonlocal Energy =                  0.0000000000000000
    Total Energy =                       -109.5684111467419513

  UHF NO Occupations:
  HONO-2 :    2 Ag 2.0000000
  HONO-1 :    1B2u 2.0000000
  HONO-0 :    3 Ag 2.0000000
  LUNO+0 :    4 Ag 0.0000000
  LUNO+1 :    3B1u 0.0000000
  LUNO+2 :    5 Ag 0.0000000
  LUNO+3 :    2B2u 0.0000000

Computation Completed

Properties will be evaluated at   0.000000,   0.000000,   0.000000 [a0]

Properties computed using the B3LYP density matrix

 Multipole Moments:

 ------------------------------------------------------------------------------------
     Multipole            Electronic (a.u.)      Nuclear  (a.u.)        Total (a.u.)
 ------------------------------------------------------------------------------------

 L = 1.  Multiply by 2.5417464519 to convert [e a0] to [Debye]
 Dipole X            :          0.0000000            0.0000000            0.0000000
 Dipole Y            :          0.0000000            0.0000000            0.0000000
 Dipole Z            :          0.0000000           -0.0000000           -0.0000000
 Magnitude           :                                                    0.0000000

 L = 2.  Multiply by 1.3450342976 to convert [e a0^2] to [Debye ang]
 Quadrupole XX       :         -7.5267707            0.0000000           -7.5267707
 Quadrupole XY       :          0.0000000            0.0000000            0.0000000
 Quadrupole XZ       :          0.0000000            0.0000000            0.0000000
 Quadrupole YY       :         -7.5267707            0.0000000           -7.5267707
 Quadrupole YZ       :          0.0000000            0.0000000            0.0000000
 Quadrupole ZZ       :        -23.6163371           14.8859067           -8.7304303
 Traceless XX        :          5.3631888           -4.9619689            0.4012199
 Traceless YY        :          5.3631888           -4.9619689            0.4012199
 Traceless ZZ        :        -10.7263776            9.9239378           -0.8024398

 ------------------------------------------------------------------------------------
  Mulliken Charges: (a.u.)
   Center  Symbol    Alpha    Beta     Spin     Total
       1     N     3.50000  3.50000  0.00000 -0.00000
       2     N     3.50000  3.50000  0.00000 -0.00000

   Total alpha =  7.00000, Total beta =  7.00000, Total charge = -0.00000

*** tstop() called on Mac.lan at Sun Aug 10 17:05:24 2025
Module time:
	user time   =      12.40 seconds =       0.21 minutes
	system time =       1.14 seconds =       0.02 minutes
	total time  =          1 seconds =       0.02 minutes
Total time:
	user time   =     141.38 seconds =       2.36 minutes
	system time =      13.66 seconds =       0.23 minutes
	total time  =         15 seconds =       0.25 minutes

    Psi4 stopped on: Sunday, 10 August 2025 05:05PM
    Psi4 wall time for execution: 0:00:15.51

*** Psi4 exiting successfully. Buy a developer a beer!
