                               Psi4 1.9.1 release

  ==> Input File <==

--------------------------------------------------------------------------
molecule {
0 3
O           0.000000           0.000000           0.000000
O           0.000000           0.000000           1.208755
}

set {
basis              cc-pvtz
reference          uks
maxiter            500
DAMPING_PERCENTAGE 1
E_CONVERGENCE      1.0E-8
D_CONVERGENCE      1.0E-8
DIIS_MAX_VECS      400
MBIS_MAXITER       8000
guess              SAP
}

E, wfn = optimize('b3lyp', return_wfn=True)
frequencies('b3lyp', wfn=wfn, return_wfn=True)
properties('b3lyp','MULLIKEN_CHARGES', wfn=wfn)
--------------------------------------------------------------------------

    Molecular point group: d2h
  Charge       = 0
  Multiplicity = 3
  Basis Set: CC-PVTZ
    Blend: CC-PVTZ
  Basis Set: (CC-PVTZ AUX)
    Blend: CC-PVTZ-JKFIT
  @DF-UKS Final Energy:  -150.38093500461525
    Total Energy =                       -150.3809350046152531
 Dipole X            :          0.0000000            0.0000000            0.0000000
 Dipole Y            :          0.0000000            0.0000000            0.0000000
 Dipole Z            :          0.0000000            0.0000000            0.0000000
 Magnitude           :                                                    0.0000000
    Molecular point group: d2h
  Basis Set: CC-PVTZ
    Blend: CC-PVTZ
  Basis Set: (CC-PVTZ AUX)
    Blend: CC-PVTZ-JKFIT
  Basis Set: CC-PVTZ
    Blend: CC-PVTZ
  Basis Set: (CC-PVTZ AUX)
    Blend: CC-PVTZ-JKFIT
  @DF-UKS Final Energy:  -150.38094665611030
    Total Energy =                       -150.3809466561102681
  Basis Set: CC-PVTZ
    Blend: CC-PVTZ
  Basis Set: (CC-PVTZ AUX)
    Blend: CC-PVTZ-JKFIT
  Basis Set: CC-PVTZ
    Blend: CC-PVTZ
  @DF-UKS Final Energy:  -150.38094720388224
    Total Energy =                       -150.3809472038822435
    Final optimized geometry and variables:
                               Psi4 1.9.1 release
  @DF-UKS Final Energy:  -150.38094720382662
    Total Energy =                       -150.3809472038265937
                               Psi4 1.9.1 release
  @DF-UKS Final Energy:  -150.38094595262001
    Total Energy =                       -150.3809459526200101
                               Psi4 1.9.1 release
  @DF-UKS Final Energy:  -150.38094594545547
    Total Energy =                       -150.3809459454554656
                               Psi4 1.9.1 release
    Blend: CC-PVTZ-JKFIT
  @DF-UKS Final Energy:  -150.38094720383472
    Total Energy =                       -150.3809472038347224
  Basis Set: CC-PVTZ
    Blend: CC-PVTZ
  Basis Set: (CC-PVTZ AUX)
    Blend: CC-PVTZ-JKFIT
                               Psi4 1.9.1 release
  Basis Set: CC-PVTZ
    Blend: CC-PVTZ
  Basis Set: (CC-PVTZ AUX)
    Blend: CC-PVTZ-JKFIT
  @DF-UKS Final Energy:  -150.38094720382941
    Total Energy =                       -150.3809472038294075
    Molecular point group: c2h
  Basis Set: CC-PVTZ
    Blend: CC-PVTZ
  Basis Set: (CC-PVTZ AUX)
    Blend: CC-PVTZ-JKFIT

  -Total Gradient:
     Atom            X                  Y                   Z
    ------   -----------------  -----------------  -----------------
       1        0.000000000000     0.000000006999     0.000009020773
       2        0.000000000000    -0.000000006999    -0.000009020773

  Vibration                       6
  Freq [cm^-1]                1628.6988
  Irrep                           Ag
  Reduced mass [u]             15.9949
  Force const [mDyne/A]        24.9985

  IR activ [km/mol]             0.0000

  ==> Thermochemistry Components <==

  Entropy, S
    Electronic S                             2.183 [cal/(mol K)]        9.134 [J/(mol K)]       0.00347910 [mEh/K] (multiplicity = 3)
    Translational S                         36.321 [cal/(mol K)]      151.965 [J/(mol K)]       0.05788058 [mEh/K] (mol. weight = 31.9898 [u], P = 101325.00 [Pa])
    Rotational S                            10.471 [cal/(mol K)]       43.811 [J/(mol K)]       0.01668690 [mEh/K] (symmetry no. = 2)
    Vibrational S                            0.007 [cal/(mol K)]        0.028 [J/(mol K)]       0.00001083 [mEh/K]
  Total S                                   48.982 [cal/(mol K)]      204.940 [J/(mol K)]       0.07805741 [mEh/K]
  Correction S                               0.000 [cal/(mol K)]        0.000 [J/(mol K)]       0.00000000 [mEh/K]

  Constant volume heat capacity, Cv
    Electronic Cv                            0.000 [cal/(mol K)]        0.000 [J/(mol K)]       0.00000000 [mEh/K]
    Translational Cv                         2.981 [cal/(mol K)]       12.472 [J/(mol K)]       0.00475022 [mEh/K]
    Rotational Cv                            1.987 [cal/(mol K)]        8.314 [J/(mol K)]       0.00316681 [mEh/K]
    Vibrational Cv                           0.047 [cal/(mol K)]        0.198 [J/(mol K)]       0.00007558 [mEh/K]
  Total Cv                                   5.015 [cal/(mol K)]       20.985 [J/(mol K)]       0.00799260 [mEh/K]
  Correction Cv                              0.000 [cal/(mol K)]        0.000 [J/(mol K)]       0.00000000 [mEh/K]

  Constant pressure heat capacity, Cp
    Electronic Cp                            0.000 [cal/(mol K)]        0.000 [J/(mol K)]       0.00000000 [mEh/K]
    Translational Cp                         4.968 [cal/(mol K)]       20.786 [J/(mol K)]       0.00791703 [mEh/K]
    Rotational Cp                            1.987 [cal/(mol K)]        8.314 [J/(mol K)]       0.00316681 [mEh/K]
    Vibrational Cp                           0.047 [cal/(mol K)]        0.198 [J/(mol K)]       0.00007558 [mEh/K]
  Total Cp                                   7.003 [cal/(mol K)]       29.299 [J/(mol K)]       0.01115941 [mEh/K]
  Correction Cp                              0.000 [cal/(mol K)]        0.000 [J/(mol K)]       0.00000000 [mEh/K]

  ==> Thermochemistry Energy Analysis <==

  Raw electronic energy, E_e
  Total E_e, Electronic energy at well bottom                                          -150.38094720 [Eh]

  Zero-point vibrational energy, ZPVE = Sum_i omega_i / 2,  E_0 = E_e + ZPVE
    Vibrational ZPVE                         2.328 [kcal/mol]        9.742 [kJ/mol]       0.00371045 [Eh]         814.349 [cm^-1]
  Correction ZPVE to E_e                     2.328 [kcal/mol]        9.742 [kJ/mol]       0.00371045 [Eh]         814.349 [cm^-1]
  Total E_0, Enthalpy at 0 [K]                                                         -150.37723675 [Eh]
  *** Absolute enthalpy, not an enthalpy of formation ***

  Thermal (internal) energy, E (includes ZPVE and finite-temperature corrections)
    Electronic contrib to E beyond E_e       0.000 [kcal/mol]        0.000 [kJ/mol]       0.00000000 [Eh]
    Translational contrib to E               0.889 [kcal/mol]        3.718 [kJ/mol]       0.00141628 [Eh]
    Rotational contrib to E                  0.592 [kcal/mol]        2.479 [kJ/mol]       0.00094418 [Eh]
    Vibrational contrib to E                 2.330 [kcal/mol]        9.749 [kJ/mol]       0.00371331 [Eh]
  Correction E                               3.811 [kcal/mol]       15.947 [kJ/mol]       0.00607378 [Eh]
  Total E, Thermal (internal) energy at  298.15 [K]                                    -150.37487343 [Eh]

  Enthalpy, H_trans = E_trans + k_B * T = E_trans + P * V
    Electronic contrib to H beyond E_e       0.000 [kcal/mol]        0.000 [kJ/mol]       0.00000000 [Eh]
    Translational contrib to H               1.481 [kcal/mol]        6.197 [kJ/mol]       0.00236046 [Eh]
    Rotational contrib to H                  0.592 [kcal/mol]        2.479 [kJ/mol]       0.00094418 [Eh]
    Vibrational contrib to H                 2.330 [kcal/mol]        9.749 [kJ/mol]       0.00371331 [Eh]
  Correction H                               4.404 [kcal/mol]       18.426 [kJ/mol]       0.00701796 [Eh]
  Total H, Enthalpy at  298.15 [K]                                                     -150.37392924 [Eh]
  *** Absolute enthalpy, not an enthalpy of formation ***

  Gibbs free energy, G = H - T * S
    Electronic contrib to G beyond E_e      -0.651 [kcal/mol]       -2.723 [kJ/mol]      -0.00103729 [Eh]
    Translational contrib to G              -9.348 [kcal/mol]      -39.111 [kJ/mol]      -0.01489663 [Eh]
    Rotational contrib to G                 -2.529 [kcal/mol]      -10.583 [kJ/mol]      -0.00403101 [Eh]
    Vibrational contrib to G                 2.328 [kcal/mol]        9.741 [kJ/mol]       0.00371008 [Eh]
  Correction G                             -10.200 [kcal/mol]      -42.677 [kJ/mol]      -0.01625486 [Eh]
  Total G, Gibbs energy at  298.15 [K]                                                 -150.39720206 [Eh]

    Molecular point group: d2h

    Geometry (in Angstrom), charge = 0, multiplicity = 3:

       Center              X                  Y                   Z               Mass
    ------------   -----------------  -----------------  -----------------  -----------------
         O            0.000000000000     0.000000000000    -0.602913717819    15.994914619570
         O            0.000000000000     0.000000000000     0.602913717819    15.994914619570

  Charge       = 0
  Multiplicity = 3
  Basis Set: CC-PVTZ
    Blend: CC-PVTZ
  Basis Set: (CC-PVTZ AUX)
    Blend: CC-PVTZ-JKFIT

    Irrep   Nso     Nmo     Nalpha   Nbeta   Ndocc  Nsocc

    Orbital Energies [Eh]
    ---------------------

    Alpha Occupied:

       1Ag   -19.290327     1B1u  -19.290121     2Ag    -1.310833
       2B1u   -0.841990     1B2u   -0.568901     1B3u   -0.568901
       3Ag    -0.554388     1B3g   -0.312866     1B2g   -0.312866

    Alpha Virtual:

       3B1u    0.180345     4B1u    0.493626     2B2u    0.496353
       2B3u    0.496353     4Ag     0.548587     2B2g    0.612032
       2B3g    0.612032     5Ag     0.657368     5B1u    1.199826
       1B1g    1.201388     6Ag     1.201388     3B3u    1.285312
       3B2u    1.285312     6B1u    1.598571     1Au     1.598571
       7Ag     2.083046     7B1u    2.126530     3B2g    2.154908
       3B3g    2.154908     4B2u    3.382320     4B3u    3.382320
       8Ag     3.562413     4B3g    3.666550     4B2g    3.666550
       2B1g    4.553853     9Ag     4.553853     5B3u    4.626800
       5B2u    4.626800     8B1u    4.699603    10Ag     4.858165
       6B3u    4.879604     6B2u    4.879604     5B2g    5.121929
       5B3g    5.121929     9B1u    5.660919     2Au     5.660920
      10B1u    5.751214    11Ag     5.987917     3B1g    5.987930
      11B1u    6.209301     3Au     6.209316     6B2g    6.258700
       6B3g    6.258700     7B3u    6.364571     7B2u    6.364571
      12B1u    6.627124    12Ag     6.909228     7B2g    7.169859
       7B3g    7.169859    13Ag     7.547835    13B1u   12.136770

    Beta Occupied:

       1Ag   -19.259886     1B1u  -19.259541     2Ag    -1.254417
       2B1u   -0.753048     3Ag    -0.515669     1B2u   -0.466744
       1B3u   -0.466744

    Beta Virtual:

       1B3g   -0.117719     1B2g   -0.117719     3B1u    0.218513
       4B1u    0.512935     2B2u    0.531575     2B3u    0.531575
       4Ag     0.557920     2B2g    0.653778     2B3g    0.653778
       5Ag     0.679398     5B1u    1.232951     1B1g    1.243710
       6Ag     1.243710     3B3u    1.315242     3B2u    1.315242
       1Au     1.660008     6B1u    1.660009     7Ag     2.114360
       7B1u    2.145912     3B2g    2.191097     3B3g    2.191097
       4B2u    3.457721     4B3u    3.457721     8Ag     3.584013
       4B3g    3.743494     4B2g    3.743494     2B1g    4.594680
       9Ag     4.594680     5B3u    4.659647     5B2u    4.659647
       8B1u    4.735015    10Ag     4.890905     6B3u    4.950633
       6B2u    4.950633     5B2g    5.196919     5B3g    5.196919
       9B1u    5.719102     2Au     5.719102    10B1u    5.793512
      11Ag     6.097750     3B1g    6.097764    11B1u    6.310900
       3Au     6.310914     6B2g    6.319137     6B3g    6.319137
       7B3u    6.421763     7B2u    6.421763    12B1u    6.658048
      12Ag     6.948752     7B2g    7.205421     7B3g    7.205421
      13Ag     7.592099    13B1u   12.179965

    Final Occupation by Irrep:
             Ag   B1g   B2g   B3g    Au   B1u   B2u   B3u
    DOCC [     3,    0,    0,    0,    0,    2,    1,    1 ]
    SOCC [     0,    0,    1,    1,    0,    0,    0,    0 ]
    NA   [     3,    0,    1,    1,    0,    2,    1,    1 ]
    NB   [     3,    0,    0,    0,    0,    2,    1,    1 ]

  @DF-UKS Final Energy:  -150.38094720382662

   => Energetics <=

    Nuclear Repulsion Energy =             28.0863915366025871
    One-Electron Energy =                -262.0137322893355076
    Two-Electron Energy =                  97.3227794028373552
    DFT Exchange-Correlation Energy =     -13.7763858539310320
    Empirical Dispersion Energy =           0.0000000000000000
    VV10 Nonlocal Energy =                  0.0000000000000000
    Total Energy =                       -150.3809472038265937

  UHF NO Occupations:
  HONO-2 :    1B2u 1.9984916
  HONO-1 :    1B2g 1.0000000
  HONO-0 :    1B3g 1.0000000
  LUNO+0 :    2B2u 0.0015084
  LUNO+1 :    2B3u 0.0015084
  LUNO+2 :    3B1u 0.0007661
  LUNO+3 :    4 Ag 0.0002876

Computation Completed

Properties will be evaluated at   0.000000,   0.000000,   0.000000 [a0]

Properties computed using the B3LYP density matrix

 Multipole Moments:

 ------------------------------------------------------------------------------------
     Multipole            Electronic (a.u.)      Nuclear  (a.u.)        Total (a.u.)
 ------------------------------------------------------------------------------------

 L = 1.  Multiply by 2.5417464519 to convert [e a0] to [Debye]
 Dipole X            :          0.0000000            0.0000000            0.0000000
 Dipole Y            :          0.0000000            0.0000000            0.0000000
 Dipole Z            :          0.0000000            0.0000000            0.0000000
 Magnitude           :                                                    0.0000000

 L = 2.  Multiply by 1.3450342976 to convert [e a0^2] to [Debye ang]
 Quadrupole XX       :         -7.3708828            0.0000000           -7.3708828
 Quadrupole XY       :          0.0000000            0.0000000            0.0000000
 Quadrupole XZ       :          0.0000000            0.0000000            0.0000000
 Quadrupole YY       :         -7.3708828            0.0000000           -7.3708828
 Quadrupole YZ       :          0.0000000            0.0000000            0.0000000
 Quadrupole ZZ       :        -28.5359611           20.7695959           -7.7663652
 Traceless XX        :          7.0550261           -6.9231986            0.1318275
 Traceless YY        :          7.0550261           -6.9231986            0.1318275
 Traceless ZZ        :        -14.1100522           13.8463973           -0.2636549

 ------------------------------------------------------------------------------------
  Mulliken Charges: (a.u.)
   Center  Symbol    Alpha    Beta     Spin     Total
       1     O     4.50000  3.50000  1.00000 -0.00000
       2     O     4.50000  3.50000  1.00000 -0.00000

   Total alpha =  9.00000, Total beta =  7.00000, Total charge = -0.00000

*** tstop() called on Mac.lan at Sun Aug 10 17:00:24 2025
Module time:
	user time   =      14.51 seconds =       0.24 minutes
	system time =       0.85 seconds =       0.01 minutes
	total time  =          1 seconds =       0.02 minutes
Total time:
	user time   =     155.71 seconds =       2.60 minutes
	system time =      16.45 seconds =       0.27 minutes
	total time  =         16 seconds =       0.27 minutes

    Psi4 stopped on: Sunday, 10 August 2025 05:00PM
    Psi4 wall time for execution: 0:00:17.22

*** Psi4 exiting successfully. Buy a developer a beer!
