                               Psi4 1.9.1 release

  ==> Input File <==

--------------------------------------------------------------------------
molecule {
-1 2
He   0.00000        0.60000        0.00000
Ar   0.00000       -0.60000        0.00000
}

set {
basis              cc-pvdz
reference          uks
maxiter            500
geom_maxiter       500
DAMPING_PERCENTAGE 1
guess              SAP
}

optimize('b3lyp')
--------------------------------------------------------------------------

    Molecular point group: c2v
  Charge       = -1
  Multiplicity = 2
  Basis Set: CC-PVDZ
    Blend: CC-PVDZ
  Basis Set: (CC-PVDZ AUX)
    Blend: CC-PVDZ-JKFIT + DEF2-UNIVERSAL-JKFIT
  @DF-UKS Final Energy:  -529.38412444478547
    Total Energy =                       -529.3841244447854706
 Dipole X            :          0.0000000            0.0000000            0.0000000
 Dipole Y            :          0.0000000            0.0000000            0.0000000
 Dipole Z            :          0.3791980            0.4063348            0.7855328
 Magnitude           :                                                    0.7855328
    Molecular point group: c2v
  Basis Set: CC-PVDZ
    Blend: CC-PVDZ
  Basis Set: (CC-PVDZ AUX)
    Blend: CC-PVDZ-JKFIT + DEF2-UNIVERSAL-JKFIT
  Basis Set: CC-PVDZ
    Blend: CC-PVDZ
  Basis Set: (CC-PVDZ AUX)
    Blend: CC-PVDZ-JKFIT + DEF2-UNIVERSAL-JKFIT
  @DF-UKS Final Energy:  -529.57705670005066
    Total Energy =                       -529.5770567000506617
  Basis Set: CC-PVDZ
    Blend: CC-PVDZ
  Basis Set: (CC-PVDZ AUX)
    Blend: CC-PVDZ-JKFIT + DEF2-UNIVERSAL-JKFIT
  Basis Set: CC-PVDZ
    Blend: CC-PVDZ
  @DF-UKS Final Energy:  -529.62843082592678
    Total Energy =                       -529.6284308259267846
  @DF-UKS Final Energy:  -529.65587368955914
    Total Energy =                       -529.6558736895591437
  @DF-UKS Final Energy:  -529.67799150013752
    Total Energy =                       -529.6779915001375230
  @DF-UKS Final Energy:  -529.73586273852970
    Total Energy =                       -529.7358627385297041
  @DF-UKS Final Energy:  -529.74463469955799
    Total Energy =                       -529.7446346995581052
  @DF-UKS Final Energy:  -529.75459364228834
    Total Energy =                       -529.7545936422883415
  @DF-UKS Final Energy:  -529.75613483832092
    Total Energy =                       -529.7561348383209179
  @DF-UKS Final Energy:  -529.75641583216657
    Total Energy =                       -529.7564158321665673
  @DF-UKS Final Energy:  -529.75643808675488
    Total Energy =                       -529.7564380867548834
  Basis Set: (CC-PVDZ AUX)
    Blend: CC-PVDZ-JKFIT + DEF2-UNIVERSAL-JKFIT
  Basis Set: CC-PVDZ
    Blend: CC-PVDZ
  Basis Set: (CC-PVDZ AUX)
    Blend: CC-PVDZ-JKFIT + DEF2-UNIVERSAL-JKFIT
  @DF-UKS Final Energy:  -529.75644015157116
    Total Energy =                       -529.7564401515711552
  Basis Set: CC-PVDZ
    Blend: CC-PVDZ
  Basis Set: (CC-PVDZ AUX)
    Blend: CC-PVDZ-JKFIT + DEF2-UNIVERSAL-JKFIT
  Charge       = -1
  Multiplicity = 2
  Basis Set: CC-PVDZ
    Blend: CC-PVDZ
  Basis Set: (CC-PVDZ AUX)
    Blend: CC-PVDZ-JKFIT + DEF2-UNIVERSAL-JKFIT

    Orbital Energies [Eh]
    ---------------------

    Alpha Occupied:

       1A1  -114.639458     2A1   -10.704553     1B1    -8.254870
       1B2    -8.254870     3A1    -8.251162     4A1    -0.597421
       5A1    -0.441777     2B1    -0.070289     2B2    -0.070289
       6A1    -0.066013     7A1     0.809584

    Alpha Virtual:

       3B2     0.890493     3B1     0.890493     8A1     1.039549
       1A2     1.195670     9A1     1.195670     4B2     1.208387
       4B1     1.208387    10A1     1.212052    11A1     1.358267
       5B1     2.398247     5B2     2.398247    12A1     2.407647

    Beta Occupied:

       1A1  -114.630900     2A1   -10.696588     1B1    -8.250142
       1B2    -8.250142     3A1    -8.225027     4A1    -0.576653
       5A1    -0.435477     2B1    -0.062774     2B2    -0.062774
       6A1    -0.024601

    Beta Virtual:

       3B1     0.904062     3B2     0.904062     7A1     0.928065
       8A1     1.070199     1A2     1.198470     9A1     1.198471
       4B2     1.226568     4B1     1.226568    10A1     1.234759
      11A1     1.368156     5B2     2.399891     5B1     2.399891
      12A1     2.410205

    Final Occupation by Irrep:
             A1    A2    B1    B2
    DOCC [     6,    0,    2,    2 ]
    SOCC [     1,    0,    0,    0 ]
    NA   [     7,    0,    2,    2 ]
    NB   [     6,    0,    2,    2 ]

  @DF-UKS Final Energy:  -529.75644034225525

   => Energetics <=

    Nuclear Repulsion Energy =              6.4293358239858449
    One-Electron Energy =                -752.1013129361795109
    Two-Electron Energy =                 241.9763335029419125
    DFT Exchange-Correlation Energy =     -26.0607967330034960
    Empirical Dispersion Energy =           0.0000000000000000
    VV10 Nonlocal Energy =                  0.0000000000000000
    Total Energy =                       -529.7564403422552459

  UHF NO Occupations:
  HONO-2 :    5 A1 1.9999859
  HONO-1 :    6 A1 1.9999093
  HONO-0 :    7 A1 1.0000000
  LUNO+0 :    8 A1 0.0000907
  LUNO+1 :    9 A1 0.0000141
  LUNO+2 :    3 B2 0.0000021
  LUNO+3 :    3 B1 0.0000021

Computation Completed

Properties will be evaluated at   0.000000,   0.000000,   0.000000 [a0]

Properties computed using the SCF density matrix

 Multipole Moments:

 ------------------------------------------------------------------------------------
     Multipole            Electronic (a.u.)      Nuclear  (a.u.)        Total (a.u.)
 ------------------------------------------------------------------------------------

 L = 1.  Multiply by 2.5417464519 to convert [e a0] to [Debye]
 Dipole X            :          0.0000000            0.0000000            0.0000000
 Dipole Y            :          0.0000000            0.0000000            0.0000000
 Dipole Z            :         -0.7206034            1.0033220            0.2827186
 Magnitude           :                                                    0.2827186

 ------------------------------------------------------------------------------------

*** tstop() called on Joses-MacBook-Pro-2.local at Thu Jul 17 09:26:17 2025
Module time:
	user time   =       2.21 seconds =       0.04 minutes
	system time =       2.25 seconds =       0.04 minutes
	total time  =          1 seconds =       0.02 minutes
Total time:
	user time   =      51.93 seconds =       0.87 minutes
	system time =      54.50 seconds =       0.91 minutes
	total time  =         10 seconds =       0.17 minutes

*** tstart() called on Joses-MacBook-Pro-2.local
*** at Thu Jul 17 09:26:17 2025

         ------------------------------------------------------------
                                   SCF GRAD
                          Rob Parrish, Justin Turney,
                       Andy Simmonett, and Alex Sokolov
         ------------------------------------------------------------

  ==> Geometry <==

    Molecular point group: c2v
    Full point group: C_inf_v

    Geometry (in Angstrom), charge = -1, multiplicity = 2:

       Center              X                  Y                   Z               Mass
    ------------   -----------------  -----------------  -----------------  -----------------
         HE           0.000000000000     0.000000000000     2.693282807757     4.002603254130
         AR           0.000000000000     0.000000000000    -0.269757248892    39.962383123700

  Nuclear repulsion =    6.429335823985845

  ==> Basis Set <==

  Basis Set: CC-PVDZ
    Blend: CC-PVDZ
    Number of shells: 11
    Number of basis functions: 23
    Number of Cartesian functions: 24
    Spherical Harmonics?: true
    Max angular momentum: 2

  ==> DFJKGrad: Density-Fitted SCF Gradients <==

    Gradient:                    1
    J tasked:                  Yes
    K tasked:                  Yes
    wK tasked:                  No
    OpenMP threads:              1
    Integrals threads:           1
    Memory [MiB]:              375
    Schwarz Cutoff:          1E-12
    Fitting Condition:       1E-10

   => Auxiliary Basis Set <=

  Basis Set: (CC-PVDZ AUX)
    Blend: CC-PVDZ-JKFIT + DEF2-UNIVERSAL-JKFIT
    Number of shells: 45
    Number of basis functions: 135
    Number of Cartesian functions: 155
    Spherical Harmonics?: true
    Max angular momentum: 3

  ==> DFT Potential <==

   => LibXC <=

    Version 6.2.2
    S. Lehtola, C. Steigemann, M. J.T. Oliveira, and M. A.L. Marques.,  SoftwareX 7, 1â€“5 (2018) (10.1016/j.softx.2017.11.002)

   => Composite Functional: B3LYP <=

    B3LYP Hyb-GGA Exchange-Correlation Functional

    P. J. Stephens, F. J. Devlin, C. F. Chabalowski, and M. J. Frisch.,  J. Phys. Chem. 98, 11623 (1994) (10.1021/j100096a001)

    Deriv               =              1
    GGA                 =           TRUE
    Meta                =          FALSE

    Exchange Hybrid     =           TRUE
    MP2 Hybrid          =          FALSE

   => Exchange Functionals <=

    0.0800   Slater exchange
    0.7200         Becke 88

   => Exact (HF) Exchange <=

    0.2000               HF

   => Correlation Functionals <=

    0.1900   Vosko, Wilk & Nusair (VWN5_RPA)
    0.8100   Lee, Yang & Parr

   => LibXC Density Thresholds  <==

    XC_HYB_GGA_XC_B3LYP:  1.00E-15

   => Molecular Quadrature <=

    Radial Scheme          =       TREUTLER
    Pruning Scheme         =           NONE
    Nuclear Scheme         =       TREUTLER

    Blocking Scheme        =         OCTREE
    BS radius alpha        =              1
    Pruning alpha          =              1
    Radial Points          =             75
    Spherical Points       =            302
    Total Points           =          41960
    Total Blocks           =            379
    Max Points             =            256
    Max Functions          =             23
    Weights Tolerance      =       1.00E-15

  -Total Gradient:
     Atom            X                  Y                   Z
    ------   -----------------  -----------------  -----------------
       1        0.000000000000     0.000000000000    -0.000037246981
       2        0.000000000000     0.000000000000     0.000028060445

*** tstop() called on Joses-MacBook-Pro-2.local at Thu Jul 17 09:26:17 2025
Module time:
	user time   =       0.64 seconds =       0.01 minutes
	system time =       1.05 seconds =       0.02 minutes
	total time  =          0 seconds =       0.00 minutes
Total time:
	user time   =      52.57 seconds =       0.88 minutes
	system time =      55.55 seconds =       0.93 minutes
	total time  =         10 seconds =       0.17 minutes

    			-----------------------------------------

    			 OPTKING 3.0: for geometry optimizations

    			     By R.A. King, Bethel University

    			        with contributions from

    			    A.V. Copan, J. Cayton, A. Heide

    			-----------------------------------------

	                            ===> Fragment 1 <==

	 Z (Atomic Numbers)          Masses                          Geom
	       2.000000             4.002603          0.00000000  0.00000000  5.08956689
	      18.000000            39.962383          0.00000000  0.00000000 -0.50976732

	 - Coordinate -           - BOHR/RAD -       - ANG/DEG -
	 R(1,2)           =         5.599334           2.963040

	        --- Internal Coordinate Step in ANG or DEG, aJ/ANG or AJ/DEG ---
	-------------------------------------------------------------------------------
	           Coordinate      Previous         Force          Change          New
	           ----------      --------        ------          ------        ------
	               R(1,2)       2.96304        0.00027        0.00065       2.96370
	-------------------------------------------------------------------------------

	                                 ==> Convergence Check <==

	Measures of convergence in internal coordinates in au.

	Criteria marked as inactive (o), active & met (*), and active & unmet ( ).

	----------------------------------------------------------------------------------------------
	   Step    Total Energy     Delta E     Max Force     RMS Force      Max Disp      RMS Disp
	----------------------------------------------------------------------------------------------
	  Convergence Criteria     1.00e-06 *    3.00e-04 *             o    1.20e-03 *             o
	----------------------------------------------------------------------------------------------
	    13    -529.75644034   -1.91e-07 *    3.27e-05 *    3.27e-05 o    1.24e-03      1.24e-03 o  ~
	----------------------------------------------------------------------------------------------

Next Geometry in Ang
	Fragment 1 (Ang)

	   He   0.0000000000   0.0000000000   2.6936103000
	   Ar   0.0000000000   0.0000000000  -0.2700847412

    Final optimized geometry and variables:
    Molecular point group: c2v
    Full point group: C_inf_v

    Geometry (in Angstrom), charge = -1, multiplicity = 2:

    HE           0.000000000000     0.000000000000     2.693282807757
    AR           0.000000000000     0.000000000000    -0.269757248892

    Psi4 stopped on: Thursday, 17 July 2025 09:26AM
    Psi4 wall time for execution: 0:00:10.80

*** Psi4 exiting successfully. Buy a developer a beer!
