                               Psi4 1.9.1 release

  ==> Input File <==

--------------------------------------------------------------------------
molecule {
-1 2
He   0.00000        0.60000        0.00000
Be   0.00000       -0.60000        0.00000
}

set {
basis              cc-pvdz
reference          uks
maxiter            500
geom_maxiter       500
DAMPING_PERCENTAGE 1
guess              SAP
}

optimize('b3lyp')
--------------------------------------------------------------------------

    Molecular point group: c2v
  Charge       = -1
  Multiplicity = 2
  Basis Set: CC-PVDZ
    Blend: CC-PVDZ
  Basis Set: (CC-PVDZ AUX)
    Blend: DEF2-UNIVERSAL-JKFIT
  @DF-UKS Final Energy:   -17.45991046704161
    Total Energy =                        -17.4599104670416061
 Dipole X            :          0.0000000            0.0000000            0.0000000
 Dipole Y            :          0.0000000            0.0000000            0.0000000
 Dipole Z            :          1.9490661            0.3509073            2.2999734
 Magnitude           :                                                    2.2999734
    Molecular point group: c2v
  Basis Set: CC-PVDZ
    Blend: CC-PVDZ
  Basis Set: (CC-PVDZ AUX)
    Blend: DEF2-UNIVERSAL-JKFIT
  Basis Set: CC-PVDZ
    Blend: CC-PVDZ
  Basis Set: (CC-PVDZ AUX)
    Blend: DEF2-UNIVERSAL-JKFIT
  @DF-UKS Final Energy:   -17.48778360177065
    Total Energy =                        -17.4877836017706514
  Basis Set: CC-PVDZ
    Blend: CC-PVDZ
  Basis Set: (CC-PVDZ AUX)
    Blend: DEF2-UNIVERSAL-JKFIT
  Basis Set: CC-PVDZ
    Blend: CC-PVDZ
  @DF-UKS Final Energy:   -17.50466793880250
    Total Energy =                        -17.5046679388025019
  @DF-UKS Final Energy:   -17.52256158688482
    Total Energy =                        -17.5225615868848195
  @DF-UKS Final Energy:   -17.53048893447416
    Total Energy =                        -17.5304889344741568
  @DF-UKS Final Energy:   -17.53924318920224
    Total Energy =                        -17.5392431892022422
  @DF-UKS Final Energy:   -17.54130687760238
    Total Energy =                        -17.5413068776023806
  @DF-UKS Final Energy:   -17.54457619074650
    Total Energy =                        -17.5445761907465041
  @DF-UKS Final Energy:   -17.54505987901383
    Total Energy =                        -17.5450598790138308
  @DF-UKS Final Energy:   -17.54648692510582
    Total Energy =                        -17.5464869251058246
  @DF-UKS Final Energy:   -17.54660070023014
    Total Energy =                        -17.5466007002301438
  @DF-UKS Final Energy:   -17.54722554798773
    Total Energy =                        -17.5472255479877326
  @DF-UKS Final Energy:   -17.54725170724423
    Total Energy =                        -17.5472517072442287
  @DF-UKS Final Energy:   -17.54751794084234
    Total Energy =                        -17.5475179408423365
  @DF-UKS Final Energy:   -17.54761021137110
    Total Energy =                        -17.5476102113711043
  @DF-UKS Final Energy:   -17.54765356062962
    Total Energy =                        -17.5476535606296231
  @DF-UKS Final Energy:   -17.54767033749763
    Total Energy =                        -17.5476703374976282
  @DF-UKS Final Energy:   -17.54767646036854
    Total Energy =                        -17.5476764603685353
  Basis Set: (CC-PVDZ AUX)
    Blend: DEF2-UNIVERSAL-JKFIT
  Basis Set: CC-PVDZ
    Blend: CC-PVDZ
  Basis Set: (CC-PVDZ AUX)
    Blend: DEF2-UNIVERSAL-JKFIT
  @DF-UKS Final Energy:   -17.54767767931942
    Total Energy =                        -17.5476776793194240
  Basis Set: CC-PVDZ
    Blend: CC-PVDZ
  Basis Set: (CC-PVDZ AUX)
    Blend: DEF2-UNIVERSAL-JKFIT
  Charge       = -1
  Multiplicity = 2
  Basis Set: CC-PVDZ
    Blend: CC-PVDZ
  Basis Set: (CC-PVDZ AUX)
    Blend: DEF2-UNIVERSAL-JKFIT

    Orbital Energies [Eh]
    ---------------------

    Alpha Occupied:

       1A1    -3.807853     2A1    -0.538980     3A1    -0.002610
       1B1     0.112634

    Alpha Virtual:

       1B2     0.167680     4A1     0.167952     5A1     0.400532
       2B1     0.400656     2B2     0.417387     6A1     0.417737
       3B1     0.709338     1A2     0.709343     7A1     0.712632
       8A1     0.723286     3B2     0.723294     9A1     1.235870
       4B2     2.299961     4B1     2.300023    10A1     2.301711

    Beta Occupied:

       1A1    -3.805804     2A1    -0.538984     3A1     0.020110

    Beta Virtual:

       1B2     0.171915     4A1     0.172210     1B1     0.193496
       5A1     0.412175     2B2     0.417311     6A1     0.417696
       2B1     0.436561     7A1     0.720837     3B2     0.720845
       3B1     0.742125     1A2     0.742129     8A1     0.749769
       9A1     1.235881     4B2     2.299962     4B1     2.300025
      10A1     2.301714

    Final Occupation by Irrep:
             A1    A2    B1    B2
    DOCC [     3,    0,    0,    0 ]
    SOCC [     0,    0,    1,    0 ]
    NA   [     3,    0,    1,    0 ]
    NB   [     3,    0,    0,    0 ]

  @DF-UKS Final Energy:   -17.54767761414932

   => Energetics <=

    Nuclear Repulsion Energy =              0.9258428427535925
    One-Electron Energy =                 -26.0279351245473975
    Two-Electron Energy =                  10.8100273731613896
    DFT Exchange-Correlation Energy =      -3.2556127055169055
    Empirical Dispersion Energy =           0.0000000000000000
    VV10 Nonlocal Energy =                  0.0000000000000000
    Total Energy =                        -17.5476776141493218

  UHF NO Occupations:
  HONO-2 :    2 A1 2.0000000
  HONO-1 :    3 A1 1.9987166
  HONO-0 :    1 B1 1.0000000
  LUNO+0 :    4 A1 0.0012834
  LUNO+1 :    5 A1 0.0000000
  LUNO+2 :    6 A1 0.0000000
  LUNO+3 :    7 A1 0.0000000

Computation Completed

Properties will be evaluated at   0.000000,   0.000000,   0.000000 [a0]

Properties computed using the SCF density matrix

 Multipole Moments:

 ------------------------------------------------------------------------------------
     Multipole            Electronic (a.u.)      Nuclear  (a.u.)        Total (a.u.)
 ------------------------------------------------------------------------------------

 L = 1.  Multiply by 2.5417464519 to convert [e a0] to [Debye]
 Dipole X            :          0.0000000            0.0000000            0.0000000
 Dipole Y            :          0.0000000            0.0000000            0.0000000
 Dipole Z            :          1.3218168            1.3371035            2.6589203
 Magnitude           :                                                    2.6589203

 ------------------------------------------------------------------------------------

*** tstop() called on Joses-MacBook-Pro-2.local at Thu Jul 17 09:17:58 2025
Module time:
	user time   =       0.68 seconds =       0.01 minutes
	system time =       3.21 seconds =       0.05 minutes
	total time  =          1 seconds =       0.02 minutes
Total time:
	user time   =      26.27 seconds =       0.44 minutes
	system time =      82.02 seconds =       1.37 minutes
	total time  =         12 seconds =       0.20 minutes

*** tstart() called on Joses-MacBook-Pro-2.local
*** at Thu Jul 17 09:17:58 2025

         ------------------------------------------------------------
                                   SCF GRAD
                          Rob Parrish, Justin Turney,
                       Andy Simmonett, and Alex Sokolov
         ------------------------------------------------------------

  ==> Geometry <==

    Molecular point group: c2v
    Full point group: C_inf_v

    Geometry (in Angstrom), charge = -1, multiplicity = 2:

       Center              X                  Y                   Z               Mass
    ------------   -----------------  -----------------  -----------------  -----------------
         HE           0.000000000000     0.000000000000     3.166261710388     4.002603254130
         BE           0.000000000000     0.000000000000    -1.406239679556     9.012183065000

  Nuclear repulsion =    0.925842842753593

  ==> Basis Set <==

  Basis Set: CC-PVDZ
    Blend: CC-PVDZ
    Number of shells: 9
    Number of basis functions: 19
    Number of Cartesian functions: 20
    Spherical Harmonics?: true
    Max angular momentum: 2

  ==> DFJKGrad: Density-Fitted SCF Gradients <==

    Gradient:                    1
    J tasked:                  Yes
    K tasked:                  Yes
    wK tasked:                  No
    OpenMP threads:              1
    Integrals threads:           1
    Memory [MiB]:              375
    Schwarz Cutoff:          1E-12
    Fitting Condition:       1E-10

   => Auxiliary Basis Set <=

  Basis Set: (CC-PVDZ AUX)
    Blend: DEF2-UNIVERSAL-JKFIT
    Number of shells: 26
    Number of basis functions: 74
    Number of Cartesian functions: 85
    Spherical Harmonics?: true
    Max angular momentum: 3

  ==> DFT Potential <==

   => LibXC <=

    Version 6.2.2
    S. Lehtola, C. Steigemann, M. J.T. Oliveira, and M. A.L. Marques.,  SoftwareX 7, 1â€“5 (2018) (10.1016/j.softx.2017.11.002)

   => Composite Functional: B3LYP <=

    B3LYP Hyb-GGA Exchange-Correlation Functional

    P. J. Stephens, F. J. Devlin, C. F. Chabalowski, and M. J. Frisch.,  J. Phys. Chem. 98, 11623 (1994) (10.1021/j100096a001)

    Deriv               =              1
    GGA                 =           TRUE
    Meta                =          FALSE

    Exchange Hybrid     =           TRUE
    MP2 Hybrid          =          FALSE

   => Exchange Functionals <=

    0.0800   Slater exchange
    0.7200         Becke 88

   => Exact (HF) Exchange <=

    0.2000               HF

   => Correlation Functionals <=

    0.1900   Vosko, Wilk & Nusair (VWN5_RPA)
    0.8100   Lee, Yang & Parr

   => LibXC Density Thresholds  <==

    XC_HYB_GGA_XC_B3LYP:  1.00E-15

   => Molecular Quadrature <=

    Radial Scheme          =       TREUTLER
    Pruning Scheme         =           NONE
    Nuclear Scheme         =       TREUTLER

    Blocking Scheme        =         OCTREE
    BS radius alpha        =              1
    Pruning alpha          =              1
    Radial Points          =             75
    Spherical Points       =            302
    Total Points           =          43702
    Total Blocks           =            439
    Max Points             =            254
    Max Functions          =             19
    Weights Tolerance      =       1.00E-15

  -Total Gradient:
     Atom            X                  Y                   Z
    ------   -----------------  -----------------  -----------------
       1        0.000000000000     0.000000000000    -0.000007269159
       2       -0.000000000000     0.000000000000     0.000000379598

*** tstop() called on Joses-MacBook-Pro-2.local at Thu Jul 17 09:17:58 2025
Module time:
	user time   =       0.32 seconds =       0.01 minutes
	system time =       0.71 seconds =       0.01 minutes
	total time  =          0 seconds =       0.00 minutes
Total time:
	user time   =      26.59 seconds =       0.44 minutes
	system time =      82.73 seconds =       1.38 minutes
	total time  =         12 seconds =       0.20 minutes

    			-----------------------------------------

    			 OPTKING 3.0: for geometry optimizations

    			     By R.A. King, Bethel University

    			        with contributions from

    			    A.V. Copan, J. Cayton, A. Heide

    			-----------------------------------------

	                            ===> Fragment 1 <==

	 Z (Atomic Numbers)          Masses                          Geom
	       2.000000             4.002603          0.00000000  0.00000000  5.98336747
	       4.000000             9.012183          0.00000000  0.00000000 -2.65740786

	 - Coordinate -           - BOHR/RAD -       - ANG/DEG -
	 R(1,2)           =         8.640775           4.572501

	        --- Internal Coordinate Step in ANG or DEG, aJ/ANG or AJ/DEG ---
	-------------------------------------------------------------------------------
	           Coordinate      Previous         Force          Change          New
	           ----------      --------        ------          ------        ------
	               R(1,2)       4.57250        0.00003        0.03674       4.60924
	-------------------------------------------------------------------------------

	                                 ==> Convergence Check <==

	Measures of convergence in internal coordinates in au.

	Criteria marked as inactive (o), active & met (*), and active & unmet ( ).

	----------------------------------------------------------------------------------------------
	   Step    Total Energy     Delta E     Max Force     RMS Force      Max Disp      RMS Disp
	----------------------------------------------------------------------------------------------
	  Convergence Criteria     1.00e-06 *    3.00e-04 *             o    1.20e-03 *             o
	----------------------------------------------------------------------------------------------
	    20     -17.54767761    6.52e-08 *    3.82e-06 *    3.82e-06 o    6.94e-02      6.94e-02 o  ~
	----------------------------------------------------------------------------------------------

Next Geometry in Ang
	Fragment 1 (Ang)

	   He   0.0000000000   0.0000000000   3.1846328491
	   Be   0.0000000000   0.0000000000  -1.4246108183

    Final optimized geometry and variables:
    Molecular point group: c2v
    Full point group: C_inf_v

    Geometry (in Angstrom), charge = -1, multiplicity = 2:

    HE           0.000000000000     0.000000000000     3.166261710388
    BE           0.000000000000     0.000000000000    -1.406239679556

    Psi4 stopped on: Thursday, 17 July 2025 09:17AM
    Psi4 wall time for execution: 0:00:12.60

*** Psi4 exiting successfully. Buy a developer a beer!
