                               Psi4 1.9.1 release

  ==> Input File <==

--------------------------------------------------------------------------
molecule {
-1 2
Si   0.00000        0.60000        0.00000
Ar   0.00000       -0.60000        0.00000
}

set {
basis              cc-pvdz
reference          uks
maxiter            500
geom_maxiter       500
DAMPING_PERCENTAGE 1
guess              SAP
}

optimize('b3lyp')
--------------------------------------------------------------------------

    Molecular point group: c2v
  Charge       = -1
  Multiplicity = 2
  Basis Set: CC-PVDZ
    Blend: CC-PVDZ
  Basis Set: (CC-PVDZ AUX)
    Blend: CC-PVDZ-JKFIT
  @DF-UKS Final Energy:  -815.43592353165820
    Total Energy =                       -815.4359235316582044
 Dipole X            :          0.0000000            0.0000000            0.0000000
 Dipole Y            :          0.0000000            0.0000000            0.0000000
 Dipole Z            :         -5.5197401            1.8654469           -3.6542933
 Magnitude           :                                                    3.6542933
    Molecular point group: c2v
  Basis Set: CC-PVDZ
    Blend: CC-PVDZ
  Basis Set: (CC-PVDZ AUX)
    Blend: CC-PVDZ-JKFIT
  Basis Set: CC-PVDZ
    Blend: CC-PVDZ
  Basis Set: (CC-PVDZ AUX)
    Blend: CC-PVDZ-JKFIT
  @DF-UKS Final Energy:  -815.47808111277743
    Total Energy =                       -815.4780811127774314
  Basis Set: CC-PVDZ
    Blend: CC-PVDZ
  Basis Set: (CC-PVDZ AUX)
    Blend: CC-PVDZ-JKFIT
  Basis Set: CC-PVDZ
    Blend: CC-PVDZ
  @DF-UKS Final Energy:  -815.55630038156687
    Total Energy =                       -815.5563003815667571
  @DF-UKS Final Energy:  -815.81101005367827
    Total Energy =                       -815.8110100536782738
  @DF-UKS Final Energy:  -816.35915404784964
    Total Energy =                       -816.3591540478496427
  @DF-UKS Final Energy:  -816.56530267031792
    Total Energy =                       -816.5653026703179194
  @DF-UKS Final Energy:  -816.70637210732309
    Total Energy =                       -816.7063721073230909
  @DF-UKS Final Energy:  -816.79377650615618
    Total Energy =                       -816.7937765061561777
  @DF-UKS Final Energy:  -816.84640363783251
    Total Energy =                       -816.8464036378325090
  @DF-UKS Final Energy:  -816.87721939097310
    Total Energy =                       -816.8772193909730959
  @DF-UKS Final Energy:  -816.89504433585614
    Total Energy =                       -816.8950443358561415
  @DF-UKS Final Energy:  -816.90485588968647
    Total Energy =                       -816.9048558896864733
  @DF-UKS Final Energy:  -816.90998099810463
    Total Energy =                       -816.9099809981047429
  @DF-UKS Final Energy:  -816.91253127875484
    Total Energy =                       -816.9125312787548410
  @DF-UKS Final Energy:  -816.91375103802034
    Total Energy =                       -816.9137510380203366
  @DF-UKS Final Energy:  -816.91431418741433
    Total Energy =                       -816.9143141874143339
  @DF-UKS Final Energy:  -816.91456200473692
    Total Energy =                       -816.9145620047370357
  @DF-UKS Final Energy:  -816.91466379071505
    Total Energy =                       -816.9146637907150534
  @DF-UKS Final Energy:  -816.91469916424342
    Total Energy =                       -816.9146991642433022
  @DF-UKS Final Energy:  -816.91470771199954
    Total Energy =                       -816.9147077119995402
  Basis Set: (CC-PVDZ AUX)
    Blend: CC-PVDZ-JKFIT
  Basis Set: CC-PVDZ
    Blend: CC-PVDZ
  Basis Set: (CC-PVDZ AUX)
    Blend: CC-PVDZ-JKFIT
  @DF-UKS Final Energy:  -816.91471061006018
    Total Energy =                       -816.9147106100601832
  Basis Set: CC-PVDZ
    Blend: CC-PVDZ
  Basis Set: (CC-PVDZ AUX)
    Blend: CC-PVDZ-JKFIT
  Charge       = -1
  Multiplicity = 2
  Basis Set: CC-PVDZ
    Blend: CC-PVDZ
  Basis Set: (CC-PVDZ AUX)
    Blend: CC-PVDZ-JKFIT

    Orbital Energies [Eh]
    ---------------------

    Alpha Occupied:

       1A1  -114.979021     2A1   -65.874988     3A1   -11.015091
       1B1    -8.565011     1B2    -8.564971     4A1    -8.564894
       5A1    -5.015249     6A1    -3.379587     2B1    -3.375943
       2B2    -3.365830     7A1    -0.843395     3B1    -0.301727
       3B2    -0.301400     8A1    -0.300250     9A1    -0.160983
       4B1     0.069152     4B2     0.101538

    Alpha Virtual:

      10A1     0.129499    11A1     0.477957    12A1     0.540516
       5B1     0.541939     5B2     0.566820    13A1     0.609647
       6B1     0.611520     1A2     0.634494     6B2     0.638079
      14A1     0.643994     7B1     0.705381     7B2     0.706760
      15A1     0.751277    16A1     0.895706    17A1     0.956330
       2A2     0.956345     8B1     0.957386     8B2     0.957613
      18A1     0.966479

    Beta Occupied:

       1A1  -114.979015     2A1   -65.872725     3A1   -11.015085
       1B1    -8.564996     1B2    -8.564967     4A1    -8.564888
       5A1    -5.012712     6A1    -3.378344     2B1    -3.367408
       2B2    -3.364460     7A1    -0.843376     3B1    -0.301709
       3B2    -0.301404     8A1    -0.300263     9A1    -0.131206
       4B2     0.109333

    Beta Virtual:

      10A1     0.137866     4B1     0.167685    11A1     0.490059
      12A1     0.544518     5B2     0.570943     5B1     0.577189
      13A1     0.630599     6B2     0.640920     6B1     0.651148
       1A2     0.669101    14A1     0.673616     7B1     0.706442
       7B2     0.706842    15A1     0.752451    16A1     0.896588
      17A1     0.956350     2A2     0.956365     8B1     0.957428
       8B2     0.957622    18A1     0.966737

    Final Occupation by Irrep:
             A1    A2    B1    B2
    DOCC [     9,    0,    3,    4 ]
    SOCC [     0,    0,    1,    0 ]
    NA   [     9,    0,    4,    4 ]
    NB   [     9,    0,    3,    4 ]

  @DF-UKS Final Energy:  -816.91471102321088

   => Energetics <=

    Nuclear Repulsion Energy =             33.6131544872427312
    One-Electron Energy =               -1202.4161111374512529
    Two-Electron Energy =                 393.7215602874955493
    DFT Exchange-Correlation Energy =     -41.8333146604981110
    Empirical Dispersion Energy =           0.0000000000000000
    VV10 Nonlocal Energy =                  0.0000000000000000
    Total Energy =                       -816.9147110232109981

  UHF NO Occupations:
  HONO-2 :    4 B2 1.9999884
  HONO-1 :    9 A1 1.9986878
  HONO-0 :    4 B1 1.0000000
  LUNO+0 :   10 A1 0.0013122
  LUNO+1 :    5 B2 0.0000116
  LUNO+2 :   11 A1 0.0000000
  LUNO+3 :    5 B1 0.0000000

Computation Completed

Properties will be evaluated at   0.000000,   0.000000,   0.000000 [a0]

Properties computed using the SCF density matrix

 Multipole Moments:

 ------------------------------------------------------------------------------------
     Multipole            Electronic (a.u.)      Nuclear  (a.u.)        Total (a.u.)
 ------------------------------------------------------------------------------------

 L = 1.  Multiply by 2.5417464519 to convert [e a0] to [Debye]
 Dipole X            :          0.0000000            0.0000000            0.0000000
 Dipole Y            :          0.0000000            0.0000000            0.0000000
 Dipole Z            :        -10.5384459            6.1672853           -4.3711606
 Magnitude           :                                                    4.3711606

 ------------------------------------------------------------------------------------

*** tstop() called on Joses-MacBook-Pro-2.local at Thu Jul 17 11:52:18 2025
Module time:
	user time   =       7.09 seconds =       0.12 minutes
	system time =       1.64 seconds =       0.03 minutes
	total time  =          1 seconds =       0.02 minutes
Total time:
	user time   =     276.19 seconds =       4.60 minutes
	system time =      61.42 seconds =       1.02 minutes
	total time  =         32 seconds =       0.53 minutes

*** tstart() called on Joses-MacBook-Pro-2.local
*** at Thu Jul 17 11:52:18 2025

         ------------------------------------------------------------
                                   SCF GRAD
                          Rob Parrish, Justin Turney,
                       Andy Simmonett, and Alex Sokolov
         ------------------------------------------------------------

  ==> Geometry <==

    Molecular point group: c2v
    Full point group: C_inf_v

    Geometry (in Angstrom), charge = -1, multiplicity = 2:

       Center              X                  Y                   Z               Mass
    ------------   -----------------  -----------------  -----------------  -----------------
         SI           0.000000000000     0.000000000000     2.333579771709    27.976926534650
         AR           0.000000000000     0.000000000000    -1.633696109508    39.962383123700

  Nuclear repulsion =   33.613154487242731

  ==> Basis Set <==

  Basis Set: CC-PVDZ
    Blend: CC-PVDZ
    Number of shells: 16
    Number of basis functions: 36
    Number of Cartesian functions: 38
    Spherical Harmonics?: true
    Max angular momentum: 2

  ==> DFJKGrad: Density-Fitted SCF Gradients <==

    Gradient:                    1
    J tasked:                  Yes
    K tasked:                  Yes
    wK tasked:                  No
    OpenMP threads:              1
    Integrals threads:           1
    Memory [MiB]:              375
    Schwarz Cutoff:          1E-12
    Fitting Condition:       1E-10

   => Auxiliary Basis Set <=

  Basis Set: (CC-PVDZ AUX)
    Blend: CC-PVDZ-JKFIT
    Number of shells: 72
    Number of basis functions: 224
    Number of Cartesian functions: 260
    Spherical Harmonics?: true
    Max angular momentum: 3

  ==> DFT Potential <==

   => LibXC <=

    Version 6.2.2
    S. Lehtola, C. Steigemann, M. J.T. Oliveira, and M. A.L. Marques.,  SoftwareX 7, 1â€“5 (2018) (10.1016/j.softx.2017.11.002)

   => Composite Functional: B3LYP <=

    B3LYP Hyb-GGA Exchange-Correlation Functional

    P. J. Stephens, F. J. Devlin, C. F. Chabalowski, and M. J. Frisch.,  J. Phys. Chem. 98, 11623 (1994) (10.1021/j100096a001)

    Deriv               =              1
    GGA                 =           TRUE
    Meta                =          FALSE

    Exchange Hybrid     =           TRUE
    MP2 Hybrid          =          FALSE

   => Exchange Functionals <=

    0.0800   Slater exchange
    0.7200         Becke 88

   => Exact (HF) Exchange <=

    0.2000               HF

   => Correlation Functionals <=

    0.1900   Vosko, Wilk & Nusair (VWN5_RPA)
    0.8100   Lee, Yang & Parr

   => LibXC Density Thresholds  <==

    XC_HYB_GGA_XC_B3LYP:  1.00E-15

   => Molecular Quadrature <=

    Radial Scheme          =       TREUTLER
    Pruning Scheme         =           NONE
    Nuclear Scheme         =       TREUTLER

    Blocking Scheme        =         OCTREE
    BS radius alpha        =              1
    Pruning alpha          =              1
    Radial Points          =             75
    Spherical Points       =            302
    Total Points           =          41767
    Total Blocks           =            406
    Max Points             =            255
    Max Functions          =             36
    Weights Tolerance      =       1.00E-15

  -Total Gradient:
     Atom            X                  Y                   Z
    ------   -----------------  -----------------  -----------------
       1       -0.000000000000    -0.000000000000    -0.000018590241
       2        0.000000000000     0.000000000000    -0.000001121755

*** tstop() called on Joses-MacBook-Pro-2.local at Thu Jul 17 11:52:19 2025
Module time:
	user time   =       2.20 seconds =       0.04 minutes
	system time =       1.16 seconds =       0.02 minutes
	total time  =          1 seconds =       0.02 minutes
Total time:
	user time   =     278.39 seconds =       4.64 minutes
	system time =      62.59 seconds =       1.04 minutes
	total time  =         33 seconds =       0.55 minutes

    			-----------------------------------------

    			 OPTKING 3.0: for geometry optimizations

    			     By R.A. King, Bethel University

    			        with contributions from

    			    A.V. Copan, J. Cayton, A. Heide

    			-----------------------------------------

	                            ===> Fragment 1 <==

	 Z (Atomic Numbers)          Masses                          Geom
	      14.000000            27.976927          0.00000000  0.00000000  4.40982666
	      18.000000            39.962383          0.00000000  0.00000000 -3.08723822

	 - Coordinate -           - BOHR/RAD -       - ANG/DEG -
	 R(1,2)           =         7.497065           3.967276

	        --- Internal Coordinate Step in ANG or DEG, aJ/ANG or AJ/DEG ---
	-------------------------------------------------------------------------------
	           Coordinate      Previous         Force          Change          New
	           ----------      --------        ------          ------        ------
	               R(1,2)       3.96728        0.00007        0.00759       3.97486
	-------------------------------------------------------------------------------

	                                 ==> Convergence Check <==

	Measures of convergence in internal coordinates in au.

	Criteria marked as inactive (o), active & met (*), and active & unmet ( ).

	----------------------------------------------------------------------------------------------
	   Step    Total Energy     Delta E     Max Force     RMS Force      Max Disp      RMS Disp
	----------------------------------------------------------------------------------------------
	  Convergence Criteria     1.00e-06 *    3.00e-04 *             o    1.20e-03 *             o
	----------------------------------------------------------------------------------------------
	    22    -816.91471102   -4.13e-07 *    8.73e-06 *    8.73e-06 o    1.43e-02      1.43e-02 o  ~
	----------------------------------------------------------------------------------------------

Next Geometry in Ang
	Fragment 1 (Ang)

	   Si   0.0000000000   0.0000000000   2.3373730375
	   Ar   0.0000000000   0.0000000000  -1.6374893753

    Final optimized geometry and variables:
    Molecular point group: c2v
    Full point group: C_inf_v

    Geometry (in Angstrom), charge = -1, multiplicity = 2:

    SI           0.000000000000     0.000000000000     2.333579771709
    AR           0.000000000000     0.000000000000    -1.633696109508

    Psi4 stopped on: Thursday, 17 July 2025 11:52AM
    Psi4 wall time for execution: 0:00:33.01

*** Psi4 exiting successfully. Buy a developer a beer!
