                               Psi4 1.9.1 release

  ==> Input File <==

--------------------------------------------------------------------------
molecule {
-1 2
F   0.00000        0.60000        0.00000
F   0.00000       -0.60000        0.00000
}

set {
basis              cc-pvdz
reference          uks
maxiter            500
geom_maxiter       500
DAMPING_PERCENTAGE 1
guess              SAP
}

optimize('b3lyp')
--------------------------------------------------------------------------

    Molecular point group: d2h
  Charge       = -1
  Multiplicity = 2
  Basis Set: CC-PVDZ
    Blend: CC-PVDZ
  Basis Set: (CC-PVDZ AUX)
    Blend: CC-PVDZ-JKFIT
  @DF-UKS Final Energy:  -199.23234220560525
    Total Energy =                       -199.2323422056052493
 Dipole X            :          0.0000000            0.0000000            0.0000000
 Dipole Y            :          0.0000000            0.0000000            0.0000000
 Dipole Z            :          0.0000000            0.0000000            0.0000000
 Magnitude           :                                                    0.0000000
    Molecular point group: d2h
  Basis Set: CC-PVDZ
    Blend: CC-PVDZ
  Basis Set: (CC-PVDZ AUX)
    Blend: CC-PVDZ-JKFIT
  Basis Set: CC-PVDZ
    Blend: CC-PVDZ
  Basis Set: (CC-PVDZ AUX)
    Blend: CC-PVDZ-JKFIT
  @DF-UKS Final Energy:  -199.50892853261206
    Total Energy =                       -199.5089285326120603
  Basis Set: CC-PVDZ
    Blend: CC-PVDZ
  Basis Set: (CC-PVDZ AUX)
    Blend: CC-PVDZ-JKFIT
  Basis Set: CC-PVDZ
    Blend: CC-PVDZ
  @DF-UKS Final Energy:  -199.55013605698375
    Total Energy =                       -199.5501360569837459
  @DF-UKS Final Energy:  -199.57880575639862
    Total Energy =                       -199.5788057563986229
  @DF-UKS Final Energy:  -199.58748124623463
    Total Energy =                       -199.5874812462346313
  @DF-UKS Final Energy:  -199.59158679007265
    Total Energy =                       -199.5915867900726539
  @DF-UKS Final Energy:  -199.59344697365077
    Total Energy =                       -199.5934469736507992
  @DF-UKS Final Energy:  -199.59391495480304
    Total Energy =                       -199.5939149548030400
  @DF-UKS Final Energy:  -199.59405347282842
    Total Energy =                       -199.5940534728284206
  @DF-UKS Final Energy:  -199.59410675750297
    Total Energy =                       -199.5941067575029706
  @DF-UKS Final Energy:  -199.59411995924938
    Total Energy =                       -199.5941199592493831
  Basis Set: (CC-PVDZ AUX)
    Blend: CC-PVDZ-JKFIT
  Basis Set: CC-PVDZ
    Blend: CC-PVDZ
  Basis Set: (CC-PVDZ AUX)
    Blend: CC-PVDZ-JKFIT
  @DF-UKS Final Energy:  -199.59412174413390
    Total Energy =                       -199.5941217441339006
  Basis Set: CC-PVDZ
    Blend: CC-PVDZ
  Basis Set: (CC-PVDZ AUX)
    Blend: CC-PVDZ-JKFIT
  Charge       = -1
  Multiplicity = 2
  Basis Set: CC-PVDZ
    Blend: CC-PVDZ
  Basis Set: (CC-PVDZ AUX)
    Blend: CC-PVDZ-JKFIT

    Orbital Energies [Eh]
    ---------------------

    Alpha Occupied:

       1B2u  -24.306764     1Ag   -24.306725     2Ag    -0.777185
       2B2u   -0.739492     3Ag    -0.110390     1B3u   -0.034990
       1B1u   -0.034990     1B1g   -0.005166     1B3g   -0.005166
       3B2u    0.000365

    Alpha Virtual:

       2B1u    1.406002     2B3u    1.406002     4Ag     1.412662
       4B2u    1.539196     2B3g    1.557250     2B1g    1.557250
       5Ag     1.751521     5B2u    2.242429     6Ag     3.916733
       3B1u    3.927938     3B3u    3.927938     3B3g    3.935125
       3B1g    3.935125     1B2g    3.962263     7Ag     3.962274
       1Au     3.962543     6B2u    3.962553     7B2u    4.013887

    Beta Occupied:

       1B2u  -24.289763     1Ag   -24.289748     2Ag    -0.732896
       2B2u   -0.693024     1B3u   -0.018926     1B1u   -0.018926
       3Ag    -0.000766     1B1g    0.011757     1B3g    0.011757

    Beta Virtual:

       3B2u    0.183915     2B1u    1.415956     2B3u    1.415956
       4Ag     1.473643     2B3g    1.567368     2B1g    1.567368
       4B2u    1.584208     5Ag     1.775060     5B2u    2.277810
       1B2g    3.971158     6Ag     3.971168     1Au     3.971448
       6B2u    3.971459     3B1u    3.977233     3B3u    3.977233
       7Ag     3.981725     3B3g    3.985008     3B1g    3.985008
       7B2u    4.075784

    Final Occupation by Irrep:
             Ag   B1g   B2g   B3g    Au   B1u   B2u   B3u
    DOCC [     3,    1,    0,    1,    0,    1,    2,    1 ]
    SOCC [     0,    0,    0,    0,    0,    0,    1,    0 ]
    NA   [     3,    1,    0,    1,    0,    1,    3,    1 ]
    NB   [     3,    1,    0,    1,    0,    1,    2,    1 ]

  @DF-UKS Final Energy:  -199.59412184167903

   => Energetics <=

    Nuclear Repulsion Energy =             21.4225931150886737
    One-Electron Energy =                -329.3970468397994864
    Two-Electron Energy =                 125.5253237006774896
    DFT Exchange-Correlation Energy =     -17.1449918176456926
    Empirical Dispersion Energy =           0.0000000000000000
    VV10 Nonlocal Energy =                  0.0000000000000000
    Total Energy =                       -199.5941218416790264

  UHF NO Occupations:
  HONO-2 :    2B2u 1.9999171
  HONO-1 :    3 Ag 1.9988620
  HONO-0 :    3B2u 1.0000000
  LUNO+0 :    4 Ag 0.0011380
  LUNO+1 :    4B2u 0.0000829
  LUNO+2 :    5 Ag 0.0000731
  LUNO+3 :    2B1u 0.0000271

Computation Completed

Properties will be evaluated at   0.000000,   0.000000,   0.000000 [a0]

Properties computed using the SCF density matrix

 Multipole Moments:

 ------------------------------------------------------------------------------------
     Multipole            Electronic (a.u.)      Nuclear  (a.u.)        Total (a.u.)
 ------------------------------------------------------------------------------------

 L = 1.  Multiply by 2.5417464519 to convert [e a0] to [Debye]
 Dipole X            :          0.0000000            0.0000000            0.0000000
 Dipole Y            :          0.0000000            0.0000000            0.0000000
 Dipole Z            :          0.0000000            0.0000000            0.0000000
 Magnitude           :                                                    0.0000000

 ------------------------------------------------------------------------------------

*** tstop() called on Joses-MacBook-Pro-2.local at Thu Jul 17 10:49:35 2025
Module time:
	user time   =       1.67 seconds =       0.03 minutes
	system time =       3.71 seconds =       0.06 minutes
	total time  =          1 seconds =       0.02 minutes
Total time:
	user time   =      44.65 seconds =       0.74 minutes
	system time =      67.25 seconds =       1.12 minutes
	total time  =         12 seconds =       0.20 minutes

*** tstart() called on Joses-MacBook-Pro-2.local
*** at Thu Jul 17 10:49:35 2025

         ------------------------------------------------------------
                                   SCF GRAD
                          Rob Parrish, Justin Turney,
                       Andy Simmonett, and Alex Sokolov
         ------------------------------------------------------------

  ==> Geometry <==

    Molecular point group: d2h
    Full point group: D_inf_h

    Geometry (in Angstrom), charge = -1, multiplicity = 2:

       Center              X                  Y                   Z               Mass
    ------------   -----------------  -----------------  -----------------  -----------------
         F           -0.000000000000     1.000424034429     0.000000000000    18.998403162730
         F            0.000000000000    -1.000424034429     0.000000000000    18.998403162730

  Nuclear repulsion =   21.422593115088674

  ==> Basis Set <==

  Basis Set: CC-PVDZ
    Blend: CC-PVDZ
    Number of shells: 12
    Number of basis functions: 28
    Number of Cartesian functions: 30
    Spherical Harmonics?: true
    Max angular momentum: 2

  ==> DFJKGrad: Density-Fitted SCF Gradients <==

    Gradient:                    1
    J tasked:                  Yes
    K tasked:                  Yes
    wK tasked:                  No
    OpenMP threads:              1
    Integrals threads:           1
    Memory [MiB]:              375
    Schwarz Cutoff:          1E-12
    Fitting Condition:       1E-10

   => Auxiliary Basis Set <=

  Basis Set: (CC-PVDZ AUX)
    Blend: CC-PVDZ-JKFIT
    Number of shells: 48
    Number of basis functions: 140
    Number of Cartesian functions: 162
    Spherical Harmonics?: true
    Max angular momentum: 3

  ==> DFT Potential <==

   => LibXC <=

    Version 6.2.2
    S. Lehtola, C. Steigemann, M. J.T. Oliveira, and M. A.L. Marques.,  SoftwareX 7, 1â€“5 (2018) (10.1016/j.softx.2017.11.002)

   => Composite Functional: B3LYP <=

    B3LYP Hyb-GGA Exchange-Correlation Functional

    P. J. Stephens, F. J. Devlin, C. F. Chabalowski, and M. J. Frisch.,  J. Phys. Chem. 98, 11623 (1994) (10.1021/j100096a001)

    Deriv               =              1
    GGA                 =           TRUE
    Meta                =          FALSE

    Exchange Hybrid     =           TRUE
    MP2 Hybrid          =          FALSE

   => Exchange Functionals <=

    0.0800   Slater exchange
    0.7200         Becke 88

   => Exact (HF) Exchange <=

    0.2000               HF

   => Correlation Functionals <=

    0.1900   Vosko, Wilk & Nusair (VWN5_RPA)
    0.8100   Lee, Yang & Parr

   => LibXC Density Thresholds  <==

    XC_HYB_GGA_XC_B3LYP:  1.00E-15

   => Molecular Quadrature <=

    Radial Scheme          =       TREUTLER
    Pruning Scheme         =           NONE
    Nuclear Scheme         =       TREUTLER

    Blocking Scheme        =         OCTREE
    BS radius alpha        =              1
    Pruning alpha          =              1
    Radial Points          =             75
    Spherical Points       =            302
    Total Points           =          42098
    Total Blocks           =            390
    Max Points             =            235
    Max Functions          =             28
    Weights Tolerance      =       1.00E-15

  -Total Gradient:
     Atom            X                  Y                   Z
    ------   -----------------  -----------------  -----------------
       1        0.000000000000    -0.000011589374    -0.000000000000
       2       -0.000000000000     0.000011589374    -0.000000000000

*** tstop() called on Joses-MacBook-Pro-2.local at Thu Jul 17 10:49:35 2025
Module time:
	user time   =       0.49 seconds =       0.01 minutes
	system time =       1.13 seconds =       0.02 minutes
	total time  =          0 seconds =       0.00 minutes
Total time:
	user time   =      45.14 seconds =       0.75 minutes
	system time =      68.39 seconds =       1.14 minutes
	total time  =         12 seconds =       0.20 minutes

    			-----------------------------------------

    			 OPTKING 3.0: for geometry optimizations

    			     By R.A. King, Bethel University

    			        with contributions from

    			    A.V. Copan, J. Cayton, A. Heide

    			-----------------------------------------

	                            ===> Fragment 1 <==

	 Z (Atomic Numbers)          Masses                          Geom
	       9.000000            18.998403         -0.00000000  1.89052743  0.00000000
	       9.000000            18.998403          0.00000000 -1.89052743  0.00000000

	 - Coordinate -           - BOHR/RAD -       - ANG/DEG -
	 R(1,2)           =         3.781055           2.000848

	        --- Internal Coordinate Step in ANG or DEG, aJ/ANG or AJ/DEG ---
	-------------------------------------------------------------------------------
	           Coordinate      Previous         Force          Change          New
	           ----------      --------        ------          ------        ------
	               R(1,2)       2.00085        0.00010        0.00011       2.00096
	-------------------------------------------------------------------------------

	                                 ==> Convergence Check <==

	Measures of convergence in internal coordinates in au.

	Criteria marked as inactive (o), active & met (*), and active & unmet ( ).

	----------------------------------------------------------------------------------------------
	   Step    Total Energy     Delta E     Max Force     RMS Force      Max Disp      RMS Disp
	----------------------------------------------------------------------------------------------
	  Convergence Criteria     1.00e-06 *    3.00e-04 *             o    1.20e-03 *             o
	----------------------------------------------------------------------------------------------
	    13    -199.59412184   -9.75e-08 *    1.16e-05 *    1.16e-05 o    2.10e-04 *    2.10e-04 o  ~
	----------------------------------------------------------------------------------------------

Next Geometry in Ang
	Fragment 1 (Ang)

	    F  -0.0000000000   1.0004795120   0.0000000000
	    F   0.0000000000  -1.0004795120   0.0000000000

    Final optimized geometry and variables:
    Molecular point group: d2h
    Full point group: D_inf_h

    Geometry (in Angstrom), charge = -1, multiplicity = 2:

    F           -0.000000000000     1.000424034429     0.000000000000
    F            0.000000000000    -1.000424034429     0.000000000000

    Psi4 stopped on: Thursday, 17 July 2025 10:49AM
    Psi4 wall time for execution: 0:00:12.10

*** Psi4 exiting successfully. Buy a developer a beer!
