                               Psi4 1.9.1 release

  ==> Input File <==

--------------------------------------------------------------------------
molecule {
-1 2
O   0.00000        0.60000        0.00000
S   0.00000       -0.60000        0.00000
}

set {
basis              cc-pvdz
reference          uks
maxiter            500
geom_maxiter       500
DAMPING_PERCENTAGE 1
guess              SAP
}

optimize('b3lyp')
--------------------------------------------------------------------------

    Molecular point group: c2v
  Charge       = -1
  Multiplicity = 2
  Basis Set: CC-PVDZ
    Blend: CC-PVDZ
  Basis Set: (CC-PVDZ AUX)
    Blend: CC-PVDZ-JKFIT
  @DF-UKS Final Energy:  -473.12796801390351
    Total Energy =                       -473.1279680139035122
 Dipole X            :          0.0000000            0.0000000            0.0000000
 Dipole Y            :          0.0000000            0.0000000            0.0000000
 Dipole Z            :          0.2043686           -0.0067162            0.1976524
 Magnitude           :                                                    0.1976524
    Molecular point group: c2v
  Basis Set: CC-PVDZ
    Blend: CC-PVDZ
  Basis Set: (CC-PVDZ AUX)
    Blend: CC-PVDZ-JKFIT
  Basis Set: CC-PVDZ
    Blend: CC-PVDZ
  Basis Set: (CC-PVDZ AUX)
    Blend: CC-PVDZ-JKFIT
  @DF-UKS Final Energy:  -473.28115373223096
    Total Energy =                       -473.2811537322309619
  Basis Set: CC-PVDZ
    Blend: CC-PVDZ
  Basis Set: (CC-PVDZ AUX)
    Blend: CC-PVDZ-JKFIT
  Basis Set: CC-PVDZ
    Blend: CC-PVDZ
  @DF-UKS Final Energy:  -473.35218556467100
    Total Energy =                       -473.3521855646710037
  @DF-UKS Final Energy:  -473.37430102627889
    Total Energy =                       -473.3743010262788857
  @DF-UKS Final Energy:  -473.38530113916249
    Total Energy =                       -473.3853011391624932
  @DF-UKS Final Energy:  -473.38850849242795
    Total Energy =                       -473.3885084924279454
  @DF-UKS Final Energy:  -473.38985275419384
    Total Energy =                       -473.3898527541938392
  @DF-UKS Final Energy:  -473.39012048275254
    Total Energy =                       -473.3901204827525362
  @DF-UKS Final Energy:  -473.39018507018579
    Total Energy =                       -473.3901850701857938
  Basis Set: (CC-PVDZ AUX)
    Blend: CC-PVDZ-JKFIT
  Basis Set: CC-PVDZ
    Blend: CC-PVDZ
  Basis Set: (CC-PVDZ AUX)
    Blend: CC-PVDZ-JKFIT
  @DF-UKS Final Energy:  -473.39019368734171
    Total Energy =                       -473.3901936873417071
  Basis Set: CC-PVDZ
    Blend: CC-PVDZ
  Basis Set: (CC-PVDZ AUX)
    Blend: CC-PVDZ-JKFIT
  Charge       = -1
  Multiplicity = 2
  Basis Set: CC-PVDZ
    Blend: CC-PVDZ
  Basis Set: (CC-PVDZ AUX)
    Blend: CC-PVDZ-JKFIT

    Orbital Energies [Eh]
    ---------------------

    Alpha Occupied:

       1A1   -88.605935     2A1   -18.857878     3A1    -7.662906
       4A1    -5.627917     1B1    -5.626266     1B2    -5.616800
       5A1    -0.684928     6A1    -0.350345     7A1    -0.100896
       2B1    -0.100189     2B2    -0.065365     3B1     0.049380
       3B2     0.082545

    Alpha Virtual:

       8A1     0.296281     9A1     0.737633     4B1     0.739229
      10A1     0.745106     4B2     0.756884    11A1     0.881001
       1A2     0.881072     5B1     0.886897     5B2     0.911384
      12A1     1.075945     6B1     1.253966     6B2     1.282023
      13A1     1.327316    14A1     1.932065    15A1     2.878808
       2A2     2.879207     7B1     2.942858     7B2     2.976345
      16A1     3.323384

    Beta Occupied:

       1A1   -88.603568     2A1   -18.843310     3A1    -7.660512
       4A1    -5.626878     1B1    -5.617985     1B2    -5.615400
       5A1    -0.652369     6A1    -0.323722     7A1    -0.085641
       2B2    -0.055493     2B1    -0.030272     3B2     0.093379

    Beta Virtual:

       3B1     0.175346     8A1     0.308019     9A1     0.746296
      10A1     0.749214     4B1     0.759169     4B2     0.759937
       1A2     0.904591    11A1     0.905597     5B2     0.914605
       5B1     0.919772    12A1     1.088568     6B2     1.290288
       6B1     1.303935    13A1     1.338065    14A1     1.950737
       2A2     2.923778    15A1     2.926362     7B2     2.984158
       7B1     2.988618    16A1     3.344383

    Final Occupation by Irrep:
             A1    A2    B1    B2
    DOCC [     7,    0,    2,    3 ]
    SOCC [     0,    0,    1,    0 ]
    NA   [     7,    0,    3,    3 ]
    NB   [     7,    0,    2,    3 ]

  @DF-UKS Final Energy:  -473.39019411425443

   => Energetics <=

    Nuclear Repulsion Energy =             41.1091368368333647
    One-Electron Energy =                -742.9606378036166916
    Two-Electron Energy =                 256.3019984681048413
    DFT Exchange-Correlation Energy =     -27.8406916155759454
    Empirical Dispersion Energy =           0.0000000000000000
    VV10 Nonlocal Energy =                  0.0000000000000000
    Total Energy =                       -473.3901941142544274

  UHF NO Occupations:
  HONO-2 :    7 A1 1.9996472
  HONO-1 :    2 B1 1.9990190
  HONO-0 :    3 B1 1.0000000
  LUNO+0 :    4 B1 0.0009810
  LUNO+1 :    8 A1 0.0003528
  LUNO+2 :    9 A1 0.0001525
  LUNO+3 :   10 A1 0.0000645

Computation Completed

Properties will be evaluated at   0.000000,   0.000000,   0.000000 [a0]

Properties computed using the SCF density matrix

 Multipole Moments:

 ------------------------------------------------------------------------------------
     Multipole            Electronic (a.u.)      Nuclear  (a.u.)        Total (a.u.)
 ------------------------------------------------------------------------------------

 L = 1.  Multiply by 2.5417464519 to convert [e a0] to [Debye]
 Dipole X            :          0.0000000            0.0000000            0.0000000
 Dipole Y            :          0.0000000            0.0000000            0.0000000
 Dipole Z            :         -0.3336359           -0.0092218           -0.3428577
 Magnitude           :                                                    0.3428577

 ------------------------------------------------------------------------------------

*** tstop() called on Joses-MacBook-Pro-2.local at Thu Jul 17 10:44:20 2025
Module time:
	user time   =       3.03 seconds =       0.05 minutes
	system time =       4.22 seconds =       0.07 minutes
	total time  =          1 seconds =       0.02 minutes
Total time:
	user time   =      47.75 seconds =       0.80 minutes
	system time =      71.60 seconds =       1.19 minutes
	total time  =         12 seconds =       0.20 minutes

*** tstart() called on Joses-MacBook-Pro-2.local
*** at Thu Jul 17 10:44:20 2025

         ------------------------------------------------------------
                                   SCF GRAD
                          Rob Parrish, Justin Turney,
                       Andy Simmonett, and Alex Sokolov
         ------------------------------------------------------------

  ==> Geometry <==

    Molecular point group: c2v
    Full point group: C_inf_v

    Geometry (in Angstrom), charge = -1, multiplicity = 2:

       Center              X                  Y                   Z               Mass
    ------------   -----------------  -----------------  -----------------  -----------------
         O            0.000000000000     0.000000000000     1.098249683681    15.994914619570
         S            0.000000000000     0.000000000000    -0.549429839113    31.972071174400

  Nuclear repulsion =   41.109136836833365

  ==> Basis Set <==

  Basis Set: CC-PVDZ
    Blend: CC-PVDZ
    Number of shells: 14
    Number of basis functions: 32
    Number of Cartesian functions: 34
    Spherical Harmonics?: true
    Max angular momentum: 2

  ==> DFJKGrad: Density-Fitted SCF Gradients <==

    Gradient:                    1
    J tasked:                  Yes
    K tasked:                  Yes
    wK tasked:                  No
    OpenMP threads:              1
    Integrals threads:           1
    Memory [MiB]:              375
    Schwarz Cutoff:          1E-12
    Fitting Condition:       1E-10

   => Auxiliary Basis Set <=

  Basis Set: (CC-PVDZ AUX)
    Blend: CC-PVDZ-JKFIT
    Number of shells: 60
    Number of basis functions: 182
    Number of Cartesian functions: 211
    Spherical Harmonics?: true
    Max angular momentum: 3

  ==> DFT Potential <==

   => LibXC <=

    Version 6.2.2
    S. Lehtola, C. Steigemann, M. J.T. Oliveira, and M. A.L. Marques.,  SoftwareX 7, 1â€“5 (2018) (10.1016/j.softx.2017.11.002)

   => Composite Functional: B3LYP <=

    B3LYP Hyb-GGA Exchange-Correlation Functional

    P. J. Stephens, F. J. Devlin, C. F. Chabalowski, and M. J. Frisch.,  J. Phys. Chem. 98, 11623 (1994) (10.1021/j100096a001)

    Deriv               =              1
    GGA                 =           TRUE
    Meta                =          FALSE

    Exchange Hybrid     =           TRUE
    MP2 Hybrid          =          FALSE

   => Exchange Functionals <=

    0.0800   Slater exchange
    0.7200         Becke 88

   => Exact (HF) Exchange <=

    0.2000               HF

   => Correlation Functionals <=

    0.1900   Vosko, Wilk & Nusair (VWN5_RPA)
    0.8100   Lee, Yang & Parr

   => LibXC Density Thresholds  <==

    XC_HYB_GGA_XC_B3LYP:  1.00E-15

   => Molecular Quadrature <=

    Radial Scheme          =       TREUTLER
    Pruning Scheme         =           NONE
    Nuclear Scheme         =       TREUTLER

    Blocking Scheme        =         OCTREE
    BS radius alpha        =              1
    Pruning alpha          =              1
    Radial Points          =             75
    Spherical Points       =            302
    Total Points           =          41851
    Total Blocks           =            376
    Max Points             =            256
    Max Functions          =             32
    Weights Tolerance      =       1.00E-15

  -Total Gradient:
     Atom            X                  Y                   Z
    ------   -----------------  -----------------  -----------------
       1       -0.000000000000     0.000000000000    -0.000083926922
       2        0.000000000000    -0.000000000000     0.000062186192

*** tstop() called on Joses-MacBook-Pro-2.local at Thu Jul 17 10:44:20 2025
Module time:
	user time   =       0.82 seconds =       0.01 minutes
	system time =       1.68 seconds =       0.03 minutes
	total time  =          0 seconds =       0.00 minutes
Total time:
	user time   =      48.57 seconds =       0.81 minutes
	system time =      73.29 seconds =       1.22 minutes
	total time  =         12 seconds =       0.20 minutes

    			-----------------------------------------

    			 OPTKING 3.0: for geometry optimizations

    			     By R.A. King, Bethel University

    			        with contributions from

    			    A.V. Copan, J. Cayton, A. Heide

    			-----------------------------------------

	                            ===> Fragment 1 <==

	 Z (Atomic Numbers)          Masses                          Geom
	       8.000000            15.994915          0.00000000  0.00000000  2.07539112
	      16.000000            31.972071          0.00000000  0.00000000 -1.03827192

	 - Coordinate -           - BOHR/RAD -       - ANG/DEG -
	 R(1,2)           =         3.113663           1.647680

	        --- Internal Coordinate Step in ANG or DEG, aJ/ANG or AJ/DEG ---
	-------------------------------------------------------------------------------
	           Coordinate      Previous         Force          Change          New
	           ----------      --------        ------          ------        ------
	               R(1,2)       1.64768        0.00060        0.00013       1.64781
	-------------------------------------------------------------------------------

	                                 ==> Convergence Check <==

	Measures of convergence in internal coordinates in au.

	Criteria marked as inactive (o), active & met (*), and active & unmet ( ).

	----------------------------------------------------------------------------------------------
	   Step    Total Energy     Delta E     Max Force     RMS Force      Max Disp      RMS Disp
	----------------------------------------------------------------------------------------------
	  Convergence Criteria     1.00e-06 *    3.00e-04 *             o    1.20e-03 *             o
	----------------------------------------------------------------------------------------------
	    11    -473.39019411   -4.27e-07 *    7.31e-05 *    7.31e-05 o    2.43e-04 *    2.43e-04 o  ~
	----------------------------------------------------------------------------------------------

Next Geometry in Ang
	Fragment 1 (Ang)

	    O   0.0000000000   0.0000000000   1.0983139333
	    S   0.0000000000   0.0000000000  -0.5494940887

    Final optimized geometry and variables:
    Molecular point group: c2v
    Full point group: C_inf_v

    Geometry (in Angstrom), charge = -1, multiplicity = 2:

    O            0.000000000000     0.000000000000     1.098249683681
    S            0.000000000000     0.000000000000    -0.549429839113

    Psi4 stopped on: Thursday, 17 July 2025 10:44AM
    Psi4 wall time for execution: 0:00:12.93

*** Psi4 exiting successfully. Buy a developer a beer!
