                               Psi4 1.9.1 release

  ==> Input File <==

--------------------------------------------------------------------------
molecule {
-1 2
Li   0.00000        0.60000        0.00000
P   0.00000       -0.60000        0.00000
}

set {
basis              cc-pvdz
reference          uks
maxiter            500
geom_maxiter       500
DAMPING_PERCENTAGE 1
guess              SAP
}

optimize('b3lyp')
--------------------------------------------------------------------------

    Molecular point group: c2v
  Charge       = -1
  Multiplicity = 2
  Basis Set: CC-PVDZ
    Blend: CC-PVDZ
  Basis Set: (CC-PVDZ AUX)
    Blend: CC-PVDZ-JKFIT + DEF2-UNIVERSAL-JKFIT
  @DF-UKS Final Energy:  -348.46142467640288
    Total Energy =                       -348.4614246764028849
 Dipole X            :          0.0000000            0.0000000            0.0000000
 Dipole Y            :          0.0000000            0.0000000            0.0000000
 Dipole Z            :         -0.2152039           -0.7353273           -0.9505312
 Magnitude           :                                                    0.9505312
    Molecular point group: c2v
  Basis Set: CC-PVDZ
    Blend: CC-PVDZ
  Basis Set: (CC-PVDZ AUX)
    Blend: CC-PVDZ-JKFIT + DEF2-UNIVERSAL-JKFIT
  Basis Set: CC-PVDZ
    Blend: CC-PVDZ
  Basis Set: (CC-PVDZ AUX)
    Blend: CC-PVDZ-JKFIT + DEF2-UNIVERSAL-JKFIT
  @DF-UKS Final Energy:  -348.55222999252925
    Total Energy =                       -348.5522299925292486
  Basis Set: CC-PVDZ
    Blend: CC-PVDZ
  Basis Set: (CC-PVDZ AUX)
    Blend: CC-PVDZ-JKFIT + DEF2-UNIVERSAL-JKFIT
  Basis Set: CC-PVDZ
    Blend: CC-PVDZ
  @DF-UKS Final Energy:  -348.66143742090742
    Total Energy =                       -348.6614374209074185
  @DF-UKS Final Energy:  -348.77339210795452
    Total Energy =                       -348.7733921079544643
  @DF-UKS Final Energy:  -348.81108041594297
    Total Energy =                       -348.8110804159429676
  @DF-UKS Final Energy:  -348.82584880823941
    Total Energy =                       -348.8258488082394138
  @DF-UKS Final Energy:  -348.83018126442704
    Total Energy =                       -348.8301812644270399
  @DF-UKS Final Energy:  -348.83087694387649
    Total Energy =                       -348.8308769438764898
  @DF-UKS Final Energy:  -348.83101627592936
    Total Energy =                       -348.8310162759293007
  Basis Set: (CC-PVDZ AUX)
    Blend: CC-PVDZ-JKFIT + DEF2-UNIVERSAL-JKFIT
  Basis Set: CC-PVDZ
    Blend: CC-PVDZ
  Basis Set: (CC-PVDZ AUX)
    Blend: CC-PVDZ-JKFIT + DEF2-UNIVERSAL-JKFIT
  @DF-UKS Final Energy:  -348.83102610052254
    Total Energy =                       -348.8310261005225357
  Basis Set: CC-PVDZ
    Blend: CC-PVDZ
  Basis Set: (CC-PVDZ AUX)
    Blend: CC-PVDZ-JKFIT + DEF2-UNIVERSAL-JKFIT
  Charge       = -1
  Multiplicity = 2
  Basis Set: CC-PVDZ
    Blend: CC-PVDZ
  Basis Set: (CC-PVDZ AUX)
    Blend: CC-PVDZ-JKFIT + DEF2-UNIVERSAL-JKFIT

    Orbital Energies [Eh]
    ---------------------

    Alpha Occupied:

       1A1   -76.834223     2A1    -6.301922     3A1    -4.470419
       1B1    -4.459928     1B2    -4.459928     4A1    -1.847570
       5A1    -0.309992     6A1    -0.029519     2B2     0.020900
       2B1     0.020900

    Alpha Virtual:

       7A1     0.075447     3B1     0.132616     3B2     0.132616
       8A1     0.152363     9A1     0.217569     4B2     0.226181
       4B1     0.226181    10A1     0.361416     1A2     0.386789
      11A1     0.386789     5B1     0.424226     5B2     0.424226
      12A1     0.553566     6B1     0.684690     6B2     0.684690
      13A1     0.698347    14A1     0.761190     2A2     0.762238
      15A1     0.762240     7B2     0.864822     7B1     0.864822
      16A1     1.315051

    Beta Occupied:

       1A1   -76.830338     2A1    -6.297743     3A1    -4.458385
       1B1    -4.456806     1B2    -4.456806     4A1    -1.843597
       5A1    -0.268526     2B2     0.034351     2B1     0.034351

    Beta Virtual:

       6A1     0.062036     7A1     0.097957     3B1     0.135836
       3B2     0.135836     8A1     0.154276     9A1     0.218595
       4B2     0.231616     4B1     0.231616    10A1     0.374788
       1A2     0.389602    11A1     0.389602     5B1     0.437491
       5B2     0.437491    12A1     0.581362     6B1     0.694062
       6B2     0.694062    13A1     0.736544     2A2     0.772355
      14A1     0.772358    15A1     0.789239     7B2     0.897959
       7B1     0.897959    16A1     1.329935

    Final Occupation by Irrep:
             A1    A2    B1    B2
    DOCC [     5,    0,    2,    2 ]
    SOCC [     1,    0,    0,    0 ]
    NA   [     6,    0,    2,    2 ]
    NB   [     5,    0,    2,    2 ]

  @DF-UKS Final Energy:  -348.83102680638422

   => Energetics <=

    Nuclear Repulsion Energy =             11.2365543753419832
    One-Electron Energy =                -508.4199668972328254
    Two-Electron Energy =                 168.6935019621866445
    DFT Exchange-Correlation Energy =     -20.3411162466800342
    Empirical Dispersion Energy =           0.0000000000000000
    VV10 Nonlocal Energy =                  0.0000000000000000
    Total Energy =                       -348.8310268063842159

  UHF NO Occupations:
  HONO-2 :    2 B2 1.9964052
  HONO-1 :    2 B1 1.9964052
  HONO-0 :    6 A1 1.0000000
  LUNO+0 :    3 B1 0.0035948
  LUNO+1 :    3 B2 0.0035948
  LUNO+2 :    7 A1 0.0009910
  LUNO+3 :    8 A1 0.0000003

Computation Completed

Properties will be evaluated at   0.000000,   0.000000,   0.000000 [a0]

Properties computed using the SCF density matrix

 Multipole Moments:

 ------------------------------------------------------------------------------------
     Multipole            Electronic (a.u.)      Nuclear  (a.u.)        Total (a.u.)
 ------------------------------------------------------------------------------------

 L = 1.  Multiply by 2.5417464519 to convert [e a0] to [Debye]
 Dipole X            :          0.0000000            0.0000000            0.0000000
 Dipole Y            :          0.0000000            0.0000000            0.0000000
 Dipole Z            :          1.7076455           -1.2986136            0.4090319
 Magnitude           :                                                    0.4090319

 ------------------------------------------------------------------------------------

*** tstop() called on Joses-MacBook-Pro-2.local at Thu Jul 17 09:34:51 2025
Module time:
	user time   =       4.60 seconds =       0.08 minutes
	system time =       3.07 seconds =       0.05 minutes
	total time  =          0 seconds =       0.00 minutes
Total time:
	user time   =      66.43 seconds =       1.11 minutes
	system time =      57.99 seconds =       0.97 minutes
	total time  =         12 seconds =       0.20 minutes

*** tstart() called on Joses-MacBook-Pro-2.local
*** at Thu Jul 17 09:34:51 2025

         ------------------------------------------------------------
                                   SCF GRAD
                          Rob Parrish, Justin Turney,
                       Andy Simmonett, and Alex Sokolov
         ------------------------------------------------------------

  ==> Geometry <==

    Molecular point group: c2v
    Full point group: C_inf_v

    Geometry (in Angstrom), charge = -1, multiplicity = 2:

       Center              X                  Y                   Z               Mass
    ------------   -----------------  -----------------  -----------------  -----------------
         LI           0.000000000000     0.000000000000     1.727857146798     7.016003436600
         P            0.000000000000     0.000000000000    -0.391384542843    30.973761998420

  Nuclear repulsion =   11.236554375341983

  ==> Basis Set <==

  Basis Set: CC-PVDZ
    Blend: CC-PVDZ
    Number of shells: 14
    Number of basis functions: 32
    Number of Cartesian functions: 34
    Spherical Harmonics?: true
    Max angular momentum: 2

  ==> DFJKGrad: Density-Fitted SCF Gradients <==

    Gradient:                    1
    J tasked:                  Yes
    K tasked:                  Yes
    wK tasked:                  No
    OpenMP threads:              1
    Integrals threads:           1
    Memory [MiB]:              375
    Schwarz Cutoff:          1E-12
    Fitting Condition:       1E-10

   => Auxiliary Basis Set <=

  Basis Set: (CC-PVDZ AUX)
    Blend: CC-PVDZ-JKFIT + DEF2-UNIVERSAL-JKFIT
    Number of shells: 53
    Number of basis functions: 163
    Number of Cartesian functions: 190
    Spherical Harmonics?: true
    Max angular momentum: 3

  ==> DFT Potential <==

   => LibXC <=

    Version 6.2.2
    S. Lehtola, C. Steigemann, M. J.T. Oliveira, and M. A.L. Marques.,  SoftwareX 7, 1â€“5 (2018) (10.1016/j.softx.2017.11.002)

   => Composite Functional: B3LYP <=

    B3LYP Hyb-GGA Exchange-Correlation Functional

    P. J. Stephens, F. J. Devlin, C. F. Chabalowski, and M. J. Frisch.,  J. Phys. Chem. 98, 11623 (1994) (10.1021/j100096a001)

    Deriv               =              1
    GGA                 =           TRUE
    Meta                =          FALSE

    Exchange Hybrid     =           TRUE
    MP2 Hybrid          =          FALSE

   => Exchange Functionals <=

    0.0800   Slater exchange
    0.7200         Becke 88

   => Exact (HF) Exchange <=

    0.2000               HF

   => Correlation Functionals <=

    0.1900   Vosko, Wilk & Nusair (VWN5_RPA)
    0.8100   Lee, Yang & Parr

   => LibXC Density Thresholds  <==

    XC_HYB_GGA_XC_B3LYP:  1.00E-15

   => Molecular Quadrature <=

    Radial Scheme          =       TREUTLER
    Pruning Scheme         =           NONE
    Nuclear Scheme         =       TREUTLER

    Blocking Scheme        =         OCTREE
    BS radius alpha        =              1
    Pruning alpha          =              1
    Radial Points          =             75
    Spherical Points       =            302
    Total Points           =          44329
    Total Blocks           =            438
    Max Points             =            255
    Max Functions          =             32
    Weights Tolerance      =       1.00E-15

  -Total Gradient:
     Atom            X                  Y                   Z
    ------   -----------------  -----------------  -----------------
       1        0.000000000000     0.000000000000    -0.000095203232
       2        0.000000000000     0.000000000000     0.000092702583

*** tstop() called on Joses-MacBook-Pro-2.local at Thu Jul 17 09:34:51 2025
Module time:
	user time   =       1.01 seconds =       0.02 minutes
	system time =       1.36 seconds =       0.02 minutes
	total time  =          0 seconds =       0.00 minutes
Total time:
	user time   =      67.45 seconds =       1.12 minutes
	system time =      59.35 seconds =       0.99 minutes
	total time  =         12 seconds =       0.20 minutes

    			-----------------------------------------

    			 OPTKING 3.0: for geometry optimizations

    			     By R.A. King, Bethel University

    			        with contributions from

    			    A.V. Copan, J. Cayton, A. Heide

    			-----------------------------------------

	                            ===> Fragment 1 <==

	 Z (Atomic Numbers)          Masses                          Geom
	       3.000000             7.016003          0.00000000  0.00000000  3.26517679
	      15.000000            30.973762          0.00000000  0.00000000 -0.73960960

	 - Coordinate -           - BOHR/RAD -       - ANG/DEG -
	 R(1,2)           =         4.004786           2.119242

	        --- Internal Coordinate Step in ANG or DEG, aJ/ANG or AJ/DEG ---
	-------------------------------------------------------------------------------
	           Coordinate      Previous         Force          Change          New
	           ----------      --------        ------          ------        ------
	               R(1,2)       2.11924        0.00077        0.00059       2.11983
	-------------------------------------------------------------------------------

	                                 ==> Convergence Check <==

	Measures of convergence in internal coordinates in au.

	Criteria marked as inactive (o), active & met (*), and active & unmet ( ).

	----------------------------------------------------------------------------------------------
	   Step    Total Energy     Delta E     Max Force     RMS Force      Max Disp      RMS Disp
	----------------------------------------------------------------------------------------------
	  Convergence Criteria     1.00e-06 *    3.00e-04 *             o    1.20e-03 *             o
	----------------------------------------------------------------------------------------------
	    11    -348.83102681   -7.06e-07 *    9.40e-05 *    9.40e-05 o    1.11e-03 *    1.11e-03 o  ~
	----------------------------------------------------------------------------------------------

Next Geometry in Ang
	Fragment 1 (Ang)

	   Li   0.0000000000   0.0000000000   1.7281504467
	    P   0.0000000000   0.0000000000  -0.3916778428

    Final optimized geometry and variables:
    Molecular point group: c2v
    Full point group: C_inf_v

    Geometry (in Angstrom), charge = -1, multiplicity = 2:

    LI           0.000000000000     0.000000000000     1.727857146798
    P            0.000000000000     0.000000000000    -0.391384542843

    Psi4 stopped on: Thursday, 17 July 2025 09:34AM
    Psi4 wall time for execution: 0:00:12.84

*** Psi4 exiting successfully. Buy a developer a beer!
