                               Psi4 1.9.1 release

  ==> Input File <==

--------------------------------------------------------------------------
molecule {
-1 2
Be   0.00000        0.60000        0.00000
Ne   0.00000       -0.60000        0.00000
}

set {
basis              cc-pvdz
reference          uks
maxiter            500
geom_maxiter       500
DAMPING_PERCENTAGE 1
guess              SAP
}

optimize('b3lyp')
--------------------------------------------------------------------------

    Molecular point group: c2v
  Charge       = -1
  Multiplicity = 2
  Basis Set: CC-PVDZ
    Blend: CC-PVDZ
  Basis Set: (CC-PVDZ AUX)
    Blend: CC-PVDZ-JKFIT + DEF2-UNIVERSAL-JKFIT
  @DF-UKS Final Energy:  -143.37852930867322
    Total Energy =                       -143.3785293086732224
 Dipole X            :          0.0000000            0.0000000            0.0000000
 Dipole Y            :          0.0000000            0.0000000            0.0000000
 Dipole Z            :         -2.0419203           -0.7937203           -2.8356406
 Magnitude           :                                                    2.8356406
    Molecular point group: c2v
  Basis Set: CC-PVDZ
    Blend: CC-PVDZ
  Basis Set: (CC-PVDZ AUX)
    Blend: CC-PVDZ-JKFIT + DEF2-UNIVERSAL-JKFIT
  Basis Set: CC-PVDZ
    Blend: CC-PVDZ
  Basis Set: (CC-PVDZ AUX)
    Blend: CC-PVDZ-JKFIT + DEF2-UNIVERSAL-JKFIT
  @DF-UKS Final Energy:  -143.45775698479176
    Total Energy =                       -143.4577569847917573
  Basis Set: CC-PVDZ
    Blend: CC-PVDZ
  Basis Set: (CC-PVDZ AUX)
    Blend: CC-PVDZ-JKFIT + DEF2-UNIVERSAL-JKFIT
  Basis Set: CC-PVDZ
    Blend: CC-PVDZ
  @DF-UKS Final Energy:  -143.48722866479625
    Total Energy =                       -143.4872286647962483
  @DF-UKS Final Energy:  -143.50774827776181
    Total Energy =                       -143.5077482777618059
  @DF-UKS Final Energy:  -143.52171499051303
    Total Energy =                       -143.5217149905130327
  @DF-UKS Final Energy:  -143.53315361155902
    Total Energy =                       -143.5331536115590154
  @DF-UKS Final Energy:  -143.54159455911164
    Total Energy =                       -143.5415945591116156
  @DF-UKS Final Energy:  -143.54243850236222
    Total Energy =                       -143.5424385023622165
  @DF-UKS Final Energy:  -143.54736974282287
    Total Energy =                       -143.5473697428228377
  @DF-UKS Final Energy:  -143.54762047490692
    Total Energy =                       -143.5476204749069211
  @DF-UKS Final Energy:  -143.54974841651165
    Total Energy =                       -143.5497484165116759
  @DF-UKS Final Energy:  -143.54980801643788
    Total Energy =                       -143.5498080164378791
  @DF-UKS Final Energy:  -143.55060701126695
    Total Energy =                       -143.5506070112669477
  @DF-UKS Final Energy:  -143.55082708609120
    Total Energy =                       -143.5508270860912319
  @DF-UKS Final Energy:  -143.55090149437004
    Total Energy =                       -143.5509014943700379
  @DF-UKS Final Energy:  -143.55091390704149
    Total Energy =                       -143.5509139070414619
  Basis Set: (CC-PVDZ AUX)
    Blend: CC-PVDZ-JKFIT + DEF2-UNIVERSAL-JKFIT
  Basis Set: CC-PVDZ
    Blend: CC-PVDZ
  Basis Set: (CC-PVDZ AUX)
    Blend: CC-PVDZ-JKFIT + DEF2-UNIVERSAL-JKFIT
  @DF-UKS Final Energy:  -143.55091538269181
    Total Energy =                       -143.5509153826918407
  Basis Set: CC-PVDZ
    Blend: CC-PVDZ
  Basis Set: (CC-PVDZ AUX)
    Blend: CC-PVDZ-JKFIT + DEF2-UNIVERSAL-JKFIT
  Charge       = -1
  Multiplicity = 2
  Basis Set: CC-PVDZ
    Blend: CC-PVDZ
  Basis Set: (CC-PVDZ AUX)
    Blend: CC-PVDZ-JKFIT + DEF2-UNIVERSAL-JKFIT

    Orbital Energies [Eh]
    ---------------------

    Alpha Occupied:

       1A1   -30.826481     2A1    -3.806775     3A1    -1.291433
       1B2    -0.400215     1B1    -0.400014     4A1    -0.399492
       5A1    -0.001692     2B1     0.113177

    Alpha Virtual:

       2B2     0.168145     6A1     0.170849     3B1     0.401282
       7A1     0.402447     3B2     0.417932     8A1     0.422642
       4B1     0.709889     1A2     0.709954     9A1     0.712976
      10A1     0.723124     4B2     0.723825     5B2     1.500235
       5B1     1.500693    11A1     1.525797    12A1     1.999030
       2A2     4.865340    13A1     4.865496     6B2     4.865837
       6B1     4.865964    14A1     4.866372

    Beta Occupied:

       1A1   -30.826467     2A1    -3.804740     3A1    -1.291411
       1B2    -0.400210     1B1    -0.399952     4A1    -0.399502
       5A1     0.021033

    Beta Virtual:

       2B2     0.172382     6A1     0.175116     2B1     0.193957
       7A1     0.413578     3B2     0.417846     8A1     0.423021
       3B1     0.437098     9A1     0.720662     4B2     0.721380
       4B1     0.742652     1A2     0.742681    10A1     0.750069
       5B2     1.500220     5B1     1.500743    11A1     1.525907
      12A1     1.999199     2A2     4.865367    13A1     4.865522
       6B2     4.865839     6B1     4.865990    14A1     4.866384

    Final Occupation by Irrep:
             A1    A2    B1    B2
    DOCC [     5,    0,    1,    1 ]
    SOCC [     0,    0,    1,    0 ]
    NA   [     5,    0,    2,    1 ]
    NB   [     5,    0,    1,    1 ]

  @DF-UKS Final Energy:  -143.55091566866275

   => Energetics <=

    Nuclear Repulsion Energy =              5.8405133712104620
    One-Electron Energy =                -215.7019958036076446
    Two-Electron Energy =                  78.8096413615268432
    DFT Exchange-Correlation Energy =     -12.4990745977924043
    Empirical Dispersion Energy =           0.0000000000000000
    VV10 Nonlocal Energy =                  0.0000000000000000
    Total Energy =                       -143.5509156686627534

  UHF NO Occupations:
  HONO-2 :    4 A1 2.0000000
  HONO-1 :    5 A1 1.9987106
  HONO-0 :    2 B1 1.0000000
  LUNO+0 :    6 A1 0.0012894
  LUNO+1 :    7 A1 0.0000000
  LUNO+2 :    3 B1 0.0000000
  LUNO+3 :    8 A1 0.0000000

Computation Completed

Properties will be evaluated at   0.000000,   0.000000,   0.000000 [a0]

Properties computed using the SCF density matrix

 Multipole Moments:

 ------------------------------------------------------------------------------------
     Multipole            Electronic (a.u.)      Nuclear  (a.u.)        Total (a.u.)
 ------------------------------------------------------------------------------------

 L = 1.  Multiply by 2.5417464519 to convert [e a0] to [Debye]
 Dipole X            :          0.0000000            0.0000000            0.0000000
 Dipole Y            :          0.0000000            0.0000000            0.0000000
 Dipole Z            :         -2.3755441           -2.3971562           -4.7727004
 Magnitude           :                                                    4.7727004

 ------------------------------------------------------------------------------------

*** tstop() called on Joses-MacBook-Pro-2.local at Thu Jul 17 09:41:43 2025
Module time:
	user time   =       2.87 seconds =       0.05 minutes
	system time =       2.15 seconds =       0.04 minutes
	total time  =          1 seconds =       0.02 minutes
Total time:
	user time   =      74.98 seconds =       1.25 minutes
	system time =      79.45 seconds =       1.32 minutes
	total time  =         15 seconds =       0.25 minutes

*** tstart() called on Joses-MacBook-Pro-2.local
*** at Thu Jul 17 09:41:43 2025

         ------------------------------------------------------------
                                   SCF GRAD
                          Rob Parrish, Justin Turney,
                       Andy Simmonett, and Alex Sokolov
         ------------------------------------------------------------

  ==> Geometry <==

    Molecular point group: c2v
    Full point group: C_inf_v

    Geometry (in Angstrom), charge = -1, multiplicity = 2:

       Center              X                  Y                   Z               Mass
    ------------   -----------------  -----------------  -----------------  -----------------
         BE           0.000000000000     0.000000000000     2.498093435729     9.012183065000
         NE           0.000000000000     0.000000000000    -1.126089419693    19.992440176200

  Nuclear repulsion =    5.840513371210462

  ==> Basis Set <==

  Basis Set: CC-PVDZ
    Blend: CC-PVDZ
    Number of shells: 12
    Number of basis functions: 28
    Number of Cartesian functions: 30
    Spherical Harmonics?: true
    Max angular momentum: 2

  ==> DFJKGrad: Density-Fitted SCF Gradients <==

    Gradient:                    1
    J tasked:                  Yes
    K tasked:                  Yes
    wK tasked:                  No
    OpenMP threads:              1
    Integrals threads:           1
    Memory [MiB]:              375
    Schwarz Cutoff:          1E-12
    Fitting Condition:       1E-10

   => Auxiliary Basis Set <=

  Basis Set: (CC-PVDZ AUX)
    Blend: CC-PVDZ-JKFIT + DEF2-UNIVERSAL-JKFIT
    Number of shells: 41
    Number of basis functions: 121
    Number of Cartesian functions: 141
    Spherical Harmonics?: true
    Max angular momentum: 3

  ==> DFT Potential <==

   => LibXC <=

    Version 6.2.2
    S. Lehtola, C. Steigemann, M. J.T. Oliveira, and M. A.L. Marques.,  SoftwareX 7, 1â€“5 (2018) (10.1016/j.softx.2017.11.002)

   => Composite Functional: B3LYP <=

    B3LYP Hyb-GGA Exchange-Correlation Functional

    P. J. Stephens, F. J. Devlin, C. F. Chabalowski, and M. J. Frisch.,  J. Phys. Chem. 98, 11623 (1994) (10.1021/j100096a001)

    Deriv               =              1
    GGA                 =           TRUE
    Meta                =          FALSE

    Exchange Hybrid     =           TRUE
    MP2 Hybrid          =          FALSE

   => Exchange Functionals <=

    0.0800   Slater exchange
    0.7200         Becke 88

   => Exact (HF) Exchange <=

    0.2000               HF

   => Correlation Functionals <=

    0.1900   Vosko, Wilk & Nusair (VWN5_RPA)
    0.8100   Lee, Yang & Parr

   => LibXC Density Thresholds  <==

    XC_HYB_GGA_XC_B3LYP:  1.00E-15

   => Molecular Quadrature <=

    Radial Scheme          =       TREUTLER
    Pruning Scheme         =           NONE
    Nuclear Scheme         =       TREUTLER

    Blocking Scheme        =         OCTREE
    BS radius alpha        =              1
    Pruning alpha          =              1
    Radial Points          =             75
    Spherical Points       =            302
    Total Points           =          43668
    Total Blocks           =            397
    Max Points             =            255
    Max Functions          =             28
    Weights Tolerance      =       1.00E-15

  -Total Gradient:
     Atom            X                  Y                   Z
    ------   -----------------  -----------------  -----------------
       1        0.000000000000     0.000000000000    -0.000024838054
       2        0.000000000000     0.000000000000    -0.000019766386

*** tstop() called on Joses-MacBook-Pro-2.local at Thu Jul 17 09:41:43 2025
Module time:
	user time   =       0.30 seconds =       0.01 minutes
	system time =       1.13 seconds =       0.02 minutes
	total time  =          0 seconds =       0.00 minutes
Total time:
	user time   =      75.29 seconds =       1.25 minutes
	system time =      80.58 seconds =       1.34 minutes
	total time  =         15 seconds =       0.25 minutes

    			-----------------------------------------

    			 OPTKING 3.0: for geometry optimizations

    			     By R.A. King, Bethel University

    			        with contributions from

    			    A.V. Copan, J. Cayton, A. Heide

    			-----------------------------------------

	                            ===> Fragment 1 <==

	 Z (Atomic Numbers)          Masses                          Geom
	       4.000000             9.012183          0.00000000  0.00000000  4.72071243
	      10.000000            19.992440          0.00000000  0.00000000 -2.12800060

	 - Coordinate -           - BOHR/RAD -       - ANG/DEG -
	 R(1,2)           =         6.848713           3.624183

	        --- Internal Coordinate Step in ANG or DEG, aJ/ANG or AJ/DEG ---
	-------------------------------------------------------------------------------
	           Coordinate      Previous         Force          Change          New
	           ----------      --------        ------          ------        ------
	               R(1,2)       3.62418        0.00002        0.00112       3.62531
	-------------------------------------------------------------------------------

	                                 ==> Convergence Check <==

	Measures of convergence in internal coordinates in au.

	Criteria marked as inactive (o), active & met (*), and active & unmet ( ).

	----------------------------------------------------------------------------------------------
	   Step    Total Energy     Delta E     Max Force     RMS Force      Max Disp      RMS Disp
	----------------------------------------------------------------------------------------------
	  Convergence Criteria     1.00e-06 *    3.00e-04 *             o    1.20e-03 *             o
	----------------------------------------------------------------------------------------------
	    18    -143.55091567   -2.86e-07 *    2.54e-06 *    2.54e-06 o    2.12e-03      2.12e-03 o  ~
	----------------------------------------------------------------------------------------------

Next Geometry in Ang
	Fragment 1 (Ang)

	   Be   0.0000000000   0.0000000000   2.4986550616
	   Ne   0.0000000000   0.0000000000  -1.1266510456

    Final optimized geometry and variables:
    Molecular point group: c2v
    Full point group: C_inf_v

    Geometry (in Angstrom), charge = -1, multiplicity = 2:

    BE           0.000000000000     0.000000000000     2.498093435729
    NE           0.000000000000     0.000000000000    -1.126089419693

    Psi4 stopped on: Thursday, 17 July 2025 09:41AM
    Psi4 wall time for execution: 0:00:15.25

*** Psi4 exiting successfully. Buy a developer a beer!
