                               Psi4 1.9.1 release

  ==> Input File <==

--------------------------------------------------------------------------
molecule {
-1 2
C   0.00000        0.60000        0.00000
Si   0.00000       -0.60000        0.00000
}

set {
basis              cc-pvdz
reference          uks
maxiter            500
geom_maxiter       500
DAMPING_PERCENTAGE 1
guess              SAP
}

optimize('b3lyp')
--------------------------------------------------------------------------

    Molecular point group: c2v
  Charge       = -1
  Multiplicity = 2
  Basis Set: CC-PVDZ
    Blend: CC-PVDZ
  Basis Set: (CC-PVDZ AUX)
    Blend: CC-PVDZ-JKFIT
  @DF-UKS Final Energy:  -327.10703600922432
    Total Energy =                       -327.1070360092243163
 Dipole X            :          0.0000000            0.0000000            0.0000000
 Dipole Y            :          0.0000000            0.0000000            0.0000000
 Dipole Z            :         -0.2205047           -0.0078530           -0.2283576
 Magnitude           :                                                    0.2283576
    Molecular point group: c2v
  Basis Set: CC-PVDZ
    Blend: CC-PVDZ
  Basis Set: (CC-PVDZ AUX)
    Blend: CC-PVDZ-JKFIT
  Basis Set: CC-PVDZ
    Blend: CC-PVDZ
  Basis Set: (CC-PVDZ AUX)
    Blend: CC-PVDZ-JKFIT
  @DF-UKS Final Energy:  -327.31891736598169
    Total Energy =                       -327.3189173659816902
  Basis Set: CC-PVDZ
    Blend: CC-PVDZ
  Basis Set: (CC-PVDZ AUX)
    Blend: CC-PVDZ-JKFIT
  Basis Set: CC-PVDZ
    Blend: CC-PVDZ
  @DF-UKS Final Energy:  -327.41524367187952
    Total Energy =                       -327.4152436718795229
  @DF-UKS Final Energy:  -327.44330446931843
    Total Energy =                       -327.4433044693184911
  @DF-UKS Final Energy:  -327.45597307064719
    Total Energy =                       -327.4559730706472465
  @DF-UKS Final Energy:  -327.46009521341318
    Total Energy =                       -327.4600952134131830
  @DF-UKS Final Energy:  -327.46074457487128
    Total Energy =                       -327.4607445748713417
  @DF-UKS Final Energy:  -327.46085913849890
    Total Energy =                       -327.4608591384989040
  Basis Set: (CC-PVDZ AUX)
    Blend: CC-PVDZ-JKFIT
  Basis Set: CC-PVDZ
    Blend: CC-PVDZ
  Basis Set: (CC-PVDZ AUX)
    Blend: CC-PVDZ-JKFIT
  @DF-UKS Final Energy:  -327.46088284067599
    Total Energy =                       -327.4608828406759358
  Basis Set: CC-PVDZ
    Blend: CC-PVDZ
  Basis Set: (CC-PVDZ AUX)
    Blend: CC-PVDZ-JKFIT
  Charge       = -1
  Multiplicity = 2
  Basis Set: CC-PVDZ
    Blend: CC-PVDZ
  Basis Set: (CC-PVDZ AUX)
    Blend: CC-PVDZ-JKFIT

    Orbital Energies [Eh]
    ---------------------

    Alpha Occupied:

       1A1   -65.872484     2A1    -9.969300     3A1    -5.020234
       4A1    -3.380195     1B2    -3.377160     1B1    -3.377160
       5A1    -0.373215     6A1    -0.132086     7A1    -0.018048
       2B2     0.009264     2B1     0.009264

    Alpha Virtual:

       3B2     0.197730     3B1     0.197730     8A1     0.293255
       9A1     0.481754     4B2     0.544300     4B1     0.544300
      10A1     0.591918     1A2     0.627256    11A1     0.627256
      12A1     0.654133     5B2     0.700154     5B1     0.700154
       6B2     0.772130     6B1     0.772130    13A1     1.073572
      14A1     1.159100     2A2     1.451846    15A1     1.451847
       7B1     1.637482     7B2     1.637482    16A1     1.955602

    Beta Occupied:

       1A1   -65.871929     2A1    -9.954754     3A1    -5.019719
       1B2    -3.377991     1B1    -3.377991     4A1    -3.375595
       5A1    -0.331765     6A1    -0.091453     2B2     0.023039
       2B1     0.023039

    Beta Virtual:

       7A1     0.110224     3B2     0.211363     3B1     0.211363
       8A1     0.301405     9A1     0.487288     4B2     0.541326
       4B1     0.541326     1A2     0.617476    10A1     0.617477
      11A1     0.627143    12A1     0.682468     5B2     0.714858
       5B1     0.714858     6B2     0.791938     6B1     0.791938
      13A1     1.119202    14A1     1.181706     2A2     1.475213
      15A1     1.475213     7B1     1.686623     7B2     1.686623
      16A1     2.008651

    Final Occupation by Irrep:
             A1    A2    B1    B2
    DOCC [     6,    0,    2,    2 ]
    SOCC [     1,    0,    0,    0 ]
    NA   [     7,    0,    2,    2 ]
    NB   [     6,    0,    2,    2 ]

  @DF-UKS Final Energy:  -327.46088535492402

   => Energetics <=

    Nuclear Repulsion Energy =             26.3585728313461587
    One-Electron Energy =                -509.5763219084048501
    Two-Electron Energy =                 177.0461025555765389
    DFT Exchange-Correlation Energy =     -21.2892388334418854
    Empirical Dispersion Energy =           0.0000000000000000
    VV10 Nonlocal Energy =                  0.0000000000000000
    Total Energy =                       -327.4608853549240166

  UHF NO Occupations:
  HONO-2 :    2 B1 1.9904474
  HONO-1 :    2 B2 1.9904474
  HONO-0 :    7 A1 1.0000000
  LUNO+0 :    3 B2 0.0095526
  LUNO+1 :    3 B1 0.0095526
  LUNO+2 :    8 A1 0.0015754
  LUNO+3 :    9 A1 0.0004779

Computation Completed

Properties will be evaluated at   0.000000,   0.000000,   0.000000 [a0]

Properties computed using the SCF density matrix

 Multipole Moments:

 ------------------------------------------------------------------------------------
     Multipole            Electronic (a.u.)      Nuclear  (a.u.)        Total (a.u.)
 ------------------------------------------------------------------------------------

 L = 1.  Multiply by 2.5417464519 to convert [e a0] to [Debye]
 Dipole X            :          0.0000000            0.0000000            0.0000000
 Dipole Y            :          0.0000000            0.0000000            0.0000000
 Dipole Z            :         -0.5270617           -0.0110360           -0.5380977
 Magnitude           :                                                    0.5380977

 ------------------------------------------------------------------------------------

*** tstop() called on Joses-MacBook-Pro-2.local at Thu Jul 17 10:20:27 2025
Module time:
	user time   =       6.88 seconds =       0.11 minutes
	system time =       1.64 seconds =       0.03 minutes
	total time  =          1 seconds =       0.02 minutes
Total time:
	user time   =      79.90 seconds =       1.33 minutes
	system time =      44.65 seconds =       0.74 minutes
	total time  =         14 seconds =       0.23 minutes

*** tstart() called on Joses-MacBook-Pro-2.local
*** at Thu Jul 17 10:20:27 2025

         ------------------------------------------------------------
                                   SCF GRAD
                          Rob Parrish, Justin Turney,
                       Andy Simmonett, and Alex Sokolov
         ------------------------------------------------------------

  ==> Geometry <==

    Molecular point group: c2v
    Full point group: C_inf_v

    Geometry (in Angstrom), charge = -1, multiplicity = 2:

       Center              X                  Y                   Z               Mass
    ------------   -----------------  -----------------  -----------------  -----------------
         C            0.000000000000     0.000000000000     1.180182382290    12.000000000000
         SI           0.000000000000     0.000000000000    -0.506209592749    27.976926534650

  Nuclear repulsion =   26.358572831346159

  ==> Basis Set <==

  Basis Set: CC-PVDZ
    Blend: CC-PVDZ
    Number of shells: 14
    Number of basis functions: 32
    Number of Cartesian functions: 34
    Spherical Harmonics?: true
    Max angular momentum: 2

  ==> DFJKGrad: Density-Fitted SCF Gradients <==

    Gradient:                    1
    J tasked:                  Yes
    K tasked:                  Yes
    wK tasked:                  No
    OpenMP threads:              1
    Integrals threads:           1
    Memory [MiB]:              375
    Schwarz Cutoff:          1E-12
    Fitting Condition:       1E-10

   => Auxiliary Basis Set <=

  Basis Set: (CC-PVDZ AUX)
    Blend: CC-PVDZ-JKFIT
    Number of shells: 60
    Number of basis functions: 182
    Number of Cartesian functions: 211
    Spherical Harmonics?: true
    Max angular momentum: 3

  ==> DFT Potential <==

   => LibXC <=

    Version 6.2.2
    S. Lehtola, C. Steigemann, M. J.T. Oliveira, and M. A.L. Marques.,  SoftwareX 7, 1â€“5 (2018) (10.1016/j.softx.2017.11.002)

   => Composite Functional: B3LYP <=

    B3LYP Hyb-GGA Exchange-Correlation Functional

    P. J. Stephens, F. J. Devlin, C. F. Chabalowski, and M. J. Frisch.,  J. Phys. Chem. 98, 11623 (1994) (10.1021/j100096a001)

    Deriv               =              1
    GGA                 =           TRUE
    Meta                =          FALSE

    Exchange Hybrid     =           TRUE
    MP2 Hybrid          =          FALSE

   => Exchange Functionals <=

    0.0800   Slater exchange
    0.7200         Becke 88

   => Exact (HF) Exchange <=

    0.2000               HF

   => Correlation Functionals <=

    0.1900   Vosko, Wilk & Nusair (VWN5_RPA)
    0.8100   Lee, Yang & Parr

   => LibXC Density Thresholds  <==

    XC_HYB_GGA_XC_B3LYP:  1.00E-15

   => Molecular Quadrature <=

    Radial Scheme          =       TREUTLER
    Pruning Scheme         =           NONE
    Nuclear Scheme         =       TREUTLER

    Blocking Scheme        =         OCTREE
    BS radius alpha        =              1
    Pruning alpha          =              1
    Radial Points          =             75
    Spherical Points       =            302
    Total Points           =          42438
    Total Blocks           =            391
    Max Points             =            255
    Max Functions          =             32
    Weights Tolerance      =       1.00E-15

  -Total Gradient:
     Atom            X                  Y                   Z
    ------   -----------------  -----------------  -----------------
       1       -0.000000000000     0.000000000000    -0.000263073383
       2        0.000000000000    -0.000000000000     0.000251237532

*** tstop() called on Joses-MacBook-Pro-2.local at Thu Jul 17 10:20:27 2025
Module time:
	user time   =       2.37 seconds =       0.04 minutes
	system time =       0.27 seconds =       0.00 minutes
	total time  =          0 seconds =       0.00 minutes
Total time:
	user time   =      82.27 seconds =       1.37 minutes
	system time =      44.92 seconds =       0.75 minutes
	total time  =         14 seconds =       0.23 minutes

    			-----------------------------------------

    			 OPTKING 3.0: for geometry optimizations

    			     By R.A. King, Bethel University

    			        with contributions from

    			    A.V. Copan, J. Cayton, A. Heide

    			-----------------------------------------

	                            ===> Fragment 1 <==

	 Z (Atomic Numbers)          Masses                          Geom
	       6.000000            12.000000          0.00000000  0.00000000  2.23022148
	      14.000000            27.976927          0.00000000  0.00000000 -0.95659749

	 - Coordinate -           - BOHR/RAD -       - ANG/DEG -
	 R(1,2)           =         3.186819           1.686392

	        --- Internal Coordinate Step in ANG or DEG, aJ/ANG or AJ/DEG ---
	-------------------------------------------------------------------------------
	           Coordinate      Previous         Force          Change          New
	           ----------      --------        ------          ------        ------
	               R(1,2)       1.68639        0.00212        0.00036       1.68676
	-------------------------------------------------------------------------------

	                                 ==> Convergence Check <==

	Measures of convergence in internal coordinates in au.

	Criteria marked as inactive (o), active & met (*), and active & unmet ( ).

	----------------------------------------------------------------------------------------------
	   Step    Total Energy     Delta E     Max Force     RMS Force      Max Disp      RMS Disp
	----------------------------------------------------------------------------------------------
	  Convergence Criteria     1.00e-06 *    3.00e-04 *             o    1.20e-03 *             o
	----------------------------------------------------------------------------------------------
	    10    -327.46088535   -2.51e-06      2.57e-04 *    2.57e-04 o    6.88e-04 *    6.88e-04 o  ~
	----------------------------------------------------------------------------------------------

Next Geometry in Ang
	Fragment 1 (Ang)

	    C   0.0000000000   0.0000000000   1.1803643172
	   Si   0.0000000000   0.0000000000  -0.5063915277

    Final optimized geometry and variables:
    Molecular point group: c2v
    Full point group: C_inf_v

    Geometry (in Angstrom), charge = -1, multiplicity = 2:

    C            0.000000000000     0.000000000000     1.180182382290
    SI           0.000000000000     0.000000000000    -0.506209592749

    Psi4 stopped on: Thursday, 17 July 2025 10:20AM
    Psi4 wall time for execution: 0:00:14.39

*** Psi4 exiting successfully. Buy a developer a beer!
