                               Psi4 1.9.1 release

  ==> Input File <==

--------------------------------------------------------------------------
molecule {
-1 2
O   0.00000        0.60000        0.00000
Ne   0.00000       -0.60000        0.00000
}

set {
basis              cc-pvdz
reference          uks
maxiter            500
geom_maxiter       500
DAMPING_PERCENTAGE 1
guess              SAP
}

optimize('b3lyp')
--------------------------------------------------------------------------

    Molecular point group: c2v
  Charge       = -1
  Multiplicity = 2
  Basis Set: CC-PVDZ
    Blend: CC-PVDZ
  Basis Set: (CC-PVDZ AUX)
    Blend: CC-PVDZ-JKFIT
  @DF-UKS Final Energy:  -203.48430970816273
    Total Energy =                       -203.4843097081627263
 Dipole X            :          0.0000000            0.0000000            0.0000000
 Dipole Y            :          0.0000000            0.0000000            0.0000000
 Dipole Z            :         -1.9602273           -0.0006065           -1.9608338
 Magnitude           :                                                    1.9608338
    Molecular point group: c2v
  Basis Set: CC-PVDZ
    Blend: CC-PVDZ
  Basis Set: (CC-PVDZ AUX)
    Blend: CC-PVDZ-JKFIT
  Basis Set: CC-PVDZ
    Blend: CC-PVDZ
  Basis Set: (CC-PVDZ AUX)
    Blend: CC-PVDZ-JKFIT
  @DF-UKS Final Energy:  -203.79954004353198
    Total Energy =                       -203.7995400435319766
  Basis Set: CC-PVDZ
    Blend: CC-PVDZ
  Basis Set: (CC-PVDZ AUX)
    Blend: CC-PVDZ-JKFIT
  Basis Set: CC-PVDZ
    Blend: CC-PVDZ
  @DF-UKS Final Energy:  -203.87004885285242
    Total Energy =                       -203.8700488528524204
  @DF-UKS Final Energy:  -203.91803216648628
    Total Energy =                       -203.9180321664862845
  @DF-UKS Final Energy:  -203.94061958089569
    Total Energy =                       -203.9406195808956852
  @DF-UKS Final Energy:  -203.95253951252923
    Total Energy =                       -203.9525395125292277
  @DF-UKS Final Energy:  -203.95863431640839
    Total Energy =                       -203.9586343164083928
  @DF-UKS Final Energy:  -203.96161219854449
    Total Energy =                       -203.9616121985444863
  @DF-UKS Final Energy:  -203.96290652269974
    Total Energy =                       -203.9629065226997398
  @DF-UKS Final Energy:  -203.96337949584589
    Total Energy =                       -203.9633794958459134
  @DF-UKS Final Energy:  -203.96349253660262
    Total Energy =                       -203.9634925366026152
  @DF-UKS Final Energy:  -203.96353510285053
    Total Energy =                       -203.9635351028505283
  @DF-UKS Final Energy:  -203.96354362671940
    Total Energy =                       -203.9635436267193995
  Basis Set: (CC-PVDZ AUX)
    Blend: CC-PVDZ-JKFIT
  Basis Set: CC-PVDZ
    Blend: CC-PVDZ
  Basis Set: (CC-PVDZ AUX)
    Blend: CC-PVDZ-JKFIT
  @DF-UKS Final Energy:  -203.96354551040417
    Total Energy =                       -203.9635455104041739
  Basis Set: CC-PVDZ
    Blend: CC-PVDZ
  Basis Set: (CC-PVDZ AUX)
    Blend: CC-PVDZ-JKFIT
  Charge       = -1
  Multiplicity = 2
  Basis Set: CC-PVDZ
    Blend: CC-PVDZ
  Basis Set: (CC-PVDZ AUX)
    Blend: CC-PVDZ-JKFIT

    Orbital Energies [Eh]
    ---------------------

    Alpha Occupied:

       1A1   -30.774524     2A1   -18.662612     3A1    -1.240305
       4A1    -0.424367     1B1    -0.349686     1B2    -0.349686
       5A1    -0.345927     6A1     0.100316     2B2     0.170248
       2B1     0.170248

    Alpha Virtual:

       7A1     1.250496     3B2     1.333684     3B1     1.333684
       8A1     1.527381     4B1     1.549370     4B2     1.549370
       9A1     1.648248    10A1     2.027849    11A1     3.021860
       5B1     3.039493     5B2     3.039493    12A1     3.096406
       1A2     3.096418     2A2     4.915910    13A1     4.915964
       6B1     4.917708     6B2     4.917708    14A1     4.918751

    Beta Occupied:

       1A1   -30.774383     2A1   -18.641075     3A1    -1.240111
       4A1    -0.354076     1B1    -0.349613     1B2    -0.349613
       5A1    -0.341847     2B2     0.193823     2B1     0.193823

    Beta Virtual:

       6A1     0.330719     7A1     1.338598     3B2     1.350323
       3B1     1.350323     4B1     1.549406     4B2     1.549406
       8A1     1.560580     9A1     1.670143    10A1     2.029723
      11A1     3.107966     1A2     3.107977     5B1     3.116749
       5B2     3.116749    12A1     3.132730     2A2     4.915972
      13A1     4.916025     6B1     4.917916     6B2     4.917916
      14A1     4.919009

    Final Occupation by Irrep:
             A1    A2    B1    B2
    DOCC [     5,    0,    2,    2 ]
    SOCC [     1,    0,    0,    0 ]
    NA   [     6,    0,    2,    2 ]
    NB   [     5,    0,    2,    2 ]

  @DF-UKS Final Energy:  -203.96354597835037

   => Energetics <=

    Nuclear Repulsion Energy =             15.2580649796017465
    One-Electron Energy =                -322.6823076996420241
    Two-Electron Energy =                 120.7447062507672655
    DFT Exchange-Correlation Energy =     -17.2840095090773538
    Empirical Dispersion Energy =           0.0000000000000000
    VV10 Nonlocal Energy =                  0.0000000000000000
    Total Energy =                       -203.9635459783503961

  UHF NO Occupations:
  HONO-2 :    2 B1 1.9999433
  HONO-1 :    5 A1 1.9996431
  HONO-0 :    6 A1 1.0000000
  LUNO+0 :    7 A1 0.0003569
  LUNO+1 :    3 B2 0.0000567
  LUNO+2 :    3 B1 0.0000567
  LUNO+3 :    8 A1 0.0000002

Computation Completed

Properties will be evaluated at   0.000000,   0.000000,   0.000000 [a0]

Properties computed using the SCF density matrix

 Multipole Moments:

 ------------------------------------------------------------------------------------
     Multipole            Electronic (a.u.)      Nuclear  (a.u.)        Total (a.u.)
 ------------------------------------------------------------------------------------

 L = 1.  Multiply by 2.5417464519 to convert [e a0] to [Debye]
 Dipole X            :          0.0000000            0.0000000            0.0000000
 Dipole Y            :          0.0000000            0.0000000            0.0000000
 Dipole Z            :         -2.8964354           -0.0014023           -2.8978377
 Magnitude           :                                                    2.8978377

 ------------------------------------------------------------------------------------

*** tstop() called on Joses-MacBook-Pro-2.local at Thu Jul 17 10:39:24 2025
Module time:
	user time   =       1.85 seconds =       0.03 minutes
	system time =       2.53 seconds =       0.04 minutes
	total time  =          1 seconds =       0.02 minutes
Total time:
	user time   =      55.38 seconds =       0.92 minutes
	system time =      70.08 seconds =       1.17 minutes
	total time  =         13 seconds =       0.22 minutes

*** tstart() called on Joses-MacBook-Pro-2.local
*** at Thu Jul 17 10:39:24 2025

         ------------------------------------------------------------
                                   SCF GRAD
                          Rob Parrish, Justin Turney,
                       Andy Simmonett, and Alex Sokolov
         ------------------------------------------------------------

  ==> Geometry <==

    Molecular point group: c2v
    Full point group: C_inf_v

    Geometry (in Angstrom), charge = -1, multiplicity = 2:

       Center              X                  Y                   Z               Mass
    ------------   -----------------  -----------------  -----------------  -----------------
         O            0.000000000000     0.000000000000     1.541372261758    15.994914619570
         NE           0.000000000000     0.000000000000    -1.233172014347    19.992440176200

  Nuclear repulsion =   15.258064979601746

  ==> Basis Set <==

  Basis Set: CC-PVDZ
    Blend: CC-PVDZ
    Number of shells: 12
    Number of basis functions: 28
    Number of Cartesian functions: 30
    Spherical Harmonics?: true
    Max angular momentum: 2

  ==> DFJKGrad: Density-Fitted SCF Gradients <==

    Gradient:                    1
    J tasked:                  Yes
    K tasked:                  Yes
    wK tasked:                  No
    OpenMP threads:              1
    Integrals threads:           1
    Memory [MiB]:              375
    Schwarz Cutoff:          1E-12
    Fitting Condition:       1E-10

   => Auxiliary Basis Set <=

  Basis Set: (CC-PVDZ AUX)
    Blend: CC-PVDZ-JKFIT
    Number of shells: 48
    Number of basis functions: 140
    Number of Cartesian functions: 162
    Spherical Harmonics?: true
    Max angular momentum: 3

  ==> DFT Potential <==

   => LibXC <=

    Version 6.2.2
    S. Lehtola, C. Steigemann, M. J.T. Oliveira, and M. A.L. Marques.,  SoftwareX 7, 1â€“5 (2018) (10.1016/j.softx.2017.11.002)

   => Composite Functional: B3LYP <=

    B3LYP Hyb-GGA Exchange-Correlation Functional

    P. J. Stephens, F. J. Devlin, C. F. Chabalowski, and M. J. Frisch.,  J. Phys. Chem. 98, 11623 (1994) (10.1021/j100096a001)

    Deriv               =              1
    GGA                 =           TRUE
    Meta                =          FALSE

    Exchange Hybrid     =           TRUE
    MP2 Hybrid          =          FALSE

   => Exchange Functionals <=

    0.0800   Slater exchange
    0.7200         Becke 88

   => Exact (HF) Exchange <=

    0.2000               HF

   => Correlation Functionals <=

    0.1900   Vosko, Wilk & Nusair (VWN5_RPA)
    0.8100   Lee, Yang & Parr

   => LibXC Density Thresholds  <==

    XC_HYB_GGA_XC_B3LYP:  1.00E-15

   => Molecular Quadrature <=

    Radial Scheme          =       TREUTLER
    Pruning Scheme         =           NONE
    Nuclear Scheme         =       TREUTLER

    Blocking Scheme        =         OCTREE
    BS radius alpha        =              1
    Pruning alpha          =              1
    Radial Points          =             75
    Spherical Points       =            302
    Total Points           =          42379
    Total Blocks           =            380
    Max Points             =            256
    Max Functions          =             28
    Weights Tolerance      =       1.00E-15

  -Total Gradient:
     Atom            X                  Y                   Z
    ------   -----------------  -----------------  -----------------
       1       -0.000000000000     0.000000000000    -0.000023607387
       2        0.000000000000    -0.000000000000     0.000024537561

*** tstop() called on Joses-MacBook-Pro-2.local at Thu Jul 17 10:39:24 2025
Module time:
	user time   =       0.80 seconds =       0.01 minutes
	system time =       0.55 seconds =       0.01 minutes
	total time  =          0 seconds =       0.00 minutes
Total time:
	user time   =      56.18 seconds =       0.94 minutes
	system time =      70.63 seconds =       1.18 minutes
	total time  =         13 seconds =       0.22 minutes

    			-----------------------------------------

    			 OPTKING 3.0: for geometry optimizations

    			     By R.A. King, Bethel University

    			        with contributions from

    			    A.V. Copan, J. Cayton, A. Heide

    			-----------------------------------------

	                            ===> Fragment 1 <==

	 Z (Atomic Numbers)          Masses                          Geom
	       8.000000            15.994915          0.00000000  0.00000000  2.91277143
	      10.000000            19.992440          0.00000000  0.00000000 -2.33035737

	 - Coordinate -           - BOHR/RAD -       - ANG/DEG -
	 R(1,2)           =         5.243129           2.774544

	        --- Internal Coordinate Step in ANG or DEG, aJ/ANG or AJ/DEG ---
	-------------------------------------------------------------------------------
	           Coordinate      Previous         Force          Change          New
	           ----------      --------        ------          ------        ------
	               R(1,2)       2.77454        0.00020        0.00298       2.77753
	-------------------------------------------------------------------------------

	                                 ==> Convergence Check <==

	Measures of convergence in internal coordinates in au.

	Criteria marked as inactive (o), active & met (*), and active & unmet ( ).

	----------------------------------------------------------------------------------------------
	   Step    Total Energy     Delta E     Max Force     RMS Force      Max Disp      RMS Disp
	----------------------------------------------------------------------------------------------
	  Convergence Criteria     1.00e-06 *    3.00e-04 *             o    1.20e-03 *             o
	----------------------------------------------------------------------------------------------
	    15    -203.96354598   -4.68e-07 *    2.41e-05 *    2.41e-05 o    5.64e-03      5.64e-03 o  ~
	----------------------------------------------------------------------------------------------

Next Geometry in Ang
	Fragment 1 (Ang)

	    O   0.0000000000   0.0000000000   1.5428639748
	   Ne   0.0000000000   0.0000000000  -1.2346637274

    Final optimized geometry and variables:
    Molecular point group: c2v
    Full point group: C_inf_v

    Geometry (in Angstrom), charge = -1, multiplicity = 2:

    O            0.000000000000     0.000000000000     1.541372261758
    NE           0.000000000000     0.000000000000    -1.233172014347

    Psi4 stopped on: Thursday, 17 July 2025 10:39AM
    Psi4 wall time for execution: 0:00:13.51

*** Psi4 exiting successfully. Buy a developer a beer!
