                               Psi4 1.9.1 release

  ==> Input File <==

--------------------------------------------------------------------------
molecule {
-1 2
H   0.00000        0.60000        0.00000
P   0.00000       -0.60000        0.00000
}

set {
basis              cc-pvdz
reference          uks
maxiter            500
geom_maxiter       500
DAMPING_PERCENTAGE 1
guess              SAP
}

optimize('b3lyp')
--------------------------------------------------------------------------

    Molecular point group: c2v
  Charge       = -1
  Multiplicity = 2
  Basis Set: CC-PVDZ
    Blend: CC-PVDZ
  Basis Set: (CC-PVDZ AUX)
    Blend: CC-PVDZ-JKFIT
  @DF-UKS Final Energy:  -341.87156090659698
    Total Energy =                       -341.8715609065969261
 Dipole X            :          0.0000000            0.0000000            0.0000000
 Dipole Y            :          0.0000000            0.0000000            0.0000000
 Dipole Z            :         -0.8524463            1.1243055            0.2718592
 Magnitude           :                                                    0.2718592
    Molecular point group: c2v
  Basis Set: CC-PVDZ
    Blend: CC-PVDZ
  Basis Set: (CC-PVDZ AUX)
    Blend: CC-PVDZ-JKFIT
  Basis Set: CC-PVDZ
    Blend: CC-PVDZ
  Basis Set: (CC-PVDZ AUX)
    Blend: CC-PVDZ-JKFIT
  @DF-UKS Final Energy:  -341.90452727739967
    Total Energy =                       -341.9045272773996658
  Basis Set: CC-PVDZ
    Blend: CC-PVDZ
  Basis Set: (CC-PVDZ AUX)
    Blend: CC-PVDZ-JKFIT
  Basis Set: CC-PVDZ
    Blend: CC-PVDZ
  @DF-UKS Final Energy:  -341.90611936404605
    Total Energy =                       -341.9061193640461056
  @DF-UKS Final Energy:  -341.90645876071432
    Total Energy =                       -341.9064587607143153
  @DF-UKS Final Energy:  -341.90653799290703
    Total Energy =                       -341.9065379929070332
  @DF-UKS Final Energy:  -341.90655734196798
    Total Energy =                       -341.9065573419679822
  Basis Set: (CC-PVDZ AUX)
    Blend: CC-PVDZ-JKFIT
  Basis Set: CC-PVDZ
    Blend: CC-PVDZ
  Basis Set: (CC-PVDZ AUX)
    Blend: CC-PVDZ-JKFIT
  @DF-UKS Final Energy:  -341.90656360960060
    Total Energy =                       -341.9065636096005960
  Basis Set: CC-PVDZ
    Blend: CC-PVDZ
  Basis Set: (CC-PVDZ AUX)
    Blend: CC-PVDZ-JKFIT
  Charge       = -1
  Multiplicity = 2
  Basis Set: CC-PVDZ
    Blend: CC-PVDZ
  Basis Set: (CC-PVDZ AUX)
    Blend: CC-PVDZ-JKFIT

    Orbital Energies [Eh]
    ---------------------

    Alpha Occupied:

       1A1   -76.773596     2A1    -6.240103     1B1    -4.408149
       3A1    -4.402120     1B2    -4.394512     4A1    -0.291549
       5A1    -0.047889     2B1     0.046640     2B2     0.085924

    Alpha Virtual:

       6A1     0.288715     7A1     0.552694     8A1     0.660523
       3B1     0.677643     3B2     0.707204     4B1     0.736486
       4B2     0.767171     1A2     0.775334     9A1     0.775908
      10A1     0.799384    11A1     1.100900     5B1     1.675519
       5B2     1.685777    12A1     2.189511

    Beta Occupied:

       1A1   -76.770186     2A1    -6.236418     3A1    -4.400016
       1B1    -4.396194     1B2    -4.392405     4A1    -0.262022
       5A1    -0.036283     2B2     0.096804

    Beta Virtual:

       2B1     0.164544     6A1     0.296954     7A1     0.562060
       8A1     0.671876     3B2     0.713504     3B1     0.719394
       4B2     0.771990     4B1     0.778645     9A1     0.807872
       1A2     0.817899    10A1     0.822616    11A1     1.112058
       5B1     1.682516     5B2     1.684703    12A1     2.192462

    Final Occupation by Irrep:
             A1    A2    B1    B2
    DOCC [     5,    0,    1,    2 ]
    SOCC [     0,    0,    1,    0 ]
    NA   [     5,    0,    2,    2 ]
    NB   [     5,    0,    1,    2 ]

  @DF-UKS Final Energy:  -341.90656381231474

   => Energetics <=

    Nuclear Repulsion Energy =              5.4079607685316482
    One-Electron Energy =                -488.1493853987930152
    Two-Electron Energy =                 160.0158574313716144
    DFT Exchange-Correlation Energy =     -19.1809966134250232
    Empirical Dispersion Energy =           0.0000000000000000
    VV10 Nonlocal Energy =                  0.0000000000000000
    Total Energy =                       -341.9065638123147437

  UHF NO Occupations:
  HONO-2 :    4 A1 1.9999000
  HONO-1 :    5 A1 1.9986708
  HONO-0 :    2 B1 1.0000000
  LUNO+0 :    6 A1 0.0013292
  LUNO+1 :    7 A1 0.0001000
  LUNO+2 :    3 B2 0.0000217
  LUNO+3 :    3 B1 0.0000000

Computation Completed

Properties will be evaluated at   0.000000,   0.000000,   0.000000 [a0]

Properties computed using the SCF density matrix

 Multipole Moments:

 ------------------------------------------------------------------------------------
     Multipole            Electronic (a.u.)      Nuclear  (a.u.)        Total (a.u.)
 ------------------------------------------------------------------------------------

 L = 1.  Multiply by 2.5417464519 to convert [e a0] to [Debye]
 Dipole X            :          0.0000000            0.0000000            0.0000000
 Dipole Y            :          0.0000000            0.0000000            0.0000000
 Dipole Z            :         -1.3883035            1.3751876           -0.0131159
 Magnitude           :                                                    0.0131159

 ------------------------------------------------------------------------------------

*** tstop() called on Joses-MacBook-Pro-2.local at Thu Jul 17 09:15:26 2025
Module time:
	user time   =       2.31 seconds =       0.04 minutes
	system time =       2.76 seconds =       0.05 minutes
	total time  =          0 seconds =       0.00 minutes
Total time:
	user time   =      30.76 seconds =       0.51 minutes
	system time =      32.66 seconds =       0.54 minutes
	total time  =          6 seconds =       0.10 minutes

*** tstart() called on Joses-MacBook-Pro-2.local
*** at Thu Jul 17 09:15:26 2025

         ------------------------------------------------------------
                                   SCF GRAD
                          Rob Parrish, Justin Turney,
                       Andy Simmonett, and Alex Sokolov
         ------------------------------------------------------------

  ==> Geometry <==

    Molecular point group: c2v
    Full point group: C_inf_v

    Geometry (in Angstrom), charge = -1, multiplicity = 2:

       Center              X                  Y                   Z               Mass
    ------------   -----------------  -----------------  -----------------  -----------------
         H            0.000000000000     0.000000000000     1.421519446627     1.007825032230
         P            0.000000000000     0.000000000000    -0.046253434833    30.973761998420

  Nuclear repulsion =    5.407960768531648

  ==> Basis Set <==

  Basis Set: CC-PVDZ
    Blend: CC-PVDZ
    Number of shells: 11
    Number of basis functions: 23
    Number of Cartesian functions: 24
    Spherical Harmonics?: true
    Max angular momentum: 2

  ==> DFJKGrad: Density-Fitted SCF Gradients <==

    Gradient:                    1
    J tasked:                  Yes
    K tasked:                  Yes
    wK tasked:                  No
    OpenMP threads:              1
    Integrals threads:           1
    Memory [MiB]:              375
    Schwarz Cutoff:          1E-12
    Fitting Condition:       1E-10

   => Auxiliary Basis Set <=

  Basis Set: (CC-PVDZ AUX)
    Blend: CC-PVDZ-JKFIT
    Number of shells: 45
    Number of basis functions: 135
    Number of Cartesian functions: 155
    Spherical Harmonics?: true
    Max angular momentum: 3

  ==> DFT Potential <==

   => LibXC <=

    Version 6.2.2
    S. Lehtola, C. Steigemann, M. J.T. Oliveira, and M. A.L. Marques.,  SoftwareX 7, 1â€“5 (2018) (10.1016/j.softx.2017.11.002)

   => Composite Functional: B3LYP <=

    B3LYP Hyb-GGA Exchange-Correlation Functional

    P. J. Stephens, F. J. Devlin, C. F. Chabalowski, and M. J. Frisch.,  J. Phys. Chem. 98, 11623 (1994) (10.1021/j100096a001)

    Deriv               =              1
    GGA                 =           TRUE
    Meta                =          FALSE

    Exchange Hybrid     =           TRUE
    MP2 Hybrid          =          FALSE

   => Exchange Functionals <=

    0.0800   Slater exchange
    0.7200         Becke 88

   => Exact (HF) Exchange <=

    0.2000               HF

   => Correlation Functionals <=

    0.1900   Vosko, Wilk & Nusair (VWN5_RPA)
    0.8100   Lee, Yang & Parr

   => LibXC Density Thresholds  <==

    XC_HYB_GGA_XC_B3LYP:  1.00E-15

   => Molecular Quadrature <=

    Radial Scheme          =       TREUTLER
    Pruning Scheme         =           NONE
    Nuclear Scheme         =       TREUTLER

    Blocking Scheme        =         OCTREE
    BS radius alpha        =              1
    Pruning alpha          =              1
    Radial Points          =             75
    Spherical Points       =            302
    Total Points           =          42655
    Total Blocks           =            385
    Max Points             =            252
    Max Functions          =             23
    Weights Tolerance      =       1.00E-15

  -Total Gradient:
     Atom            X                  Y                   Z
    ------   -----------------  -----------------  -----------------
       1        0.000000000000     0.000000000000    -0.000023255695
       2        0.000000000000     0.000000000000     0.000024331407

*** tstop() called on Joses-MacBook-Pro-2.local at Thu Jul 17 09:15:26 2025
Module time:
	user time   =       0.73 seconds =       0.01 minutes
	system time =       1.14 seconds =       0.02 minutes
	total time  =          0 seconds =       0.00 minutes
Total time:
	user time   =      31.49 seconds =       0.52 minutes
	system time =      33.80 seconds =       0.56 minutes
	total time  =          6 seconds =       0.10 minutes

    			-----------------------------------------

    			 OPTKING 3.0: for geometry optimizations

    			     By R.A. King, Bethel University

    			        with contributions from

    			    A.V. Copan, J. Cayton, A. Heide

    			-----------------------------------------

	                            ===> Fragment 1 <==

	 Z (Atomic Numbers)          Masses                          Geom
	       1.000000             1.007825          0.00000000  0.00000000  2.68628244
	      15.000000            30.973762          0.00000000  0.00000000 -0.08740632

	 - Coordinate -           - BOHR/RAD -       - ANG/DEG -
	 R(1,2)           =         2.773689           1.467773

	        --- Internal Coordinate Step in ANG or DEG, aJ/ANG or AJ/DEG ---
	-------------------------------------------------------------------------------
	           Coordinate      Previous         Force          Change          New
	           ----------      --------        ------          ------        ------
	               R(1,2)       1.46777        0.00020        0.00007       1.46784
	-------------------------------------------------------------------------------

	                                 ==> Convergence Check <==

	Measures of convergence in internal coordinates in au.

	Criteria marked as inactive (o), active & met (*), and active & unmet ( ).

	----------------------------------------------------------------------------------------------
	   Step    Total Energy     Delta E     Max Force     RMS Force      Max Disp      RMS Disp
	----------------------------------------------------------------------------------------------
	  Convergence Criteria     1.00e-06 *    3.00e-04 *             o    1.20e-03 *             o
	----------------------------------------------------------------------------------------------
	     8    -341.90656381   -2.03e-07 *    2.38e-05 *    2.38e-05 o    1.34e-04 *    1.34e-04 o  ~
	----------------------------------------------------------------------------------------------

Next Geometry in Ang
	Fragment 1 (Ang)

	    H   0.0000000000   0.0000000000   1.4215549421
	    P   0.0000000000   0.0000000000  -0.0462889303

    Final optimized geometry and variables:
    Molecular point group: c2v
    Full point group: C_inf_v

    Geometry (in Angstrom), charge = -1, multiplicity = 2:

    H            0.000000000000     0.000000000000     1.421519446627
    P            0.000000000000     0.000000000000    -0.046253434833

    Psi4 stopped on: Thursday, 17 July 2025 09:15AM
    Psi4 wall time for execution: 0:00:06.93

*** Psi4 exiting successfully. Buy a developer a beer!
