                               Psi4 1.9.1 release

  ==> Input File <==

--------------------------------------------------------------------------
molecule {
-1 2
N   0.00000        0.60000        0.00000
Cl   0.00000       -0.60000        0.00000
}

set {
basis              cc-pvdz
reference          uks
maxiter            500
geom_maxiter       500
DAMPING_PERCENTAGE 1
guess              SAP
}

optimize('b3lyp')
--------------------------------------------------------------------------

    Molecular point group: c2v
  Charge       = -1
  Multiplicity = 2
  Basis Set: CC-PVDZ
    Blend: CC-PVDZ
  Basis Set: (CC-PVDZ AUX)
    Blend: CC-PVDZ-JKFIT
  @DF-UKS Final Energy:  -514.51031837184667
    Total Energy =                       -514.5103183718466653
 Dipole X            :          0.0000000            0.0000000            0.0000000
 Dipole Y            :          0.0000000            0.0000000            0.0000000
 Dipole Z            :         -1.3948085            0.3116229           -1.0831856
 Magnitude           :                                                    1.0831856
    Molecular point group: c2v
  Basis Set: CC-PVDZ
    Blend: CC-PVDZ
  Basis Set: (CC-PVDZ AUX)
    Blend: CC-PVDZ-JKFIT
  Basis Set: CC-PVDZ
    Blend: CC-PVDZ
  Basis Set: (CC-PVDZ AUX)
    Blend: CC-PVDZ-JKFIT
  @DF-UKS Final Energy:  -514.68406217595361
    Total Energy =                       -514.6840621759536134
  Basis Set: CC-PVDZ
    Blend: CC-PVDZ
  Basis Set: (CC-PVDZ AUX)
    Blend: CC-PVDZ-JKFIT
  Basis Set: CC-PVDZ
    Blend: CC-PVDZ
  @DF-UKS Final Energy:  -514.77200127324204
    Total Energy =                       -514.7720012732420400
  @DF-UKS Final Energy:  -514.80533220233303
    Total Energy =                       -514.8053322023330338
  @DF-UKS Final Energy:  -514.82671556298169
    Total Energy =                       -514.8267155629816898
  @DF-UKS Final Energy:  -514.83835596282563
    Total Energy =                       -514.8383559628256307
  @DF-UKS Final Energy:  -514.84232293554192
    Total Energy =                       -514.8423229355419153
  @DF-UKS Final Energy:  -514.84420455064139
    Total Energy =                       -514.8442045506413933
  @DF-UKS Final Energy:  -514.84491533391724
    Total Energy =                       -514.8449153339172426
  @DF-UKS Final Energy:  -514.84507022472917
    Total Energy =                       -514.8450702247291701
  @DF-UKS Final Energy:  -514.84511198243604
    Total Energy =                       -514.8451119824360376
  Basis Set: (CC-PVDZ AUX)
    Blend: CC-PVDZ-JKFIT
  Basis Set: CC-PVDZ
    Blend: CC-PVDZ
  Basis Set: (CC-PVDZ AUX)
    Blend: CC-PVDZ-JKFIT
  @DF-UKS Final Energy:  -514.84511736709021
    Total Energy =                       -514.8451173670902108
  Basis Set: CC-PVDZ
    Blend: CC-PVDZ
  Basis Set: (CC-PVDZ AUX)
    Blend: CC-PVDZ-JKFIT
  Charge       = -1
  Multiplicity = 2
  Basis Set: CC-PVDZ
    Blend: CC-PVDZ
  Basis Set: (CC-PVDZ AUX)
    Blend: CC-PVDZ-JKFIT

    Orbital Energies [Eh]
    ---------------------

    Alpha Occupied:

       1A1  -101.271894     2A1   -14.043553     3A1    -9.186931
       4A1    -6.947512     1B2    -6.942313     1B1    -6.940462
       5A1    -0.566560     6A1    -0.383779     2B2    -0.083207
       7A1    -0.082505     2B1    -0.070412     3B2     0.039637
       3B1     0.092537

    Alpha Virtual:

       8A1     0.254368     9A1     0.752913     4B2     0.798906
       4B1     0.804978    10A1     0.879892     5B2     0.917575
       5B1     0.939950    11A1     1.002132     1A2     1.002145
      12A1     1.025852     6B2     1.096883     6B1     1.123559
      13A1     1.196327    14A1     1.470042    15A1     2.077296
       2A2     2.077566     7B2     2.108834     7B1     2.153864
      16A1     2.483004

    Beta Occupied:

       1A1  -101.271688     2A1   -14.025809     3A1    -9.186735
       4A1    -6.948011     1B2    -6.941004     1B1    -6.940356
       5A1    -0.556311     6A1    -0.335234     7A1    -0.069478
       2B1    -0.068744     2B2    -0.065806     3B1     0.111039

    Beta Virtual:

       3B2     0.226980     8A1     0.272837     9A1     0.754213
       4B2     0.802816     4B1     0.805173    10A1     0.880217
       5B1     0.944431     5B2     0.956677     1A2     1.005111
      11A1     1.005152    12A1     1.045147     6B1     1.131410
       6B2     1.149879    13A1     1.207926    14A1     1.493742
       2A2     2.140737    15A1     2.149105     7B1     2.164107
       7B2     2.178539    16A1     2.510141

    Final Occupation by Irrep:
             A1    A2    B1    B2
    DOCC [     7,    0,    3,    2 ]
    SOCC [     0,    0,    0,    1 ]
    NA   [     7,    0,    3,    3 ]
    NB   [     7,    0,    3,    2 ]

  @DF-UKS Final Energy:  -514.84511771406721

   => Energetics <=

    Nuclear Repulsion Energy =             33.4432531244317417
    One-Electron Energy =                -783.5955470036623183
    Two-Electron Energy =                 263.7973264956830803
    DFT Exchange-Correlation Energy =     -28.4901503305197075
    Empirical Dispersion Energy =           0.0000000000000000
    VV10 Nonlocal Energy =                  0.0000000000000000
    Total Energy =                       -514.8451177140672144

  UHF NO Occupations:
  HONO-2 :    6 A1 1.9995981
  HONO-1 :    7 A1 1.9991886
  HONO-0 :    3 B2 1.0000000
  LUNO+0 :    8 A1 0.0008114
  LUNO+1 :    9 A1 0.0004019
  LUNO+2 :    4 B2 0.0001141
  LUNO+3 :    4 B1 0.0000699

Computation Completed

Properties will be evaluated at   0.000000,   0.000000,   0.000000 [a0]

Properties computed using the SCF density matrix

 Multipole Moments:

 ------------------------------------------------------------------------------------
     Multipole            Electronic (a.u.)      Nuclear  (a.u.)        Total (a.u.)
 ------------------------------------------------------------------------------------

 L = 1.  Multiply by 2.5417464519 to convert [e a0] to [Debye]
 Dipole X            :          0.0000000            0.0000000            0.0000000
 Dipole Y            :          0.0000000            0.0000000            0.0000000
 Dipole Z            :         -1.5272991            0.4889761           -1.0383229
 Magnitude           :                                                    1.0383229

 ------------------------------------------------------------------------------------

*** tstop() called on Joses-MacBook-Pro-2.local at Thu Jul 17 10:36:42 2025
Module time:
	user time   =       3.41 seconds =       0.06 minutes
	system time =       3.93 seconds =       0.07 minutes
	total time  =          1 seconds =       0.02 minutes
Total time:
	user time   =      82.63 seconds =       1.38 minutes
	system time =      89.80 seconds =       1.50 minutes
	total time  =         19 seconds =       0.32 minutes

*** tstart() called on Joses-MacBook-Pro-2.local
*** at Thu Jul 17 10:36:42 2025

         ------------------------------------------------------------
                                   SCF GRAD
                          Rob Parrish, Justin Turney,
                       Andy Simmonett, and Alex Sokolov
         ------------------------------------------------------------

  ==> Geometry <==

    Molecular point group: c2v
    Full point group: C_inf_v

    Geometry (in Angstrom), charge = -1, multiplicity = 2:

       Center              X                  Y                   Z               Mass
    ------------   -----------------  -----------------  -----------------  -----------------
         N            0.000000000000     0.000000000000     1.344540136352    14.003074004430
         CL           0.000000000000     0.000000000000    -0.538413290321    34.968852682000

  Nuclear repulsion =   33.443253124431742

  ==> Basis Set <==

  Basis Set: CC-PVDZ
    Blend: CC-PVDZ
    Number of shells: 14
    Number of basis functions: 32
    Number of Cartesian functions: 34
    Spherical Harmonics?: true
    Max angular momentum: 2

  ==> DFJKGrad: Density-Fitted SCF Gradients <==

    Gradient:                    1
    J tasked:                  Yes
    K tasked:                  Yes
    wK tasked:                  No
    OpenMP threads:              1
    Integrals threads:           1
    Memory [MiB]:              375
    Schwarz Cutoff:          1E-12
    Fitting Condition:       1E-10

   => Auxiliary Basis Set <=

  Basis Set: (CC-PVDZ AUX)
    Blend: CC-PVDZ-JKFIT
    Number of shells: 60
    Number of basis functions: 182
    Number of Cartesian functions: 211
    Spherical Harmonics?: true
    Max angular momentum: 3

  ==> DFT Potential <==

   => LibXC <=

    Version 6.2.2
    S. Lehtola, C. Steigemann, M. J.T. Oliveira, and M. A.L. Marques.,  SoftwareX 7, 1â€“5 (2018) (10.1016/j.softx.2017.11.002)

   => Composite Functional: B3LYP <=

    B3LYP Hyb-GGA Exchange-Correlation Functional

    P. J. Stephens, F. J. Devlin, C. F. Chabalowski, and M. J. Frisch.,  J. Phys. Chem. 98, 11623 (1994) (10.1021/j100096a001)

    Deriv               =              1
    GGA                 =           TRUE
    Meta                =          FALSE

    Exchange Hybrid     =           TRUE
    MP2 Hybrid          =          FALSE

   => Exchange Functionals <=

    0.0800   Slater exchange
    0.7200         Becke 88

   => Exact (HF) Exchange <=

    0.2000               HF

   => Correlation Functionals <=

    0.1900   Vosko, Wilk & Nusair (VWN5_RPA)
    0.8100   Lee, Yang & Parr

   => LibXC Density Thresholds  <==

    XC_HYB_GGA_XC_B3LYP:  1.00E-15

   => Molecular Quadrature <=

    Radial Scheme          =       TREUTLER
    Pruning Scheme         =           NONE
    Nuclear Scheme         =       TREUTLER

    Blocking Scheme        =         OCTREE
    BS radius alpha        =              1
    Pruning alpha          =              1
    Radial Points          =             75
    Spherical Points       =            302
    Total Points           =          41127
    Total Blocks           =            366
    Max Points             =            254
    Max Functions          =             32
    Weights Tolerance      =       1.00E-15

  -Total Gradient:
     Atom            X                  Y                   Z
    ------   -----------------  -----------------  -----------------
       1       -0.000000000000     0.000000000000    -0.000043118025
       2        0.000000000000     0.000000000000     0.000037985600

*** tstop() called on Joses-MacBook-Pro-2.local at Thu Jul 17 10:36:42 2025
Module time:
	user time   =       1.43 seconds =       0.02 minutes
	system time =       1.38 seconds =       0.02 minutes
	total time  =          0 seconds =       0.00 minutes
Total time:
	user time   =      84.07 seconds =       1.40 minutes
	system time =      91.18 seconds =       1.52 minutes
	total time  =         19 seconds =       0.32 minutes

    			-----------------------------------------

    			 OPTKING 3.0: for geometry optimizations

    			     By R.A. King, Bethel University

    			        with contributions from

    			    A.V. Copan, J. Cayton, A. Heide

    			-----------------------------------------

	                            ===> Fragment 1 <==

	 Z (Atomic Numbers)          Masses                          Geom
	       7.000000            14.003074          0.00000000  0.00000000  2.54081262
	      17.000000            34.968853          0.00000000  0.00000000 -1.01745366

	 - Coordinate -           - BOHR/RAD -       - ANG/DEG -
	 R(1,2)           =         3.558266           1.882953

	        --- Internal Coordinate Step in ANG or DEG, aJ/ANG or AJ/DEG ---
	-------------------------------------------------------------------------------
	           Coordinate      Previous         Force          Change          New
	           ----------      --------        ------          ------        ------
	               R(1,2)       1.88295        0.00033        0.00021       1.88317
	-------------------------------------------------------------------------------

	                                 ==> Convergence Check <==

	Measures of convergence in internal coordinates in au.

	Criteria marked as inactive (o), active & met (*), and active & unmet ( ).

	----------------------------------------------------------------------------------------------
	   Step    Total Energy     Delta E     Max Force     RMS Force      Max Disp      RMS Disp
	----------------------------------------------------------------------------------------------
	  Convergence Criteria     1.00e-06 *    3.00e-04 *             o    1.20e-03 *             o
	----------------------------------------------------------------------------------------------
	    13    -514.84511771   -3.47e-07 *    4.06e-05 *    4.06e-05 o    4.03e-04 *    4.03e-04 o  ~
	----------------------------------------------------------------------------------------------

Next Geometry in Ang
	Fragment 1 (Ang)

	    N   0.0000000000   0.0000000000   1.3446467589
	   Cl   0.0000000000   0.0000000000  -0.5385199129

    Final optimized geometry and variables:
    Molecular point group: c2v
    Full point group: C_inf_v

    Geometry (in Angstrom), charge = -1, multiplicity = 2:

    N            0.000000000000     0.000000000000     1.344540136352
    CL           0.000000000000     0.000000000000    -0.538413290321

    Psi4 stopped on: Thursday, 17 July 2025 10:36AM
    Psi4 wall time for execution: 0:00:20.65

*** Psi4 exiting successfully. Buy a developer a beer!
