                               Psi4 1.9.1 release

  ==> Input File <==

--------------------------------------------------------------------------
molecule {
-1 2
Be   0.00000        0.60000        0.00000
S   0.00000       -0.60000        0.00000
}

set {
basis              cc-pvdz
reference          uks
maxiter            500
geom_maxiter       500
DAMPING_PERCENTAGE 1
guess              SAP
}

optimize('b3lyp')
--------------------------------------------------------------------------

    Molecular point group: c2v
  Charge       = -1
  Multiplicity = 2
  Basis Set: CC-PVDZ
    Blend: CC-PVDZ
  Basis Set: (CC-PVDZ AUX)
    Blend: CC-PVDZ-JKFIT + DEF2-UNIVERSAL-JKFIT
  @DF-UKS Final Energy:  -412.57961028772195
    Total Energy =                       -412.5796102877219482
 Dipole X            :          0.0000000            0.0000000            0.0000000
 Dipole Y            :          0.0000000            0.0000000            0.0000000
 Dipole Z            :         -0.3009614           -0.9022516           -1.2032130
 Magnitude           :                                                    1.2032130
    Molecular point group: c2v
  Basis Set: CC-PVDZ
    Blend: CC-PVDZ
  Basis Set: (CC-PVDZ AUX)
    Blend: CC-PVDZ-JKFIT + DEF2-UNIVERSAL-JKFIT
  Basis Set: CC-PVDZ
    Blend: CC-PVDZ
  Basis Set: (CC-PVDZ AUX)
    Blend: CC-PVDZ-JKFIT + DEF2-UNIVERSAL-JKFIT
  @DF-UKS Final Energy:  -412.79254417117880
    Total Energy =                       -412.7925441711788039
  Basis Set: CC-PVDZ
    Blend: CC-PVDZ
  Basis Set: (CC-PVDZ AUX)
    Blend: CC-PVDZ-JKFIT + DEF2-UNIVERSAL-JKFIT
  Basis Set: CC-PVDZ
    Blend: CC-PVDZ
  @DF-UKS Final Energy:  -412.91923555300542
    Total Energy =                       -412.9192355530054215
  @DF-UKS Final Energy:  -412.97214676274166
    Total Energy =                       -412.9721467627416587
  @DF-UKS Final Energy:  -412.99066475305347
    Total Energy =                       -412.9906647530534656
  @DF-UKS Final Energy:  -412.99464289825107
    Total Energy =                       -412.9946428982510724
  @DF-UKS Final Energy:  -412.99583506077335
    Total Energy =                       -412.9958350607732882
  @DF-UKS Final Energy:  -412.99599275098564
    Total Energy =                       -412.9959927509856357
  Basis Set: (CC-PVDZ AUX)
    Blend: CC-PVDZ-JKFIT + DEF2-UNIVERSAL-JKFIT
  Basis Set: CC-PVDZ
    Blend: CC-PVDZ
  Basis Set: (CC-PVDZ AUX)
    Blend: CC-PVDZ-JKFIT + DEF2-UNIVERSAL-JKFIT
  @DF-UKS Final Energy:  -412.99601520663845
    Total Energy =                       -412.9960152066384467
  Basis Set: CC-PVDZ
    Blend: CC-PVDZ
  Basis Set: (CC-PVDZ AUX)
    Blend: CC-PVDZ-JKFIT + DEF2-UNIVERSAL-JKFIT
  Charge       = -1
  Multiplicity = 2
  Basis Set: CC-PVDZ
    Blend: CC-PVDZ
  Basis Set: (CC-PVDZ AUX)
    Blend: CC-PVDZ-JKFIT + DEF2-UNIVERSAL-JKFIT

    Orbital Energies [Eh]
    ---------------------

    Alpha Occupied:

       1A1   -88.589995     2A1    -7.652159     3A1    -5.613260
       1B2    -5.611522     1B1    -5.611522     4A1    -3.820200
       5A1    -0.408511     6A1    -0.080460     2B2    -0.013182
       2B1    -0.013182     7A1     0.009576

    Alpha Virtual:

       3B2     0.186384     3B1     0.186384     8A1     0.256358
       9A1     0.363852     4B2     0.385819     4B1     0.385819
      10A1     0.497078    11A1     0.635440     5B2     0.664439
       5B1     0.664439    12A1     0.670792     1A2     0.670792
       6B2     0.792361     6B1     0.792361    13A1     0.908201
       2A2     0.924608    14A1     0.924609    15A1     1.101901
       7B2     1.144693     7B1     1.144693    16A1     1.453464

    Beta Occupied:

       1A1   -88.589625     2A1    -7.651770     1B2    -5.611651
       1B1    -5.611651     3A1    -5.611407     4A1    -3.813610
       5A1    -0.405392     6A1    -0.069297     2B2    -0.012743
       2B1    -0.012743

    Beta Virtual:

       7A1     0.118550     3B2     0.204004     3B1     0.204004
       8A1     0.264947     4B2     0.395936     4B1     0.395936
       9A1     0.410543    10A1     0.508540    11A1     0.664012
      12A1     0.685110     1A2     0.685110     5B2     0.695149
       5B1     0.695149     6B2     0.794952     6B1     0.794952
      13A1     0.915507     2A2     0.925930    14A1     0.925931
      15A1     1.123562     7B2     1.159497     7B1     1.159497
      16A1     1.461528

    Final Occupation by Irrep:
             A1    A2    B1    B2
    DOCC [     6,    0,    2,    2 ]
    SOCC [     1,    0,    0,    0 ]
    NA   [     7,    0,    2,    2 ]
    NB   [     6,    0,    2,    2 ]

  @DF-UKS Final Energy:  -412.99601889484302

   => Energetics <=

    Nuclear Repulsion Energy =             18.5841849921741016
    One-Electron Energy =                -611.8513886442524381
    Two-Electron Energy =                 203.4546618971855310
    DFT Exchange-Correlation Energy =     -23.1834771399501953
    Empirical Dispersion Energy =           0.0000000000000000
    VV10 Nonlocal Energy =                  0.0000000000000000
    Total Energy =                       -412.9960188948430186

  UHF NO Occupations:
  HONO-2 :    2 B2 1.9992525
  HONO-1 :    2 B1 1.9992525
  HONO-0 :    7 A1 1.0000000
  LUNO+0 :    3 B1 0.0007475
  LUNO+1 :    3 B2 0.0007475
  LUNO+2 :    8 A1 0.0002758
  LUNO+3 :    9 A1 0.0000175

Computation Completed

Properties will be evaluated at   0.000000,   0.000000,   0.000000 [a0]

Properties computed using the SCF density matrix

 Multipole Moments:

 ------------------------------------------------------------------------------------
     Multipole            Electronic (a.u.)      Nuclear  (a.u.)        Total (a.u.)
 ------------------------------------------------------------------------------------

 L = 1.  Multiply by 2.5417464519 to convert [e a0] to [Debye]
 Dipole X            :          0.0000000            0.0000000            0.0000000
 Dipole Y            :          0.0000000            0.0000000            0.0000000
 Dipole Z            :          0.6102046           -1.3702002           -0.7599956
 Magnitude           :                                                    0.7599956

 ------------------------------------------------------------------------------------

*** tstop() called on Joses-MacBook-Pro-2.local at Thu Jul 17 09:46:10 2025
Module time:
	user time   =       2.83 seconds =       0.05 minutes
	system time =       4.20 seconds =       0.07 minutes
	total time  =          1 seconds =       0.02 minutes
Total time:
	user time   =      64.88 seconds =       1.08 minutes
	system time =      53.46 seconds =       0.89 minutes
	total time  =         12 seconds =       0.20 minutes

*** tstart() called on Joses-MacBook-Pro-2.local
*** at Thu Jul 17 09:46:10 2025

         ------------------------------------------------------------
                                   SCF GRAD
                          Rob Parrish, Justin Turney,
                       Andy Simmonett, and Alex Sokolov
         ------------------------------------------------------------

  ==> Geometry <==

    Molecular point group: c2v
    Full point group: C_inf_v

    Geometry (in Angstrom), charge = -1, multiplicity = 2:

       Center              X                  Y                   Z               Mass
    ------------   -----------------  -----------------  -----------------  -----------------
         BE           0.000000000000     0.000000000000     1.421645520656     9.012183065000
         S            0.000000000000     0.000000000000    -0.400728799076    31.972071174400

  Nuclear repulsion =   18.584184992174102

  ==> Basis Set <==

  Basis Set: CC-PVDZ
    Blend: CC-PVDZ
    Number of shells: 14
    Number of basis functions: 32
    Number of Cartesian functions: 34
    Spherical Harmonics?: true
    Max angular momentum: 2

  ==> DFJKGrad: Density-Fitted SCF Gradients <==

    Gradient:                    1
    J tasked:                  Yes
    K tasked:                  Yes
    wK tasked:                  No
    OpenMP threads:              1
    Integrals threads:           1
    Memory [MiB]:              375
    Schwarz Cutoff:          1E-12
    Fitting Condition:       1E-10

   => Auxiliary Basis Set <=

  Basis Set: (CC-PVDZ AUX)
    Blend: CC-PVDZ-JKFIT + DEF2-UNIVERSAL-JKFIT
    Number of shells: 53
    Number of basis functions: 163
    Number of Cartesian functions: 190
    Spherical Harmonics?: true
    Max angular momentum: 3

  ==> DFT Potential <==

   => LibXC <=

    Version 6.2.2
    S. Lehtola, C. Steigemann, M. J.T. Oliveira, and M. A.L. Marques.,  SoftwareX 7, 1â€“5 (2018) (10.1016/j.softx.2017.11.002)

   => Composite Functional: B3LYP <=

    B3LYP Hyb-GGA Exchange-Correlation Functional

    P. J. Stephens, F. J. Devlin, C. F. Chabalowski, and M. J. Frisch.,  J. Phys. Chem. 98, 11623 (1994) (10.1021/j100096a001)

    Deriv               =              1
    GGA                 =           TRUE
    Meta                =          FALSE

    Exchange Hybrid     =           TRUE
    MP2 Hybrid          =          FALSE

   => Exchange Functionals <=

    0.0800   Slater exchange
    0.7200         Becke 88

   => Exact (HF) Exchange <=

    0.2000               HF

   => Correlation Functionals <=

    0.1900   Vosko, Wilk & Nusair (VWN5_RPA)
    0.8100   Lee, Yang & Parr

   => LibXC Density Thresholds  <==

    XC_HYB_GGA_XC_B3LYP:  1.00E-15

   => Molecular Quadrature <=

    Radial Scheme          =       TREUTLER
    Pruning Scheme         =           NONE
    Nuclear Scheme         =       TREUTLER

    Blocking Scheme        =         OCTREE
    BS radius alpha        =              1
    Pruning alpha          =              1
    Radial Points          =             75
    Spherical Points       =            302
    Total Points           =          42752
    Total Blocks           =            398
    Max Points             =            255
    Max Functions          =             32
    Weights Tolerance      =       1.00E-15

  -Total Gradient:
     Atom            X                  Y                   Z
    ------   -----------------  -----------------  -----------------
       1        0.000000000000     0.000000000000    -0.000281893708
       2       -0.000000000000    -0.000000000000     0.000277850891

*** tstop() called on Joses-MacBook-Pro-2.local at Thu Jul 17 09:46:10 2025
Module time:
	user time   =       0.98 seconds =       0.02 minutes
	system time =       1.34 seconds =       0.02 minutes
	total time  =          0 seconds =       0.00 minutes
Total time:
	user time   =      65.86 seconds =       1.10 minutes
	system time =      54.80 seconds =       0.91 minutes
	total time  =         12 seconds =       0.20 minutes

    			-----------------------------------------

    			 OPTKING 3.0: for geometry optimizations

    			     By R.A. King, Bethel University

    			        with contributions from

    			    A.V. Copan, J. Cayton, A. Heide

    			-----------------------------------------

	                            ===> Fragment 1 <==

	 Z (Atomic Numbers)          Masses                          Geom
	       4.000000             9.012183          0.00000000  0.00000000  2.68652068
	      16.000000            31.972071          0.00000000  0.00000000 -0.75726768

	 - Coordinate -           - BOHR/RAD -       - ANG/DEG -
	 R(1,2)           =         3.443788           1.822374

	        --- Internal Coordinate Step in ANG or DEG, aJ/ANG or AJ/DEG ---
	-------------------------------------------------------------------------------
	           Coordinate      Previous         Force          Change          New
	           ----------      --------        ------          ------        ------
	               R(1,2)       1.82237        0.00231        0.00062       1.82299
	-------------------------------------------------------------------------------

	                                 ==> Convergence Check <==

	Measures of convergence in internal coordinates in au.

	Criteria marked as inactive (o), active & met (*), and active & unmet ( ).

	----------------------------------------------------------------------------------------------
	   Step    Total Energy     Delta E     Max Force     RMS Force      Max Disp      RMS Disp
	----------------------------------------------------------------------------------------------
	  Convergence Criteria     1.00e-06 *    3.00e-04 *             o    1.20e-03 *             o
	----------------------------------------------------------------------------------------------
	    10    -412.99601889   -3.69e-06      2.80e-04 *    2.80e-04 o    1.16e-03 *    1.16e-03 o  ~
	----------------------------------------------------------------------------------------------

Next Geometry in Ang
	Fragment 1 (Ang)

	   Be   0.0000000000   0.0000000000   1.4219536729
	    S   0.0000000000   0.0000000000  -0.4010369513

    Final optimized geometry and variables:
    Molecular point group: c2v
    Full point group: C_inf_v

    Geometry (in Angstrom), charge = -1, multiplicity = 2:

    BE           0.000000000000     0.000000000000     1.421645520656
    S            0.000000000000     0.000000000000    -0.400728799076

    Psi4 stopped on: Thursday, 17 July 2025 09:46AM
    Psi4 wall time for execution: 0:00:12.78

*** Psi4 exiting successfully. Buy a developer a beer!
