                               Psi4 1.9.1 release

  ==> Input File <==

--------------------------------------------------------------------------
molecule {
-1 2
P   0.00000        0.60000        0.00000
P   0.00000       -0.60000        0.00000
}

set {
basis              cc-pvdz
reference          uks
maxiter            500
geom_maxiter       500
DAMPING_PERCENTAGE 1
guess              SAP
}

optimize('b3lyp')
--------------------------------------------------------------------------

    Molecular point group: d2h
  Charge       = -1
  Multiplicity = 2
  Basis Set: CC-PVDZ
    Blend: CC-PVDZ
  Basis Set: (CC-PVDZ AUX)
    Blend: CC-PVDZ-JKFIT
  @DF-UKS Final Energy:  -681.49092665687215
    Total Energy =                       -681.4909266568722614
 Dipole X            :          0.0000000            0.0000000            0.0000000
 Dipole Y            :          0.0000000            0.0000000            0.0000000
 Dipole Z            :          0.0000000            0.0000000            0.0000000
 Magnitude           :                                                    0.0000000
    Molecular point group: d2h
  Basis Set: CC-PVDZ
    Blend: CC-PVDZ
  Basis Set: (CC-PVDZ AUX)
    Blend: CC-PVDZ-JKFIT
  Basis Set: CC-PVDZ
    Blend: CC-PVDZ
  Basis Set: (CC-PVDZ AUX)
    Blend: CC-PVDZ-JKFIT
  @DF-UKS Final Energy:  -681.52778732024035
    Total Energy =                       -681.5277873202403498
  Basis Set: CC-PVDZ
    Blend: CC-PVDZ
  Basis Set: (CC-PVDZ AUX)
    Blend: CC-PVDZ-JKFIT
  Basis Set: CC-PVDZ
    Blend: CC-PVDZ
  @DF-UKS Final Energy:  -681.59713361038553
    Total Energy =                       -681.5971336103855265
  @DF-UKS Final Energy:  -681.83054905264396
    Total Energy =                       -681.8305490526438462
  @DF-UKS Final Energy:  -682.41380737842258
    Total Energy =                       -682.4138073784226890
  @DF-UKS Final Energy:  -682.59454569795219
    Total Energy =                       -682.5945456979521850
  @DF-UKS Final Energy:  -682.68928200500090
    Total Energy =                       -682.6892820050009050
  @DF-UKS Final Energy:  -682.72267887805060
    Total Energy =                       -682.7226788780506013
  @DF-UKS Final Energy:  -682.73092699131485
    Total Energy =                       -682.7309269913147318
  @DF-UKS Final Energy:  -682.73390808351769
    Total Energy =                       -682.7339080835176901
  @DF-UKS Final Energy:  -682.73441838467784
    Total Energy =                       -682.7344183846778378
  @DF-UKS Final Energy:  -682.73451410788618
    Total Energy =                       -682.7345141078861843
  Basis Set: (CC-PVDZ AUX)
    Blend: CC-PVDZ-JKFIT
  Basis Set: CC-PVDZ
    Blend: CC-PVDZ
  Basis Set: (CC-PVDZ AUX)
    Blend: CC-PVDZ-JKFIT
  @DF-UKS Final Energy:  -682.73453572934955
    Total Energy =                       -682.7345357293495454
  Basis Set: CC-PVDZ
    Blend: CC-PVDZ
  Basis Set: (CC-PVDZ AUX)
    Blend: CC-PVDZ-JKFIT
  Charge       = -1
  Multiplicity = 2
  Basis Set: CC-PVDZ
    Blend: CC-PVDZ
  Basis Set: (CC-PVDZ AUX)
    Blend: CC-PVDZ-JKFIT

    Orbital Energies [Eh]
    ---------------------

    Alpha Occupied:

       1Ag   -76.832482     1B2u  -76.832482     2Ag    -6.302069
       2B2u   -6.301970     1B3u   -4.465002     1B1g   -4.464908
       1B1u   -4.462551     1B3g   -4.462462     3Ag    -4.461963
       3B2u   -4.460845     4Ag    -0.405710     4B2u   -0.225315
       5Ag    -0.043681     2B1u   -0.036777     2B3u   -0.028459
       2B3g    0.081240

    Alpha Virtual:

       2B1g    0.135449     5B2u    0.288060     6Ag     0.491695
       3B3u    0.581672     3B1u    0.584101     7Ag     0.585955
       6B2u    0.626122     4B1u    0.665800     4B3u    0.667909
       1B2g    0.668745     8Ag     0.669850     3B3g    0.680830
       3B1g    0.683376     1Au     0.778863     7B2u    0.780087
       8B2u    0.810018     9Ag     0.976099     4B3g    1.004443
       4B1g    1.004656     9B2u    1.334035

    Beta Occupied:

       1Ag   -76.830516     1B2u  -76.830515     2Ag    -6.299990
       2B2u   -6.299884     1B3u   -4.463854     1B1g   -4.463760
       3Ag    -4.460858     3B2u   -4.459735     1B1u   -4.455617
       1B3g   -4.455521     4Ag    -0.394511     4B2u   -0.202620
       5Ag    -0.034366     2B3u   -0.023828     2B1u   -0.002159

    Beta Virtual:

       2B1g    0.142566     2B3g    0.166528     5B2u    0.295823
       6Ag     0.495535     3B3u    0.583543     7Ag     0.593833
       3B1u    0.599739     6B2u    0.632312     4B3u    0.671053
       3B1g    0.687126     1B2g    0.690284     8Ag     0.690637
       4B1u    0.691668     3B3g    0.704439     7B2u    0.804452
       1Au     0.804625     8B2u    0.819544     9Ag     0.983587
       4B1g    1.007358     4B3g    1.027781     9B2u    1.342435

    Final Occupation by Irrep:
             Ag   B1g   B2g   B3g    Au   B1u   B2u   B3u
    DOCC [     5,    1,    0,    1,    0,    2,    4,    2 ]
    SOCC [     0,    0,    0,    1,    0,    0,    0,    0 ]
    NA   [     5,    1,    0,    2,    0,    2,    4,    2 ]
    NB   [     5,    1,    0,    1,    0,    2,    4,    2 ]

  @DF-UKS Final Energy:  -682.73453749530131

   => Energetics <=

    Nuclear Repulsion Energy =             59.3682464994451990
    One-Electron Energy =               -1070.0456754004703726
    Two-Electron Energy =                 365.5611828166517512
    DFT Exchange-Correlation Energy =     -37.6182914109277249
    Empirical Dispersion Energy =           0.0000000000000000
    VV10 Nonlocal Energy =                  0.0000000000000000
    Total Energy =                       -682.7345374953010833

  UHF NO Occupations:
  HONO-2 :    4B2u 1.9996046
  HONO-1 :    2B1u 1.9992929
  HONO-0 :    2B3g 1.0000000
  LUNO+0 :    3B1u 0.0007071
  LUNO+1 :    5B2u 0.0003954
  LUNO+2 :    6 Ag 0.0002937
  LUNO+3 :    3B3u 0.0000143

Computation Completed

Properties will be evaluated at   0.000000,   0.000000,   0.000000 [a0]

Properties computed using the SCF density matrix

 Multipole Moments:

 ------------------------------------------------------------------------------------
     Multipole            Electronic (a.u.)      Nuclear  (a.u.)        Total (a.u.)
 ------------------------------------------------------------------------------------

 L = 1.  Multiply by 2.5417464519 to convert [e a0] to [Debye]
 Dipole X            :          0.0000000            0.0000000            0.0000000
 Dipole Y            :          0.0000000            0.0000000            0.0000000
 Dipole Z            :          0.0000000            0.0000000            0.0000000
 Magnitude           :                                                    0.0000000

 ------------------------------------------------------------------------------------

*** tstop() called on Joses-MacBook-Pro-2.local at Thu Jul 17 11:53:44 2025
Module time:
	user time   =       6.52 seconds =       0.11 minutes
	system time =       1.81 seconds =       0.03 minutes
	total time  =          1 seconds =       0.02 minutes
Total time:
	user time   =     153.18 seconds =       2.55 minutes
	system time =      40.66 seconds =       0.68 minutes
	total time  =         19 seconds =       0.32 minutes

*** tstart() called on Joses-MacBook-Pro-2.local
*** at Thu Jul 17 11:53:44 2025

         ------------------------------------------------------------
                                   SCF GRAD
                          Rob Parrish, Justin Turney,
                       Andy Simmonett, and Alex Sokolov
         ------------------------------------------------------------

  ==> Geometry <==

    Molecular point group: d2h
    Full point group: D_inf_h

    Geometry (in Angstrom), charge = -1, multiplicity = 2:

       Center              X                  Y                   Z               Mass
    ------------   -----------------  -----------------  -----------------  -----------------
         P           -0.000000000000     1.002765614796     0.000000000000    30.973761998420
         P            0.000000000000    -1.002765614796     0.000000000000    30.973761998420

  Nuclear repulsion =   59.368246499445199

  ==> Basis Set <==

  Basis Set: CC-PVDZ
    Blend: CC-PVDZ
    Number of shells: 16
    Number of basis functions: 36
    Number of Cartesian functions: 38
    Spherical Harmonics?: true
    Max angular momentum: 2

  ==> DFJKGrad: Density-Fitted SCF Gradients <==

    Gradient:                    1
    J tasked:                  Yes
    K tasked:                  Yes
    wK tasked:                  No
    OpenMP threads:              1
    Integrals threads:           1
    Memory [MiB]:              375
    Schwarz Cutoff:          1E-12
    Fitting Condition:       1E-10

   => Auxiliary Basis Set <=

  Basis Set: (CC-PVDZ AUX)
    Blend: CC-PVDZ-JKFIT
    Number of shells: 72
    Number of basis functions: 224
    Number of Cartesian functions: 260
    Spherical Harmonics?: true
    Max angular momentum: 3

  ==> DFT Potential <==

   => LibXC <=

    Version 6.2.2
    S. Lehtola, C. Steigemann, M. J.T. Oliveira, and M. A.L. Marques.,  SoftwareX 7, 1â€“5 (2018) (10.1016/j.softx.2017.11.002)

   => Composite Functional: B3LYP <=

    B3LYP Hyb-GGA Exchange-Correlation Functional

    P. J. Stephens, F. J. Devlin, C. F. Chabalowski, and M. J. Frisch.,  J. Phys. Chem. 98, 11623 (1994) (10.1021/j100096a001)

    Deriv               =              1
    GGA                 =           TRUE
    Meta                =          FALSE

    Exchange Hybrid     =           TRUE
    MP2 Hybrid          =          FALSE

   => Exchange Functionals <=

    0.0800   Slater exchange
    0.7200         Becke 88

   => Exact (HF) Exchange <=

    0.2000               HF

   => Correlation Functionals <=

    0.1900   Vosko, Wilk & Nusair (VWN5_RPA)
    0.8100   Lee, Yang & Parr

   => LibXC Density Thresholds  <==

    XC_HYB_GGA_XC_B3LYP:  1.00E-15

   => Molecular Quadrature <=

    Radial Scheme          =       TREUTLER
    Pruning Scheme         =           NONE
    Nuclear Scheme         =       TREUTLER

    Blocking Scheme        =         OCTREE
    BS radius alpha        =              1
    Pruning alpha          =              1
    Radial Points          =             75
    Spherical Points       =            302
    Total Points           =          40818
    Total Blocks           =            376
    Max Points             =            249
    Max Functions          =             36
    Weights Tolerance      =       1.00E-15

  -Total Gradient:
     Atom            X                  Y                   Z
    ------   -----------------  -----------------  -----------------
       1        0.000000000000    -0.000168407850    -0.000000000000
       2       -0.000000000000     0.000168407850    -0.000000000000

*** tstop() called on Joses-MacBook-Pro-2.local at Thu Jul 17 11:53:44 2025
Module time:
	user time   =       2.98 seconds =       0.05 minutes
	system time =       0.80 seconds =       0.01 minutes
	total time  =          0 seconds =       0.00 minutes
Total time:
	user time   =     156.17 seconds =       2.60 minutes
	system time =      41.46 seconds =       0.69 minutes
	total time  =         19 seconds =       0.32 minutes

    			-----------------------------------------

    			 OPTKING 3.0: for geometry optimizations

    			     By R.A. King, Bethel University

    			        with contributions from

    			    A.V. Copan, J. Cayton, A. Heide

    			-----------------------------------------

	                            ===> Fragment 1 <==

	 Z (Atomic Numbers)          Masses                          Geom
	      15.000000            30.973762         -0.00000000  1.89495238  0.00000000
	      15.000000            30.973762          0.00000000 -1.89495238  0.00000000

	 - Coordinate -           - BOHR/RAD -       - ANG/DEG -
	 R(1,2)           =         3.789905           2.005531

	        --- Internal Coordinate Step in ANG or DEG, aJ/ANG or AJ/DEG ---
	-------------------------------------------------------------------------------
	           Coordinate      Previous         Force          Change          New
	           ----------      --------        ------          ------        ------
	               R(1,2)       2.00553        0.00139        0.00031       2.00584
	-------------------------------------------------------------------------------

	                                 ==> Convergence Check <==

	Measures of convergence in internal coordinates in au.

	Criteria marked as inactive (o), active & met (*), and active & unmet ( ).

	----------------------------------------------------------------------------------------------
	   Step    Total Energy     Delta E     Max Force     RMS Force      Max Disp      RMS Disp
	----------------------------------------------------------------------------------------------
	  Convergence Criteria     1.00e-06 *    3.00e-04 *             o    1.20e-03 *             o
	----------------------------------------------------------------------------------------------
	    14    -682.73453750   -1.77e-06      1.68e-04 *    1.68e-04 o    5.92e-04 *    5.92e-04 o  ~
	----------------------------------------------------------------------------------------------

Next Geometry in Ang
	Fragment 1 (Ang)

	    P  -0.0000000000   1.0029222096   0.0000000000
	    P   0.0000000000  -1.0029222096   0.0000000000

    Final optimized geometry and variables:
    Molecular point group: d2h
    Full point group: D_inf_h

    Geometry (in Angstrom), charge = -1, multiplicity = 2:

    P           -0.000000000000     1.002765614796     0.000000000000
    P            0.000000000000    -1.002765614796     0.000000000000

    Psi4 stopped on: Thursday, 17 July 2025 11:53AM
    Psi4 wall time for execution: 0:00:19.29

*** Psi4 exiting successfully. Buy a developer a beer!
