                               Psi4 1.9.1 release

  ==> Input File <==

--------------------------------------------------------------------------
molecule {
-1 2
Al   0.00000        0.60000        0.00000
Al   0.00000       -0.60000        0.00000
}

set {
basis              cc-pvdz
reference          uks
maxiter            500
geom_maxiter       500
DAMPING_PERCENTAGE 1
guess              SAP
}

optimize('b3lyp')
--------------------------------------------------------------------------

    Molecular point group: d2h
  Charge       = -1
  Multiplicity = 2
  Basis Set: CC-PVDZ
    Blend: CC-PVDZ
  Basis Set: (CC-PVDZ AUX)
    Blend: CC-PVDZ-JKFIT
  @DF-UKS Final Energy:  -483.85759597391240
    Total Energy =                       -483.8575959739123959
 Dipole X            :          0.0000000            0.0000000            0.0000000
 Dipole Y            :          0.0000000            0.0000000            0.0000000
 Dipole Z            :          0.0000000            0.0000000            0.0000000
 Magnitude           :                                                    0.0000000
    Molecular point group: d2h
  Basis Set: CC-PVDZ
    Blend: CC-PVDZ
  Basis Set: (CC-PVDZ AUX)
    Blend: CC-PVDZ-JKFIT
  Basis Set: CC-PVDZ
    Blend: CC-PVDZ
  Basis Set: (CC-PVDZ AUX)
    Blend: CC-PVDZ-JKFIT
  @DF-UKS Final Energy:  -483.86875255271923
    Total Energy =                       -483.8687525527192292
  Basis Set: CC-PVDZ
    Blend: CC-PVDZ
  Basis Set: (CC-PVDZ AUX)
    Blend: CC-PVDZ-JKFIT
  Basis Set: CC-PVDZ
    Blend: CC-PVDZ
  @DF-UKS Final Energy:  -483.89034369490355
    Total Energy =                       -483.8903436949035495
  @DF-UKS Final Energy:  -483.96921828319586
    Total Energy =                       -483.9692182831958576
  @DF-UKS Final Energy:  -484.33166807957303
    Total Energy =                       -484.3316680795730349
  @DF-UKS Final Energy:  -484.58875068077964
    Total Energy =                       -484.5887506807796399
  @DF-UKS Final Energy:  -484.74128295986685
    Total Energy =                       -484.7412829598668509
  @DF-UKS Final Energy:  -484.79832740693996
    Total Energy =                       -484.7983274069399613
  @DF-UKS Final Energy:  -484.82223842258662
    Total Energy =                       -484.8222384225866222
  @DF-UKS Final Energy:  -484.83042898008358
    Total Energy =                       -484.8304289800835818
  @DF-UKS Final Energy:  -484.83252577260646
    Total Energy =                       -484.8325257726064592
  @DF-UKS Final Energy:  -484.83279514769976
    Total Energy =                       -484.8327951476997555
  @DF-UKS Final Energy:  -484.83283370861943
    Total Energy =                       -484.8328337086194324
  @DF-UKS Final Energy:  -484.83283958095927
    Total Energy =                       -484.8328395809592735
  Basis Set: (CC-PVDZ AUX)
    Blend: CC-PVDZ-JKFIT
  Basis Set: CC-PVDZ
    Blend: CC-PVDZ
  Basis Set: (CC-PVDZ AUX)
    Blend: CC-PVDZ-JKFIT
  @DF-UKS Final Energy:  -484.83284061434671
    Total Energy =                       -484.8328406143467078
  Basis Set: CC-PVDZ
    Blend: CC-PVDZ
  Basis Set: (CC-PVDZ AUX)
    Blend: CC-PVDZ-JKFIT
  Charge       = -1
  Multiplicity = 2
  Basis Set: CC-PVDZ
    Blend: CC-PVDZ
  Basis Set: (CC-PVDZ AUX)
    Blend: CC-PVDZ-JKFIT

    Orbital Energies [Eh]
    ---------------------

    Alpha Occupied:

       1B2u  -55.865193     1Ag   -55.865192     2Ag    -3.945972
       2B2u   -3.945961     3Ag    -2.500842     3B2u   -2.499706
       1B3u   -2.499616     1B1g   -2.499515     1B1u   -2.495383
       1B3g   -2.495281     4Ag    -0.189681     4B2u   -0.074925
       2B3u    0.022074     2B1u    0.040024

    Alpha Virtual:

       5Ag     0.067515     2B1g    0.130187     2B3g    0.143557
       5B2u    0.200588     6Ag     0.303603     7Ag     0.341984
       3B3u    0.347878     3B1u    0.361602     6B2u    0.392530
       3B1g    0.410843     1B2g    0.415704     8Ag     0.416157
       3B3g    0.422361     4B3u    0.427430     4B1u    0.441375
       7B2u    0.494460     1Au     0.505071     8B2u    0.505607
       9Ag     0.613730     4B1g    0.641058     4B3g    0.655765
       9B2u    0.856722

    Beta Occupied:

       1B2u  -55.864394     1Ag   -55.864394     2Ag    -3.944980
       2B2u   -3.944976     3Ag    -2.500405     3B2u   -2.499273
       1B3u   -2.496374     1B1g   -2.496275     1B1u   -2.494914
       1B3g   -2.494813     4Ag    -0.172438     4B2u   -0.066202
       2B1u    0.044219

    Beta Virtual:

       5Ag     0.070948     2B3u    0.088741     2B3g    0.145318
       2B1g    0.153460     5B2u    0.204398     6Ag     0.314102
       7Ag     0.343518     3B1u    0.363354     3B3u    0.369345
       6B2u    0.396437     3B3g    0.423390     3B1g    0.425760
       1B2g    0.433915     8Ag     0.435714     4B1u    0.442232
       4B3u    0.445762     7B2u    0.500455     1Au     0.520124
       8B2u    0.521634     9Ag     0.620540     4B3g    0.656954
       4B1g    0.659659     9B2u    0.861119

    Final Occupation by Irrep:
             Ag   B1g   B2g   B3g    Au   B1u   B2u   B3u
    DOCC [     4,    1,    0,    1,    0,    2,    4,    1 ]
    SOCC [     0,    0,    0,    0,    0,    0,    0,    1 ]
    NA   [     4,    1,    0,    1,    0,    2,    4,    2 ]
    NB   [     4,    1,    0,    1,    0,    2,    4,    1 ]

  @DF-UKS Final Energy:  -484.83284067625641

   => Energetics <=

    Nuclear Repulsion Energy =             36.3290362370761741
    One-Electron Energy =                -751.2331182919328967
    Two-Electron Energy =                 260.1823682597836864
    DFT Exchange-Correlation Energy =     -30.1111268811833348
    Empirical Dispersion Energy =           0.0000000000000000
    VV10 Nonlocal Energy =                  0.0000000000000000
    Total Energy =                       -484.8328406762564100

  UHF NO Occupations:
  HONO-2 :    4B2u 1.9992423
  HONO-1 :    4 Ag 1.9991453
  HONO-0 :    2B3u 1.0000000
  LUNO+0 :    5 Ag 0.0008547
  LUNO+1 :    5B2u 0.0007577
  LUNO+2 :    3B1u 0.0000240
  LUNO+3 :    2B1g 0.0000000

Computation Completed

Properties will be evaluated at   0.000000,   0.000000,   0.000000 [a0]

Properties computed using the SCF density matrix

 Multipole Moments:

 ------------------------------------------------------------------------------------
     Multipole            Electronic (a.u.)      Nuclear  (a.u.)        Total (a.u.)
 ------------------------------------------------------------------------------------

 L = 1.  Multiply by 2.5417464519 to convert [e a0] to [Debye]
 Dipole X            :          0.0000000            0.0000000            0.0000000
 Dipole Y            :          0.0000000            0.0000000            0.0000000
 Dipole Z            :          0.0000000            0.0000000            0.0000000
 Magnitude           :                                                    0.0000000

 ------------------------------------------------------------------------------------

*** tstop() called on Joses-MacBook-Pro-2.local at Thu Jul 17 11:34:04 2025
Module time:
	user time   =       5.69 seconds =       0.09 minutes
	system time =       2.43 seconds =       0.04 minutes
	total time  =          0 seconds =       0.00 minutes
Total time:
	user time   =     156.75 seconds =       2.61 minutes
	system time =      82.20 seconds =       1.37 minutes
	total time  =         23 seconds =       0.38 minutes

*** tstart() called on Joses-MacBook-Pro-2.local
*** at Thu Jul 17 11:34:04 2025

         ------------------------------------------------------------
                                   SCF GRAD
                          Rob Parrish, Justin Turney,
                       Andy Simmonett, and Alex Sokolov
         ------------------------------------------------------------

  ==> Geometry <==

    Molecular point group: d2h
    Full point group: D_inf_h

    Geometry (in Angstrom), charge = -1, multiplicity = 2:

       Center              X                  Y                   Z               Mass
    ------------   -----------------  -----------------  -----------------  -----------------
         AL          -0.000000000000     1.230846698212     0.000000000000    26.981538530000
         AL           0.000000000000    -1.230846698212     0.000000000000    26.981538530000

  Nuclear repulsion =   36.329036237076174

  ==> Basis Set <==

  Basis Set: CC-PVDZ
    Blend: CC-PVDZ
    Number of shells: 16
    Number of basis functions: 36
    Number of Cartesian functions: 38
    Spherical Harmonics?: true
    Max angular momentum: 2

  ==> DFJKGrad: Density-Fitted SCF Gradients <==

    Gradient:                    1
    J tasked:                  Yes
    K tasked:                  Yes
    wK tasked:                  No
    OpenMP threads:              1
    Integrals threads:           1
    Memory [MiB]:              375
    Schwarz Cutoff:          1E-12
    Fitting Condition:       1E-10

   => Auxiliary Basis Set <=

  Basis Set: (CC-PVDZ AUX)
    Blend: CC-PVDZ-JKFIT
    Number of shells: 72
    Number of basis functions: 224
    Number of Cartesian functions: 260
    Spherical Harmonics?: true
    Max angular momentum: 3

  ==> DFT Potential <==

   => LibXC <=

    Version 6.2.2
    S. Lehtola, C. Steigemann, M. J.T. Oliveira, and M. A.L. Marques.,  SoftwareX 7, 1â€“5 (2018) (10.1016/j.softx.2017.11.002)

   => Composite Functional: B3LYP <=

    B3LYP Hyb-GGA Exchange-Correlation Functional

    P. J. Stephens, F. J. Devlin, C. F. Chabalowski, and M. J. Frisch.,  J. Phys. Chem. 98, 11623 (1994) (10.1021/j100096a001)

    Deriv               =              1
    GGA                 =           TRUE
    Meta                =          FALSE

    Exchange Hybrid     =           TRUE
    MP2 Hybrid          =          FALSE

   => Exchange Functionals <=

    0.0800   Slater exchange
    0.7200         Becke 88

   => Exact (HF) Exchange <=

    0.2000               HF

   => Correlation Functionals <=

    0.1900   Vosko, Wilk & Nusair (VWN5_RPA)
    0.8100   Lee, Yang & Parr

   => LibXC Density Thresholds  <==

    XC_HYB_GGA_XC_B3LYP:  1.00E-15

   => Molecular Quadrature <=

    Radial Scheme          =       TREUTLER
    Pruning Scheme         =           NONE
    Nuclear Scheme         =       TREUTLER

    Blocking Scheme        =         OCTREE
    BS radius alpha        =              1
    Pruning alpha          =              1
    Radial Points          =             75
    Spherical Points       =            302
    Total Points           =          42340
    Total Blocks           =            402
    Max Points             =            249
    Max Functions          =             36
    Weights Tolerance      =       1.00E-15

  -Total Gradient:
     Atom            X                  Y                   Z
    ------   -----------------  -----------------  -----------------
       1        0.000000000000    -0.000008039126     0.000000000000
       2       -0.000000000000     0.000008039126    -0.000000000000

*** tstop() called on Joses-MacBook-Pro-2.local at Thu Jul 17 11:34:05 2025
Module time:
	user time   =       2.07 seconds =       0.03 minutes
	system time =       2.16 seconds =       0.04 minutes
	total time  =          1 seconds =       0.02 minutes
Total time:
	user time   =     158.82 seconds =       2.65 minutes
	system time =      84.36 seconds =       1.41 minutes
	total time  =         24 seconds =       0.40 minutes

    			-----------------------------------------

    			 OPTKING 3.0: for geometry optimizations

    			     By R.A. King, Bethel University

    			        with contributions from

    			    A.V. Copan, J. Cayton, A. Heide

    			-----------------------------------------

	                            ===> Fragment 1 <==

	 Z (Atomic Numbers)          Masses                          Geom
	      13.000000            26.981539         -0.00000000  2.32596316  0.00000000
	      13.000000            26.981539          0.00000000 -2.32596316  0.00000000

	 - Coordinate -           - BOHR/RAD -       - ANG/DEG -
	 R(1,2)           =         4.651926           2.461693

	        --- Internal Coordinate Step in ANG or DEG, aJ/ANG or AJ/DEG ---
	-------------------------------------------------------------------------------
	           Coordinate      Previous         Force          Change          New
	           ----------      --------        ------          ------        ------
	               R(1,2)       2.46169        0.00007        0.00006       2.46176
	-------------------------------------------------------------------------------

	                                 ==> Convergence Check <==

	Measures of convergence in internal coordinates in au.

	Criteria marked as inactive (o), active & met (*), and active & unmet ( ).

	----------------------------------------------------------------------------------------------
	   Step    Total Energy     Delta E     Max Force     RMS Force      Max Disp      RMS Disp
	----------------------------------------------------------------------------------------------
	  Convergence Criteria     1.00e-06 *    3.00e-04 *             o    1.20e-03 *             o
	----------------------------------------------------------------------------------------------
	    16    -484.83284068   -6.19e-08 *    8.04e-06 *    8.04e-06 o    1.19e-04 *    1.19e-04 o  ~
	----------------------------------------------------------------------------------------------

Next Geometry in Ang
	Fragment 1 (Ang)

	   Al  -0.0000000000   1.2308782122   0.0000000000
	   Al   0.0000000000  -1.2308782122   0.0000000000

    Final optimized geometry and variables:
    Molecular point group: d2h
    Full point group: D_inf_h

    Geometry (in Angstrom), charge = -1, multiplicity = 2:

    AL          -0.000000000000     1.230846698212     0.000000000000
    AL           0.000000000000    -1.230846698212     0.000000000000

    Psi4 stopped on: Thursday, 17 July 2025 11:34AM
    Psi4 wall time for execution: 0:00:24.05

*** Psi4 exiting successfully. Buy a developer a beer!
