                               Psi4 1.9.1 release

  ==> Input File <==

--------------------------------------------------------------------------
molecule {
-1 2
Ar   0.00000        0.60000        0.00000
Ar   0.00000       -0.60000        0.00000
}

set {
basis              cc-pvdz
reference          uks
maxiter            500
geom_maxiter       500
DAMPING_PERCENTAGE 1
guess              SAP
}

optimize('b3lyp')
--------------------------------------------------------------------------

    Molecular point group: d2h
  Charge       = -1
  Multiplicity = 2
  Basis Set: CC-PVDZ
    Blend: CC-PVDZ
  Basis Set: (CC-PVDZ AUX)
    Blend: CC-PVDZ-JKFIT
  @DF-UKS Final Energy: -1052.59347387981120
    Total Energy =                      -1052.5934738798111994
 Dipole X            :          0.0000000            0.0000000            0.0000000
 Dipole Y            :          0.0000000            0.0000000            0.0000000
 Dipole Z            :          0.0000000            0.0000000            0.0000000
 Magnitude           :                                                    0.0000000
    Molecular point group: d2h
  Basis Set: CC-PVDZ
    Blend: CC-PVDZ
  Basis Set: (CC-PVDZ AUX)
    Blend: CC-PVDZ-JKFIT
  Basis Set: CC-PVDZ
    Blend: CC-PVDZ
  Basis Set: (CC-PVDZ AUX)
    Blend: CC-PVDZ-JKFIT
  @DF-UKS Final Energy: -1052.65202347248646
    Total Energy =                      -1052.6520234724864622
  Basis Set: CC-PVDZ
    Blend: CC-PVDZ
  Basis Set: (CC-PVDZ AUX)
    Blend: CC-PVDZ-JKFIT
  Basis Set: CC-PVDZ
    Blend: CC-PVDZ
  @DF-UKS Final Energy: -1052.75895741372210
    Total Energy =                      -1052.7589574137221007
  @DF-UKS Final Energy: -1053.09472943332935
    Total Energy =                      -1053.0947294333293485
  @DF-UKS Final Energy: -1053.71382864773364
    Total Energy =                      -1053.7138286477336351
  @DF-UKS Final Energy: -1053.97505314954242
    Total Energy =                      -1053.9750531495424184
  @DF-UKS Final Energy: -1054.13932811462905
    Total Energy =                      -1054.1393281146290519
  @DF-UKS Final Energy: -1054.20732554104166
    Total Energy =                      -1054.2073255410416550
  @DF-UKS Final Energy: -1054.28318143920296
    Total Energy =                      -1054.2831814392029628
  @DF-UKS Final Energy: -1054.38731372840675
    Total Energy =                      -1054.3873137284067525
  @DF-UKS Final Energy: -1054.38883307889887
    Total Energy =                      -1054.3888330788988696
  @DF-UKS Final Energy: -1054.39323460666969
    Total Energy =                      -1054.3932346066696937
  @DF-UKS Final Energy: -1054.39349079770113
    Total Energy =                      -1054.3934907977011335
  Basis Set: (CC-PVDZ AUX)
    Blend: CC-PVDZ-JKFIT
  Basis Set: CC-PVDZ
    Blend: CC-PVDZ
  Basis Set: (CC-PVDZ AUX)
    Blend: CC-PVDZ-JKFIT
  @DF-UKS Final Energy: -1054.39350354737985
    Total Energy =                      -1054.3935035473798507
  Basis Set: CC-PVDZ
    Blend: CC-PVDZ
  Basis Set: (CC-PVDZ AUX)
    Blend: CC-PVDZ-JKFIT
  Charge       = -1
  Multiplicity = 2
  Basis Set: CC-PVDZ
    Blend: CC-PVDZ
  Basis Set: (CC-PVDZ AUX)
    Blend: CC-PVDZ-JKFIT

    Orbital Energies [Eh]
    ---------------------

    Alpha Occupied:

       1B2u -114.780207     1Ag  -114.780207     2B2u  -10.828458
       2Ag   -10.828365     1B3g   -8.378013     1B1g   -8.378013
       1B1u   -8.378010     1B3u   -8.378010     3B2u   -8.376502
       3Ag    -8.376500     4Ag    -0.706453     4B2u   -0.676638
       5Ag    -0.200567     2B1u   -0.169677     2B3u   -0.169677
       2B1g   -0.144128     2B3g   -0.144128     5B2u   -0.095220
       6B2u    0.759001

    Alpha Virtual:

       3B1u    0.774119     3B3u    0.774119     6Ag     0.850314
       3B3g    0.866216     3B1g    0.866216     7Ag     0.914700
       7B2u    1.042990     8Ag     1.093980     1B2g    1.105696
       9Ag     1.105707     1Au     1.107518     8B2u    1.107529
       4B1u    1.109482     4B3u    1.109482     4B3g    1.140838
       4B1g    1.140838     9B2u    1.461670

    Beta Occupied:

       1B2u -114.776116     1Ag  -114.776116     2B2u  -10.824318
       2Ag   -10.824233     1B3g   -8.375375     1B1g   -8.375375
       1B1u   -8.375373     1B3u   -8.375373     3B2u   -8.366099
       3Ag    -8.366099     4Ag    -0.695477     4B2u   -0.664706
       5Ag    -0.181722     2B3u   -0.164201     2B1u   -0.164201
       2B1g   -0.138088     2B3g   -0.138088     5B2u   -0.073456

    Beta Virtual:

       3B1u    0.782713     3B3u    0.782713     6B2u    0.846923
       6Ag     0.857905     3B3g    0.875243     3B1g    0.875243
       7Ag     0.963779     7B2u    1.056601     1B2g    1.109553
       8Ag     1.109564     9Ag     1.110314     1Au     1.111369
       8B2u    1.111380     4B1u    1.116505     4B3u    1.116505
       4B3g    1.148943     4B1g    1.148943     9B2u    1.468054

    Final Occupation by Irrep:
             Ag   B1g   B2g   B3g    Au   B1u   B2u   B3u
    DOCC [     5,    2,    0,    2,    0,    2,    5,    2 ]
    SOCC [     0,    0,    0,    0,    0,    0,    1,    0 ]
    NA   [     5,    2,    0,    2,    0,    2,    6,    2 ]
    NB   [     5,    2,    0,    2,    0,    2,    5,    2 ]

  @DF-UKS Final Energy: -1054.39350417842024

   => Energetics <=

    Nuclear Repulsion Energy =             66.9291031403128045
    One-Electron Energy =               -1600.3938671877838260
    Two-Electron Energy =                 529.1709753771881424
    DFT Exchange-Correlation Energy =     -50.0997155081374927
    Empirical Dispersion Energy =           0.0000000000000000
    VV10 Nonlocal Energy =                  0.0000000000000000
    Total Energy =                      -1054.3935041784202440

  UHF NO Occupations:
  HONO-2 :    5 Ag 1.9999731
  HONO-1 :    5B2u 1.9999688
  HONO-0 :    6B2u 1.0000000
  LUNO+0 :    7B2u 0.0000312
  LUNO+1 :    6 Ag 0.0000269
  LUNO+2 :    3B3u 0.0000088
  LUNO+3 :    3B1u 0.0000088

Computation Completed

Properties will be evaluated at   0.000000,   0.000000,   0.000000 [a0]

Properties computed using the SCF density matrix

 Multipole Moments:

 ------------------------------------------------------------------------------------
     Multipole            Electronic (a.u.)      Nuclear  (a.u.)        Total (a.u.)
 ------------------------------------------------------------------------------------

 L = 1.  Multiply by 2.5417464519 to convert [e a0] to [Debye]
 Dipole X            :          0.0000000            0.0000000            0.0000000
 Dipole Y            :          0.0000000            0.0000000            0.0000000
 Dipole Z            :          0.0000000            0.0000000            0.0000000
 Magnitude           :                                                    0.0000000

 ------------------------------------------------------------------------------------

*** tstop() called on Joses-MacBook-Pro-2.local at Thu Jul 17 12:12:27 2025
Module time:
	user time   =       5.37 seconds =       0.09 minutes
	system time =       1.77 seconds =       0.03 minutes
	total time  =          0 seconds =       0.00 minutes
Total time:
	user time   =     162.94 seconds =       2.72 minutes
	system time =      42.21 seconds =       0.70 minutes
	total time  =         19 seconds =       0.32 minutes

*** tstart() called on Joses-MacBook-Pro-2.local
*** at Thu Jul 17 12:12:27 2025

         ------------------------------------------------------------
                                   SCF GRAD
                          Rob Parrish, Justin Turney,
                       Andy Simmonett, and Alex Sokolov
         ------------------------------------------------------------

  ==> Geometry <==

    Molecular point group: d2h
    Full point group: D_inf_h

    Geometry (in Angstrom), charge = -1, multiplicity = 2:

       Center              X                  Y                   Z               Mass
    ------------   -----------------  -----------------  -----------------  -----------------
         AR          -0.000000000000     1.280858462257     0.000000000000    39.962383123700
         AR           0.000000000000    -1.280858462257     0.000000000000    39.962383123700

  Nuclear repulsion =   66.929103140312804

  ==> Basis Set <==

  Basis Set: CC-PVDZ
    Blend: CC-PVDZ
    Number of shells: 16
    Number of basis functions: 36
    Number of Cartesian functions: 38
    Spherical Harmonics?: true
    Max angular momentum: 2

  ==> DFJKGrad: Density-Fitted SCF Gradients <==

    Gradient:                    1
    J tasked:                  Yes
    K tasked:                  Yes
    wK tasked:                  No
    OpenMP threads:              1
    Integrals threads:           1
    Memory [MiB]:              375
    Schwarz Cutoff:          1E-12
    Fitting Condition:       1E-10

   => Auxiliary Basis Set <=

  Basis Set: (CC-PVDZ AUX)
    Blend: CC-PVDZ-JKFIT
    Number of shells: 72
    Number of basis functions: 224
    Number of Cartesian functions: 260
    Spherical Harmonics?: true
    Max angular momentum: 3

  ==> DFT Potential <==

   => LibXC <=

    Version 6.2.2
    S. Lehtola, C. Steigemann, M. J.T. Oliveira, and M. A.L. Marques.,  SoftwareX 7, 1â€“5 (2018) (10.1016/j.softx.2017.11.002)

   => Composite Functional: B3LYP <=

    B3LYP Hyb-GGA Exchange-Correlation Functional

    P. J. Stephens, F. J. Devlin, C. F. Chabalowski, and M. J. Frisch.,  J. Phys. Chem. 98, 11623 (1994) (10.1021/j100096a001)

    Deriv               =              1
    GGA                 =           TRUE
    Meta                =          FALSE

    Exchange Hybrid     =           TRUE
    MP2 Hybrid          =          FALSE

   => Exchange Functionals <=

    0.0800   Slater exchange
    0.7200         Becke 88

   => Exact (HF) Exchange <=

    0.2000               HF

   => Correlation Functionals <=

    0.1900   Vosko, Wilk & Nusair (VWN5_RPA)
    0.8100   Lee, Yang & Parr

   => LibXC Density Thresholds  <==

    XC_HYB_GGA_XC_B3LYP:  1.00E-15

   => Molecular Quadrature <=

    Radial Scheme          =       TREUTLER
    Pruning Scheme         =           NONE
    Nuclear Scheme         =       TREUTLER

    Blocking Scheme        =         OCTREE
    BS radius alpha        =              1
    Pruning alpha          =              1
    Radial Points          =             75
    Spherical Points       =            302
    Total Points           =          39178
    Total Blocks           =            366
    Max Points             =            256
    Max Functions          =             36
    Weights Tolerance      =       1.00E-15

  -Total Gradient:
     Atom            X                  Y                   Z
    ------   -----------------  -----------------  -----------------
       1        0.000000000000    -0.000095135626     0.000000000000
       2       -0.000000000000     0.000095135626     0.000000000000

*** tstop() called on Joses-MacBook-Pro-2.local at Thu Jul 17 12:12:28 2025
Module time:
	user time   =       1.92 seconds =       0.03 minutes
	system time =       1.49 seconds =       0.02 minutes
	total time  =          1 seconds =       0.02 minutes
Total time:
	user time   =     164.86 seconds =       2.75 minutes
	system time =      43.70 seconds =       0.73 minutes
	total time  =         20 seconds =       0.33 minutes

    			-----------------------------------------

    			 OPTKING 3.0: for geometry optimizations

    			     By R.A. King, Bethel University

    			        with contributions from

    			    A.V. Copan, J. Cayton, A. Heide

    			-----------------------------------------

	                            ===> Fragment 1 <==

	 Z (Atomic Numbers)          Masses                          Geom
	      18.000000            39.962383         -0.00000000  2.42047170  0.00000000
	      18.000000            39.962383          0.00000000 -2.42047170  0.00000000

	 - Coordinate -           - BOHR/RAD -       - ANG/DEG -
	 R(1,2)           =         4.840943           2.561717

	        --- Internal Coordinate Step in ANG or DEG, aJ/ANG or AJ/DEG ---
	-------------------------------------------------------------------------------
	           Coordinate      Previous         Force          Change          New
	           ----------      --------        ------          ------        ------
	               R(1,2)       2.56172        0.00078        0.00036       2.56208
	-------------------------------------------------------------------------------

	                                 ==> Convergence Check <==

	Measures of convergence in internal coordinates in au.

	Criteria marked as inactive (o), active & met (*), and active & unmet ( ).

	----------------------------------------------------------------------------------------------
	   Step    Total Energy     Delta E     Max Force     RMS Force      Max Disp      RMS Disp
	----------------------------------------------------------------------------------------------
	  Convergence Criteria     1.00e-06 *    3.00e-04 *             o    1.20e-03 *             o
	----------------------------------------------------------------------------------------------
	    15   -1054.39350418   -6.31e-07 *    9.51e-05 *    9.51e-05 o    6.82e-04 *    6.82e-04 o  ~
	----------------------------------------------------------------------------------------------

Next Geometry in Ang
	Fragment 1 (Ang)

	   Ar  -0.0000000000   1.2810389020   0.0000000000
	   Ar   0.0000000000  -1.2810389020   0.0000000000

    Final optimized geometry and variables:
    Molecular point group: d2h
    Full point group: D_inf_h

    Geometry (in Angstrom), charge = -1, multiplicity = 2:

    AR          -0.000000000000     1.280858462257     0.000000000000
    AR           0.000000000000    -1.280858462257     0.000000000000

    Psi4 stopped on: Thursday, 17 July 2025 12:12PM
    Psi4 wall time for execution: 0:00:20.21

*** Psi4 exiting successfully. Buy a developer a beer!
