                               Psi4 1.9.1 release

  ==> Input File <==

--------------------------------------------------------------------------
molecule {
-1 2
F   0.00000        0.60000        0.00000
Cl   0.00000       -0.60000        0.00000
}

set {
basis              cc-pvdz
reference          uks
maxiter            500
geom_maxiter       500
DAMPING_PERCENTAGE 1
guess              SAP
}

optimize('b3lyp')
--------------------------------------------------------------------------

    Molecular point group: c2v
  Charge       = -1
  Multiplicity = 2
  Basis Set: CC-PVDZ
    Blend: CC-PVDZ
  Basis Set: (CC-PVDZ AUX)
    Blend: CC-PVDZ-JKFIT
  @DF-UKS Final Energy:  -559.48491660623336
    Total Energy =                       -559.4849166062334689
 Dipole X            :          0.0000000            0.0000000            0.0000000
 Dipole Y            :          0.0000000            0.0000000            0.0000000
 Dipole Z            :          1.3778834           -0.3467936            1.0310898
 Magnitude           :                                                    1.0310898
    Molecular point group: c2v
  Basis Set: CC-PVDZ
    Blend: CC-PVDZ
  Basis Set: (CC-PVDZ AUX)
    Blend: CC-PVDZ-JKFIT
  Basis Set: CC-PVDZ
    Blend: CC-PVDZ
  Basis Set: (CC-PVDZ AUX)
    Blend: CC-PVDZ-JKFIT
  @DF-UKS Final Energy:  -559.71582148325547
    Total Energy =                       -559.7158214832554677
  Basis Set: CC-PVDZ
    Blend: CC-PVDZ
  Basis Set: (CC-PVDZ AUX)
    Blend: CC-PVDZ-JKFIT
  Basis Set: CC-PVDZ
    Blend: CC-PVDZ
  @DF-UKS Final Energy:  -559.86696023812112
    Total Energy =                       -559.8669602381211234
  @DF-UKS Final Energy:  -559.96472568500485
    Total Energy =                       -559.9647256850048507
  @DF-UKS Final Energy:  -560.01631606583737
    Total Energy =                       -560.0163160658373727
  @DF-UKS Final Energy:  -560.03727460135815
    Total Energy =                       -560.0372746013581491
  @DF-UKS Final Energy:  -560.04546149744601
    Total Energy =                       -560.0454614974460128
  @DF-UKS Final Energy:  -560.04812437644466
    Total Energy =                       -560.0481243764446617
  @DF-UKS Final Energy:  -560.04865772265930
    Total Energy =                       -560.0486577226592999
  @DF-UKS Final Energy:  -560.04881009444603
    Total Energy =                       -560.0488100944460257
  @DF-UKS Final Energy:  -560.04882945513293
    Total Energy =                       -560.0488294551329318
  Basis Set: (CC-PVDZ AUX)
    Blend: CC-PVDZ-JKFIT
  Basis Set: CC-PVDZ
    Blend: CC-PVDZ
  Basis Set: (CC-PVDZ AUX)
    Blend: CC-PVDZ-JKFIT
  @DF-UKS Final Energy:  -560.04883220106706
    Total Energy =                       -560.0488322010671709
  Basis Set: CC-PVDZ
    Blend: CC-PVDZ
  Basis Set: (CC-PVDZ AUX)
    Blend: CC-PVDZ-JKFIT
  Charge       = -1
  Multiplicity = 2
  Basis Set: CC-PVDZ
    Blend: CC-PVDZ
  Basis Set: (CC-PVDZ AUX)
    Blend: CC-PVDZ-JKFIT

    Orbital Energies [Eh]
    ---------------------

    Alpha Occupied:

       1A1  -101.252055     2A1   -24.369864     3A1    -9.165181
       4A1    -6.929309     1B2    -6.919227     1B1    -6.919227
       5A1    -0.820314     6A1    -0.509109     7A1    -0.150669
       2B2    -0.082019     2B1    -0.082019     3B1    -0.036746
       3B2    -0.036746     8A1    -0.022263

    Alpha Virtual:

       4B2     0.807430     4B1     0.807430     9A1     0.810185
      10A1     0.909396    11A1     0.982517     5B2     1.002412
       5B1     1.002412    12A1     1.023308     1A2     1.023308
       6B2     1.448056     6B1     1.448056    13A1     1.515495
      14A1     2.011624     7B1     3.867750     7B2     3.867750
      15A1     3.870846    16A1     3.905480     2A2     3.905661

    Beta Occupied:

       1A1  -101.248557     2A1   -24.351373     3A1    -9.161704
       4A1    -6.918480     1B1    -6.917073     1B2    -6.917073
       5A1    -0.770182     6A1    -0.485076     2B2    -0.065822
       2B1    -0.065822     7A1    -0.055624     3B1    -0.027017
       3B2    -0.027017

    Beta Virtual:

       8A1     0.113991     4B2     0.811827     4B1     0.811827
       9A1     0.827852    10A1     0.927796    11A1     1.017887
      12A1     1.028292     1A2     1.028292     5B2     1.028888
       5B1     1.028888     6B2     1.458831     6B1     1.458831
      13A1     1.567292    14A1     2.042887    15A1     3.915019
       2A2     3.915198     7B1     3.922309     7B2     3.922309
      16A1     3.942625

    Final Occupation by Irrep:
             A1    A2    B1    B2
    DOCC [     7,    0,    3,    3 ]
    SOCC [     1,    0,    0,    0 ]
    NA   [     8,    0,    3,    3 ]
    NB   [     7,    0,    3,    3 ]

  @DF-UKS Final Energy:  -560.04883268896401

   => Energetics <=

    Nuclear Repulsion Energy =             34.7756765880878973
    One-Electron Energy =                -852.9633400126776905
    Two-Electron Energy =                 289.5540289887558743
    DFT Exchange-Correlation Energy =     -31.4151982531300469
    Empirical Dispersion Energy =           0.0000000000000000
    VV10 Nonlocal Energy =                  0.0000000000000000
    Total Energy =                       -560.0488326889640120

  UHF NO Occupations:
  HONO-2 :    6 A1 1.9998501
  HONO-1 :    7 A1 1.9990567
  HONO-0 :    8 A1 1.0000000
  LUNO+0 :    9 A1 0.0009433
  LUNO+1 :   10 A1 0.0001499
  LUNO+2 :   11 A1 0.0000926
  LUNO+3 :    4 B1 0.0000298

Computation Completed

Properties will be evaluated at   0.000000,   0.000000,   0.000000 [a0]

Properties computed using the SCF density matrix

 Multipole Moments:

 ------------------------------------------------------------------------------------
     Multipole            Electronic (a.u.)      Nuclear  (a.u.)        Total (a.u.)
 ------------------------------------------------------------------------------------

 L = 1.  Multiply by 2.5417464519 to convert [e a0] to [Debye]
 Dipole X            :          0.0000000            0.0000000            0.0000000
 Dipole Y            :          0.0000000            0.0000000            0.0000000
 Dipole Z            :          0.4596780           -0.6728323           -0.2131543
 Magnitude           :                                                    0.2131543

 ------------------------------------------------------------------------------------

*** tstop() called on Joses-MacBook-Pro-2.local at Thu Jul 17 10:55:48 2025
Module time:
	user time   =       2.33 seconds =       0.04 minutes
	system time =       3.15 seconds =       0.05 minutes
	total time  =          1 seconds =       0.02 minutes
Total time:
	user time   =      61.63 seconds =       1.03 minutes
	system time =      68.88 seconds =       1.15 minutes
	total time  =         12 seconds =       0.20 minutes

*** tstart() called on Joses-MacBook-Pro-2.local
*** at Thu Jul 17 10:55:48 2025

         ------------------------------------------------------------
                                   SCF GRAD
                          Rob Parrish, Justin Turney,
                       Andy Simmonett, and Alex Sokolov
         ------------------------------------------------------------

  ==> Geometry <==

    Molecular point group: c2v
    Full point group: C_inf_v

    Geometry (in Angstrom), charge = -1, multiplicity = 2:

       Center              X                  Y                   Z               Mass
    ------------   -----------------  -----------------  -----------------  -----------------
         F            0.000000000000     0.000000000000     1.508578880149    18.998403162730
         CL           0.000000000000     0.000000000000    -0.819603377568    34.968852682000

  Nuclear repulsion =   34.775676588087897

  ==> Basis Set <==

  Basis Set: CC-PVDZ
    Blend: CC-PVDZ
    Number of shells: 14
    Number of basis functions: 32
    Number of Cartesian functions: 34
    Spherical Harmonics?: true
    Max angular momentum: 2

  ==> DFJKGrad: Density-Fitted SCF Gradients <==

    Gradient:                    1
    J tasked:                  Yes
    K tasked:                  Yes
    wK tasked:                  No
    OpenMP threads:              1
    Integrals threads:           1
    Memory [MiB]:              375
    Schwarz Cutoff:          1E-12
    Fitting Condition:       1E-10

   => Auxiliary Basis Set <=

  Basis Set: (CC-PVDZ AUX)
    Blend: CC-PVDZ-JKFIT
    Number of shells: 60
    Number of basis functions: 182
    Number of Cartesian functions: 211
    Spherical Harmonics?: true
    Max angular momentum: 3

  ==> DFT Potential <==

   => LibXC <=

    Version 6.2.2
    S. Lehtola, C. Steigemann, M. J.T. Oliveira, and M. A.L. Marques.,  SoftwareX 7, 1â€“5 (2018) (10.1016/j.softx.2017.11.002)

   => Composite Functional: B3LYP <=

    B3LYP Hyb-GGA Exchange-Correlation Functional

    P. J. Stephens, F. J. Devlin, C. F. Chabalowski, and M. J. Frisch.,  J. Phys. Chem. 98, 11623 (1994) (10.1021/j100096a001)

    Deriv               =              1
    GGA                 =           TRUE
    Meta                =          FALSE

    Exchange Hybrid     =           TRUE
    MP2 Hybrid          =          FALSE

   => Exchange Functionals <=

    0.0800   Slater exchange
    0.7200         Becke 88

   => Exact (HF) Exchange <=

    0.2000               HF

   => Correlation Functionals <=

    0.1900   Vosko, Wilk & Nusair (VWN5_RPA)
    0.8100   Lee, Yang & Parr

   => LibXC Density Thresholds  <==

    XC_HYB_GGA_XC_B3LYP:  1.00E-15

   => Molecular Quadrature <=

    Radial Scheme          =       TREUTLER
    Pruning Scheme         =           NONE
    Nuclear Scheme         =       TREUTLER

    Blocking Scheme        =         OCTREE
    BS radius alpha        =              1
    Pruning alpha          =              1
    Radial Points          =             75
    Spherical Points       =            302
    Total Points           =          41929
    Total Blocks           =            376
    Max Points             =            254
    Max Functions          =             32
    Weights Tolerance      =       1.00E-15

  -Total Gradient:
     Atom            X                  Y                   Z
    ------   -----------------  -----------------  -----------------
       1        0.000000000000     0.000000000000    -0.000006159770
       2        0.000000000000     0.000000000000     0.000065586072

*** tstop() called on Joses-MacBook-Pro-2.local at Thu Jul 17 10:55:48 2025
Module time:
	user time   =       0.96 seconds =       0.02 minutes
	system time =       1.34 seconds =       0.02 minutes
	total time  =          0 seconds =       0.00 minutes
Total time:
	user time   =      62.59 seconds =       1.04 minutes
	system time =      70.22 seconds =       1.17 minutes
	total time  =         12 seconds =       0.20 minutes

    			-----------------------------------------

    			 OPTKING 3.0: for geometry optimizations

    			     By R.A. King, Bethel University

    			        with contributions from

    			    A.V. Copan, J. Cayton, A. Heide

    			-----------------------------------------

	                            ===> Fragment 1 <==

	 Z (Atomic Numbers)          Masses                          Geom
	       9.000000            18.998403          0.00000000  0.00000000  2.85080092
	      17.000000            34.968853          0.00000000  0.00000000 -1.54882592

	 - Coordinate -           - BOHR/RAD -       - ANG/DEG -
	 R(1,2)           =         4.399627           2.328182

	        --- Internal Coordinate Step in ANG or DEG, aJ/ANG or AJ/DEG ---
	-------------------------------------------------------------------------------
	           Coordinate      Previous         Force          Change          New
	           ----------      --------        ------          ------        ------
	               R(1,2)       2.32818        0.00030        0.00047       2.32865
	-------------------------------------------------------------------------------

	                                 ==> Convergence Check <==

	Measures of convergence in internal coordinates in au.

	Criteria marked as inactive (o), active & met (*), and active & unmet ( ).

	----------------------------------------------------------------------------------------------
	   Step    Total Energy     Delta E     Max Force     RMS Force      Max Disp      RMS Disp
	----------------------------------------------------------------------------------------------
	  Convergence Criteria     1.00e-06 *    3.00e-04 *             o    1.20e-03 *             o
	----------------------------------------------------------------------------------------------
	    13    -560.04883269   -4.88e-07 *    3.59e-05 *    3.59e-05 o    8.93e-04 *    8.93e-04 o  ~
	----------------------------------------------------------------------------------------------

Next Geometry in Ang
	Fragment 1 (Ang)

	    F   0.0000000000   0.0000000000   1.5088151066
	   Cl   0.0000000000   0.0000000000  -0.8198396040

    Final optimized geometry and variables:
    Molecular point group: c2v
    Full point group: C_inf_v

    Geometry (in Angstrom), charge = -1, multiplicity = 2:

    F            0.000000000000     0.000000000000     1.508578880149
    CL           0.000000000000     0.000000000000    -0.819603377568

    Psi4 stopped on: Thursday, 17 July 2025 10:55AM
    Psi4 wall time for execution: 0:00:13.27

*** Psi4 exiting successfully. Buy a developer a beer!
