                               Psi4 1.9.1 release

  ==> Input File <==

--------------------------------------------------------------------------
molecule {
-1 2
O   0.00000        0.60000        0.00000
Ar   0.00000       -0.60000        0.00000
}

set {
basis              cc-pvdz
reference          uks
maxiter            500
geom_maxiter       500
DAMPING_PERCENTAGE 1
guess              SAP
}

optimize('b3lyp')
--------------------------------------------------------------------------

    Molecular point group: c2v
  Charge       = -1
  Multiplicity = 2
  Basis Set: CC-PVDZ
    Blend: CC-PVDZ
  Basis Set: (CC-PVDZ AUX)
    Blend: CC-PVDZ-JKFIT
  @DF-UKS Final Energy:  -602.00696061400242
    Total Energy =                       -602.0069606140024234
 Dipole X            :          0.0000000            0.0000000            0.0000000
 Dipole Y            :          0.0000000            0.0000000            0.0000000
 Dipole Z            :         -1.7326708            1.2883152           -0.4443556
 Magnitude           :                                                    0.4443556
    Molecular point group: c2v
  Basis Set: CC-PVDZ
    Blend: CC-PVDZ
  Basis Set: (CC-PVDZ AUX)
    Blend: CC-PVDZ-JKFIT
  Basis Set: CC-PVDZ
    Blend: CC-PVDZ
  Basis Set: (CC-PVDZ AUX)
    Blend: CC-PVDZ-JKFIT
  @DF-UKS Final Energy:  -602.21144850891289
    Total Energy =                       -602.2114485089128948
  Basis Set: CC-PVDZ
    Blend: CC-PVDZ
  Basis Set: (CC-PVDZ AUX)
    Blend: CC-PVDZ-JKFIT
  Basis Set: CC-PVDZ
    Blend: CC-PVDZ
  @DF-UKS Final Energy:  -602.35197727435389
    Total Energy =                       -602.3519772743538852
  @DF-UKS Final Energy:  -602.45956149178357
    Total Energy =                       -602.4595614917835746
  @DF-UKS Final Energy:  -602.53780937257898
    Total Energy =                       -602.5378093725788631
  @DF-UKS Final Energy:  -602.57109874968546
    Total Energy =                       -602.5710987496854614
  @DF-UKS Final Energy:  -602.58658715514389
    Total Energy =                       -602.5865871551438886
  @DF-UKS Final Energy:  -602.59364279428598
    Total Energy =                       -602.5936427942859837
  @DF-UKS Final Energy:  -602.59672981575955
    Total Energy =                       -602.5967298157595451
  @DF-UKS Final Energy:  -602.59796790895598
    Total Energy =                       -602.5979679089559795
  @DF-UKS Final Energy:  -602.59838689262529
    Total Energy =                       -602.5983868926252853
  @DF-UKS Final Energy:  -602.59847467123973
    Total Energy =                       -602.5984746712397282
  @DF-UKS Final Energy:  -602.59850061544444
    Total Energy =                       -602.5985006154444363
  Basis Set: (CC-PVDZ AUX)
    Blend: CC-PVDZ-JKFIT
  Basis Set: CC-PVDZ
    Blend: CC-PVDZ
  Basis Set: (CC-PVDZ AUX)
    Blend: CC-PVDZ-JKFIT
  @DF-UKS Final Energy:  -602.59850402463076
    Total Energy =                       -602.5985040246306426
  Basis Set: CC-PVDZ
    Blend: CC-PVDZ
  Basis Set: (CC-PVDZ AUX)
    Blend: CC-PVDZ-JKFIT
  Charge       = -1
  Multiplicity = 2
  Basis Set: CC-PVDZ
    Blend: CC-PVDZ
  Basis Set: (CC-PVDZ AUX)
    Blend: CC-PVDZ-JKFIT

    Orbital Energies [Eh]
    ---------------------

    Alpha Occupied:

       1A1  -114.918566     2A1   -18.670583     3A1   -10.954659
       1B2    -8.504751     1B1    -8.504751     4A1    -8.504098
       5A1    -0.784069     6A1    -0.432151     2B1    -0.244422
       2B2    -0.244422     7A1    -0.235822     8A1     0.093441
       3B1     0.163019     3B2     0.163019

    Alpha Virtual:

       4B2     0.754912     4B1     0.754912     9A1     0.775982
      10A1     0.898658    11A1     1.011593     1A2     1.013702
      12A1     1.013704     5B1     1.017914     5B2     1.017914
       6B1     1.332338     6B2     1.332338    13A1     1.360900
      14A1     1.619705    15A1     3.018941     7B1     3.032187
       7B2     3.032187    16A1     3.088942     2A2     3.089042

    Beta Occupied:

       1A1  -114.918428     2A1   -18.649115     3A1   -10.954519
       1B2    -8.504654     1B1    -8.504654     4A1    -8.503760
       5A1    -0.783559     6A1    -0.358984     2B1    -0.244243
       2B2    -0.244243     7A1    -0.234231     3B1     0.186469
       3B2     0.186469

    Beta Virtual:

       8A1     0.320752     4B2     0.754972     4B1     0.754972
       9A1     0.781562    10A1     0.907880     1A2     1.013885
      11A1     1.013888    12A1     1.014778     5B1     1.018387
       5B2     1.018387     6B1     1.348857     6B2     1.348857
      13A1     1.449834    14A1     1.660768    15A1     3.100452
       2A2     3.100549     7B1     3.108988     7B2     3.108988
      16A1     3.128847

    Final Occupation by Irrep:
             A1    A2    B1    B2
    DOCC [     7,    0,    3,    3 ]
    SOCC [     1,    0,    0,    0 ]
    NA   [     8,    0,    3,    3 ]
    NB   [     7,    0,    3,    3 ]

  @DF-UKS Final Energy:  -602.59850451160946

   => Energetics <=

    Nuclear Repulsion Energy =             26.2356525748077551
    One-Electron Energy =                -891.7400340833505652
    Two-Electron Energy =                 294.9638758317861971
    DFT Exchange-Correlation Energy =     -32.0579988348529241
    Empirical Dispersion Energy =           0.0000000000000000
    VV10 Nonlocal Energy =                  0.0000000000000000
    Total Energy =                       -602.5985045116094625

  UHF NO Occupations:
  HONO-2 :    3 B1 1.9999419
  HONO-1 :    7 A1 1.9996462
  HONO-0 :    8 A1 1.0000000
  LUNO+0 :    9 A1 0.0003538
  LUNO+1 :    4 B1 0.0000581
  LUNO+2 :    4 B2 0.0000581
  LUNO+3 :   10 A1 0.0000020

Computation Completed

Properties will be evaluated at   0.000000,   0.000000,   0.000000 [a0]

Properties computed using the SCF density matrix

 Multipole Moments:

 ------------------------------------------------------------------------------------
     Multipole            Electronic (a.u.)      Nuclear  (a.u.)        Total (a.u.)
 ------------------------------------------------------------------------------------

 L = 1.  Multiply by 2.5417464519 to convert [e a0] to [Debye]
 Dipole X            :          0.0000000            0.0000000            0.0000000
 Dipole Y            :          0.0000000            0.0000000            0.0000000
 Dipole Z            :         -6.8620030            3.1182622           -3.7437407
 Magnitude           :                                                    3.7437407

 ------------------------------------------------------------------------------------

*** tstop() called on Joses-MacBook-Pro-2.local at Thu Jul 17 10:48:55 2025
Module time:
	user time   =       3.09 seconds =       0.05 minutes
	system time =       3.79 seconds =       0.06 minutes
	total time  =          1 seconds =       0.02 minutes
Total time:
	user time   =      70.64 seconds =       1.18 minutes
	system time =      80.24 seconds =       1.34 minutes
	total time  =         16 seconds =       0.27 minutes

*** tstart() called on Joses-MacBook-Pro-2.local
*** at Thu Jul 17 10:48:55 2025

         ------------------------------------------------------------
                                   SCF GRAD
                          Rob Parrish, Justin Turney,
                       Andy Simmonett, and Alex Sokolov
         ------------------------------------------------------------

  ==> Geometry <==

    Molecular point group: c2v
    Full point group: C_inf_v

    Geometry (in Angstrom), charge = -1, multiplicity = 2:

       Center              X                  Y                   Z               Mass
    ------------   -----------------  -----------------  -----------------  -----------------
         O            0.000000000000     0.000000000000     2.074275315856    15.994914619570
         AR           0.000000000000     0.000000000000    -0.830227178191    39.962383123700

  Nuclear repulsion =   26.235652574807755

  ==> Basis Set <==

  Basis Set: CC-PVDZ
    Blend: CC-PVDZ
    Number of shells: 14
    Number of basis functions: 32
    Number of Cartesian functions: 34
    Spherical Harmonics?: true
    Max angular momentum: 2

  ==> DFJKGrad: Density-Fitted SCF Gradients <==

    Gradient:                    1
    J tasked:                  Yes
    K tasked:                  Yes
    wK tasked:                  No
    OpenMP threads:              1
    Integrals threads:           1
    Memory [MiB]:              375
    Schwarz Cutoff:          1E-12
    Fitting Condition:       1E-10

   => Auxiliary Basis Set <=

  Basis Set: (CC-PVDZ AUX)
    Blend: CC-PVDZ-JKFIT
    Number of shells: 60
    Number of basis functions: 182
    Number of Cartesian functions: 211
    Spherical Harmonics?: true
    Max angular momentum: 3

  ==> DFT Potential <==

   => LibXC <=

    Version 6.2.2
    S. Lehtola, C. Steigemann, M. J.T. Oliveira, and M. A.L. Marques.,  SoftwareX 7, 1â€“5 (2018) (10.1016/j.softx.2017.11.002)

   => Composite Functional: B3LYP <=

    B3LYP Hyb-GGA Exchange-Correlation Functional

    P. J. Stephens, F. J. Devlin, C. F. Chabalowski, and M. J. Frisch.,  J. Phys. Chem. 98, 11623 (1994) (10.1021/j100096a001)

    Deriv               =              1
    GGA                 =           TRUE
    Meta                =          FALSE

    Exchange Hybrid     =           TRUE
    MP2 Hybrid          =          FALSE

   => Exchange Functionals <=

    0.0800   Slater exchange
    0.7200         Becke 88

   => Exact (HF) Exchange <=

    0.2000               HF

   => Correlation Functionals <=

    0.1900   Vosko, Wilk & Nusair (VWN5_RPA)
    0.8100   Lee, Yang & Parr

   => LibXC Density Thresholds  <==

    XC_HYB_GGA_XC_B3LYP:  1.00E-15

   => Molecular Quadrature <=

    Radial Scheme          =       TREUTLER
    Pruning Scheme         =           NONE
    Nuclear Scheme         =       TREUTLER

    Blocking Scheme        =         OCTREE
    BS radius alpha        =              1
    Pruning alpha          =              1
    Radial Points          =             75
    Spherical Points       =            302
    Total Points           =          41161
    Total Blocks           =            372
    Max Points             =            255
    Max Functions          =             32
    Weights Tolerance      =       1.00E-15

  -Total Gradient:
     Atom            X                  Y                   Z
    ------   -----------------  -----------------  -----------------
       1        0.000000000000     0.000000000000    -0.000018185907
       2        0.000000000000     0.000000000000     0.000041751137

*** tstop() called on Joses-MacBook-Pro-2.local at Thu Jul 17 10:48:55 2025
Module time:
	user time   =       1.79 seconds =       0.03 minutes
	system time =       0.80 seconds =       0.01 minutes
	total time  =          0 seconds =       0.00 minutes
Total time:
	user time   =      72.43 seconds =       1.21 minutes
	system time =      81.04 seconds =       1.35 minutes
	total time  =         16 seconds =       0.27 minutes

    			-----------------------------------------

    			 OPTKING 3.0: for geometry optimizations

    			     By R.A. King, Bethel University

    			        with contributions from

    			    A.V. Copan, J. Cayton, A. Heide

    			-----------------------------------------

	                            ===> Fragment 1 <==

	 Z (Atomic Numbers)          Masses                          Geom
	       8.000000            15.994915          0.00000000  0.00000000  3.91981226
	      18.000000            39.962383          0.00000000  0.00000000 -1.56890199

	 - Coordinate -           - BOHR/RAD -       - ANG/DEG -
	 R(1,2)           =         5.488714           2.904502

	        --- Internal Coordinate Step in ANG or DEG, aJ/ANG or AJ/DEG ---
	-------------------------------------------------------------------------------
	           Coordinate      Previous         Force          Change          New
	           ----------      --------        ------          ------        ------
	               R(1,2)       2.90450        0.00025        0.00232       2.90682
	-------------------------------------------------------------------------------

	                                 ==> Convergence Check <==

	Measures of convergence in internal coordinates in au.

	Criteria marked as inactive (o), active & met (*), and active & unmet ( ).

	----------------------------------------------------------------------------------------------
	   Step    Total Energy     Delta E     Max Force     RMS Force      Max Disp      RMS Disp
	----------------------------------------------------------------------------------------------
	  Convergence Criteria     1.00e-06 *    3.00e-04 *             o    1.20e-03 *             o
	----------------------------------------------------------------------------------------------
	    15    -602.59850451   -4.87e-07 *    3.00e-05 *    3.00e-05 o    4.39e-03      4.39e-03 o  ~
	----------------------------------------------------------------------------------------------

Next Geometry in Ang
	Fragment 1 (Ang)

	    O   0.0000000000   0.0000000000   2.0754356657
	   Ar   0.0000000000   0.0000000000  -0.8313875280

    Final optimized geometry and variables:
    Molecular point group: c2v
    Full point group: C_inf_v

    Geometry (in Angstrom), charge = -1, multiplicity = 2:

    O            0.000000000000     0.000000000000     2.074275315856
    AR           0.000000000000     0.000000000000    -0.830227178191

    Psi4 stopped on: Thursday, 17 July 2025 10:48AM
    Psi4 wall time for execution: 0:00:16.33

*** Psi4 exiting successfully. Buy a developer a beer!
