                               Psi4 1.9.1 release

  ==> Input File <==

--------------------------------------------------------------------------
molecule {
-1 2
Na   0.00000        0.60000        0.00000
Na   0.00000       -0.60000        0.00000
}

set {
basis              cc-pvdz
reference          uks
maxiter            500
geom_maxiter       500
DAMPING_PERCENTAGE 1
guess              SAP
}

optimize('b3lyp')
--------------------------------------------------------------------------

    Molecular point group: d2h
  Charge       = -1
  Multiplicity = 2
  Basis Set: CC-PVDZ
    Blend: CC-PVDZ
  Basis Set: (CC-PVDZ AUX)
    Blend: DEF2-UNIVERSAL-JKFIT
  @DF-UKS Final Energy:  -324.05459119145348
    Total Energy =                       -324.0545911914534827
 Dipole X            :          0.0000000            0.0000000            0.0000000
 Dipole Y            :          0.0000000            0.0000000            0.0000000
 Dipole Z            :          0.0000000            0.0000000            0.0000000
 Magnitude           :                                                    0.0000000
    Molecular point group: d2h
  Basis Set: CC-PVDZ
    Blend: CC-PVDZ
  Basis Set: (CC-PVDZ AUX)
    Blend: DEF2-UNIVERSAL-JKFIT
  Basis Set: CC-PVDZ
    Blend: CC-PVDZ
  Basis Set: (CC-PVDZ AUX)
    Blend: DEF2-UNIVERSAL-JKFIT
  @DF-UKS Final Energy:  -324.06175836481202
    Total Energy =                       -324.0617583648120217
  Basis Set: CC-PVDZ
    Blend: CC-PVDZ
  Basis Set: (CC-PVDZ AUX)
    Blend: DEF2-UNIVERSAL-JKFIT
  Basis Set: CC-PVDZ
    Blend: CC-PVDZ
  @DF-UKS Final Energy:  -324.07554792077497
    Total Energy =                       -324.0755479207749659
  @DF-UKS Final Energy:  -324.12514738980070
    Total Energy =                       -324.1251473898007021
  @DF-UKS Final Energy:  -324.34003661110955
    Total Energy =                       -324.3400366111094968
  @DF-UKS Final Energy:  -324.42840507238481
    Total Energy =                       -324.4284050723848054
  @DF-UKS Final Energy:  -324.48783612322546
    Total Energy =                       -324.4878361232254633
  @DF-UKS Final Energy:  -324.52088927927656
    Total Energy =                       -324.5208892792766164
  @DF-UKS Final Energy:  -324.54614763561989
    Total Energy =                       -324.5461476356198887
  @DF-UKS Final Energy:  -324.56990656030200
    Total Energy =                       -324.5699065603020017
  @DF-UKS Final Energy:  -324.58424321436735
    Total Energy =                       -324.5842432143674046
  @DF-UKS Final Energy:  -324.59173333031185
    Total Energy =                       -324.5917333303119108
  @DF-UKS Final Energy:  -324.59460514242693
    Total Energy =                       -324.5946051424269285
  @DF-UKS Final Energy:  -324.59548528963131
    Total Energy =                       -324.5954852896313128
  @DF-UKS Final Energy:  -324.59559440942900
    Total Energy =                       -324.5955944094289976
  Basis Set: (CC-PVDZ AUX)
    Blend: DEF2-UNIVERSAL-JKFIT
  Basis Set: CC-PVDZ
    Blend: CC-PVDZ
  Basis Set: (CC-PVDZ AUX)
    Blend: DEF2-UNIVERSAL-JKFIT
  @DF-UKS Final Energy:  -324.59559677967985
    Total Energy =                       -324.5955967796798518
  Basis Set: CC-PVDZ
    Blend: CC-PVDZ
  Basis Set: (CC-PVDZ AUX)
    Blend: DEF2-UNIVERSAL-JKFIT
  Charge       = -1
  Multiplicity = 2
  Basis Set: CC-PVDZ
    Blend: CC-PVDZ
  Basis Set: (CC-PVDZ AUX)
    Blend: DEF2-UNIVERSAL-JKFIT

    Orbital Energies [Eh]
    ---------------------

    Alpha Occupied:

       1Ag   -38.337068     1B2u  -38.337067     2Ag    -2.082739
       2B2u   -2.082575     3Ag    -1.015707     1B1u   -1.014179
       1B3g   -1.013912     1B3u   -1.013476     3B2u   -1.013376
       1B1g   -1.013208     4Ag    -0.013320     2B3u    0.050309

    Alpha Virtual:

       4B2u    0.050818     2B1u    0.082373     5Ag     0.090223
       2B1g    0.096090     2B3g    0.107417     5B2u    0.113386
       6Ag     0.153532     3B3u    0.173588     3B1u    0.180825
       7Ag     0.184354     6B2u    0.207739     3B1g    0.213860
       3B3g    0.218506     1B2g    0.269270     8Ag     0.270889
       7B2u    0.279506     4B3u    0.288911     4B1u    0.291986
       1Au     0.330751     8B2u    0.332236     9Ag     0.370626
       4B1g    0.423005     4B3g    0.425420     9B2u    0.771684

    Beta Occupied:

       1Ag   -38.336976     1B2u  -38.336975     2Ag    -2.082606
       2B2u   -2.082442     3Ag    -1.015688     1B1u   -1.014165
       1B3g   -1.013895     3B2u   -1.013344     1B3u   -1.012967
       1B1g   -1.012701     4Ag    -0.007567

    Beta Virtual:

       4B2u    0.051298     2B1u    0.083308     2B3u    0.086501
       5Ag     0.089867     2B1g    0.105981     2B3g    0.106220
       5B2u    0.112923     6Ag     0.161009     3B1u    0.179306
       7Ag     0.182646     3B3u    0.183623     6B2u    0.210887
       3B3g    0.216175     3B1g    0.220988     1B2g    0.276685
       8Ag     0.277085     7B2u    0.279207     4B1u    0.288633
       4B3u    0.295654     1Au     0.336142     8B2u    0.336813
       9Ag     0.370966     4B3g    0.422580     4B1g    0.429545
       9B2u    0.771857

    Final Occupation by Irrep:
             Ag   B1g   B2g   B3g    Au   B1u   B2u   B3u
    DOCC [     4,    1,    0,    1,    0,    1,    3,    1 ]
    SOCC [     0,    0,    0,    0,    0,    0,    0,    1 ]
    NA   [     4,    1,    0,    1,    0,    1,    3,    2 ]
    NB   [     4,    1,    0,    1,    0,    1,    3,    1 ]

  @DF-UKS Final Energy:  -324.59559682835402

   => Energetics <=

    Nuclear Repulsion Energy =             21.1718715419904875
    One-Electron Energy =                -501.0150250386832909
    Two-Electron Energy =                 178.6119728476222122
    DFT Exchange-Correlation Energy =     -23.3644161792834417
    Empirical Dispersion Energy =           0.0000000000000000
    VV10 Nonlocal Energy =                  0.0000000000000000
    Total Energy =                       -324.5955968283540756

  UHF NO Occupations:
  HONO-2 :    3 Ag 2.0000000
  HONO-1 :    4 Ag 1.9978754
  HONO-0 :    2B3u 1.0000000
  LUNO+0 :    5 Ag 0.0021246
  LUNO+1 :    6 Ag 0.0000000
  LUNO+2 :    2B1u 0.0000000
  LUNO+3 :    2B3g 0.0000000

Computation Completed

Properties will be evaluated at   0.000000,   0.000000,   0.000000 [a0]

Properties computed using the SCF density matrix

 Multipole Moments:

 ------------------------------------------------------------------------------------
     Multipole            Electronic (a.u.)      Nuclear  (a.u.)        Total (a.u.)
 ------------------------------------------------------------------------------------

 L = 1.  Multiply by 2.5417464519 to convert [e a0] to [Debye]
 Dipole X            :          0.0000000            0.0000000            0.0000000
 Dipole Y            :          0.0000000            0.0000000            0.0000000
 Dipole Z            :          0.0000000            0.0000000            0.0000000
 Magnitude           :                                                    0.0000000

 ------------------------------------------------------------------------------------

*** tstop() called on Joses-MacBook-Pro-2.local at Thu Jul 17 11:05:59 2025
Module time:
	user time   =       6.78 seconds =       0.11 minutes
	system time =       2.52 seconds =       0.04 minutes
	total time  =          1 seconds =       0.02 minutes
Total time:
	user time   =     191.52 seconds =       3.19 minutes
	system time =      90.65 seconds =       1.51 minutes
	total time  =         28 seconds =       0.47 minutes

*** tstart() called on Joses-MacBook-Pro-2.local
*** at Thu Jul 17 11:05:59 2025

         ------------------------------------------------------------
                                   SCF GRAD
                          Rob Parrish, Justin Turney,
                       Andy Simmonett, and Alex Sokolov
         ------------------------------------------------------------

  ==> Geometry <==

    Molecular point group: d2h
    Full point group: D_inf_h

    Geometry (in Angstrom), charge = -1, multiplicity = 2:

       Center              X                  Y                   Z               Mass
    ------------   -----------------  -----------------  -----------------  -----------------
         NA          -0.000000000000     1.512158298431     0.000000000000    22.989769282000
         NA           0.000000000000    -1.512158298431     0.000000000000    22.989769282000

  Nuclear repulsion =   21.171871541990487

  ==> Basis Set <==

  Basis Set: CC-PVDZ
    Blend: CC-PVDZ
    Number of shells: 16
    Number of basis functions: 36
    Number of Cartesian functions: 38
    Spherical Harmonics?: true
    Max angular momentum: 2

  ==> DFJKGrad: Density-Fitted SCF Gradients <==

    Gradient:                    1
    J tasked:                  Yes
    K tasked:                  Yes
    wK tasked:                  No
    OpenMP threads:              1
    Integrals threads:           1
    Memory [MiB]:              375
    Schwarz Cutoff:          1E-12
    Fitting Condition:       1E-10

   => Auxiliary Basis Set <=

  Basis Set: (CC-PVDZ AUX)
    Blend: DEF2-UNIVERSAL-JKFIT
    Number of shells: 68
    Number of basis functions: 224
    Number of Cartesian functions: 274
    Spherical Harmonics?: true
    Max angular momentum: 4

  ==> DFT Potential <==

   => LibXC <=

    Version 6.2.2
    S. Lehtola, C. Steigemann, M. J.T. Oliveira, and M. A.L. Marques.,  SoftwareX 7, 1â€“5 (2018) (10.1016/j.softx.2017.11.002)

   => Composite Functional: B3LYP <=

    B3LYP Hyb-GGA Exchange-Correlation Functional

    P. J. Stephens, F. J. Devlin, C. F. Chabalowski, and M. J. Frisch.,  J. Phys. Chem. 98, 11623 (1994) (10.1021/j100096a001)

    Deriv               =              1
    GGA                 =           TRUE
    Meta                =          FALSE

    Exchange Hybrid     =           TRUE
    MP2 Hybrid          =          FALSE

   => Exchange Functionals <=

    0.0800   Slater exchange
    0.7200         Becke 88

   => Exact (HF) Exchange <=

    0.2000               HF

   => Correlation Functionals <=

    0.1900   Vosko, Wilk & Nusair (VWN5_RPA)
    0.8100   Lee, Yang & Parr

   => LibXC Density Thresholds  <==

    XC_HYB_GGA_XC_B3LYP:  1.00E-15

   => Molecular Quadrature <=

    Radial Scheme          =       TREUTLER
    Pruning Scheme         =           NONE
    Nuclear Scheme         =       TREUTLER

    Blocking Scheme        =         OCTREE
    BS radius alpha        =              1
    Pruning alpha          =              1
    Radial Points          =             75
    Spherical Points       =            302
    Total Points           =          43066
    Total Blocks           =            452
    Max Points             =            255
    Max Functions          =             36
    Weights Tolerance      =       1.00E-15

  -Total Gradient:
     Atom            X                  Y                   Z
    ------   -----------------  -----------------  -----------------
       1        0.000000000000    -0.000004540298     0.000000000000
       2       -0.000000000000     0.000004540298     0.000000000000

*** tstop() called on Joses-MacBook-Pro-2.local at Thu Jul 17 11:05:59 2025
Module time:
	user time   =       2.86 seconds =       0.05 minutes
	system time =       2.41 seconds =       0.04 minutes
	total time  =          0 seconds =       0.00 minutes
Total time:
	user time   =     194.38 seconds =       3.24 minutes
	system time =      93.07 seconds =       1.55 minutes
	total time  =         28 seconds =       0.47 minutes

    			-----------------------------------------

    			 OPTKING 3.0: for geometry optimizations

    			     By R.A. King, Bethel University

    			        with contributions from

    			    A.V. Copan, J. Cayton, A. Heide

    			-----------------------------------------

	                            ===> Fragment 1 <==

	 Z (Atomic Numbers)          Masses                          Geom
	      11.000000            22.989769         -0.00000000  2.85756504  0.00000000
	      11.000000            22.989769          0.00000000 -2.85756504  0.00000000

	 - Coordinate -           - BOHR/RAD -       - ANG/DEG -
	 R(1,2)           =         5.715130           3.024317

	        --- Internal Coordinate Step in ANG or DEG, aJ/ANG or AJ/DEG ---
	-------------------------------------------------------------------------------
	           Coordinate      Previous         Force          Change          New
	           ----------      --------        ------          ------        ------
	               R(1,2)       3.02432        0.00004        0.00020       3.02452
	-------------------------------------------------------------------------------

	                                 ==> Convergence Check <==

	Measures of convergence in internal coordinates in au.

	Criteria marked as inactive (o), active & met (*), and active & unmet ( ).

	----------------------------------------------------------------------------------------------
	   Step    Total Energy     Delta E     Max Force     RMS Force      Max Disp      RMS Disp
	----------------------------------------------------------------------------------------------
	  Convergence Criteria     1.00e-06 *    3.00e-04 *             o    1.20e-03 *             o
	----------------------------------------------------------------------------------------------
	    17    -324.59559683   -4.87e-08 *    4.54e-06 *    4.54e-06 o    3.77e-04 *    3.77e-04 o  ~
	----------------------------------------------------------------------------------------------

Next Geometry in Ang
	Fragment 1 (Ang)

	   Na  -0.0000000000   1.5122579633   0.0000000000
	   Na   0.0000000000  -1.5122579633   0.0000000000

    Final optimized geometry and variables:
    Molecular point group: d2h
    Full point group: D_inf_h

    Geometry (in Angstrom), charge = -1, multiplicity = 2:

    NA          -0.000000000000     1.512158298431     0.000000000000
    NA           0.000000000000    -1.512158298431     0.000000000000

    Psi4 stopped on: Thursday, 17 July 2025 11:05AM
    Psi4 wall time for execution: 0:00:29.26

*** Psi4 exiting successfully. Buy a developer a beer!
