                               Psi4 1.9.1 release

  ==> Input File <==

--------------------------------------------------------------------------
molecule {
-1 2
He   0.00000        0.60000        0.00000
Si   0.00000       -0.60000        0.00000
}

set {
basis              cc-pvdz
reference          uks
maxiter            500
geom_maxiter       500
DAMPING_PERCENTAGE 1
guess              SAP
}

optimize('b3lyp')
--------------------------------------------------------------------------

    Molecular point group: c2v
  Charge       = -1
  Multiplicity = 2
  Basis Set: CC-PVDZ
    Blend: CC-PVDZ
  Basis Set: (CC-PVDZ AUX)
    Blend: CC-PVDZ-JKFIT + DEF2-UNIVERSAL-JKFIT
  @DF-UKS Final Energy:  -292.13405304691912
    Total Energy =                       -292.1340530469191208
 Dipole X            :          0.0000000            0.0000000            0.0000000
 Dipole Y            :          0.0000000            0.0000000            0.0000000
 Dipole Z            :          1.2652829           -0.0058566            1.2594262
 Magnitude           :                                                    1.2594262
    Molecular point group: c2v
  Basis Set: CC-PVDZ
    Blend: CC-PVDZ
  Basis Set: (CC-PVDZ AUX)
    Blend: CC-PVDZ-JKFIT + DEF2-UNIVERSAL-JKFIT
  Basis Set: CC-PVDZ
    Blend: CC-PVDZ
  Basis Set: (CC-PVDZ AUX)
    Blend: CC-PVDZ-JKFIT + DEF2-UNIVERSAL-JKFIT
  @DF-UKS Final Energy:  -292.22312992617287
    Total Energy =                       -292.2231299261729305
  Basis Set: CC-PVDZ
    Blend: CC-PVDZ
  Basis Set: (CC-PVDZ AUX)
    Blend: CC-PVDZ-JKFIT + DEF2-UNIVERSAL-JKFIT
  Basis Set: CC-PVDZ
    Blend: CC-PVDZ
  @DF-UKS Final Energy:  -292.24137606006678
    Total Energy =                       -292.2413760600667842
  @DF-UKS Final Energy:  -292.25863725868044
    Total Energy =                       -292.2586372586804373
  @DF-UKS Final Energy:  -292.26830402175506
    Total Energy =                       -292.2683040217550570
  @DF-UKS Final Energy:  -292.27396231177988
    Total Energy =                       -292.2739623117799397
  @DF-UKS Final Energy:  -292.27684871950697
    Total Energy =                       -292.2768487195069724
  @DF-UKS Final Energy:  -292.27824927412922
    Total Energy =                       -292.2782492741292231
  @DF-UKS Final Energy:  -292.27890845456881
    Total Energy =                       -292.2789084545688070
  @DF-UKS Final Energy:  -292.27920753669099
    Total Energy =                       -292.2792075366909899
  @DF-UKS Final Energy:  -292.27933372241012
    Total Energy =                       -292.2793337224100583
  @DF-UKS Final Energy:  -292.27938035203647
    Total Energy =                       -292.2793803520364122
  @DF-UKS Final Energy:  -292.27939191902044
    Total Energy =                       -292.2793919190203837
  @DF-UKS Final Energy:  -292.27939696271528
    Total Energy =                       -292.2793969627152819
  Basis Set: (CC-PVDZ AUX)
    Blend: CC-PVDZ-JKFIT + DEF2-UNIVERSAL-JKFIT
  Basis Set: CC-PVDZ
    Blend: CC-PVDZ
  Basis Set: (CC-PVDZ AUX)
    Blend: CC-PVDZ-JKFIT + DEF2-UNIVERSAL-JKFIT
  @DF-UKS Final Energy:  -292.27939803954882
    Total Energy =                       -292.2793980395488802
  Basis Set: CC-PVDZ
    Blend: CC-PVDZ
  Basis Set: (CC-PVDZ AUX)
    Blend: CC-PVDZ-JKFIT + DEF2-UNIVERSAL-JKFIT
  Charge       = -1
  Multiplicity = 2
  Basis Set: CC-PVDZ
    Blend: CC-PVDZ
  Basis Set: (CC-PVDZ AUX)
    Blend: CC-PVDZ-JKFIT + DEF2-UNIVERSAL-JKFIT

    Orbital Energies [Eh]
    ---------------------

    Alpha Occupied:

       1A1   -65.874165     2A1    -5.014446     3A1    -3.378784
       1B2    -3.375135     1B1    -3.365025     4A1    -0.516260
       5A1    -0.160261     2B2     0.069853     2B1     0.102247

    Alpha Virtual:

       6A1     0.131288     7A1     0.485509     3B2     0.544108
       8A1     0.555908     3B1     0.569388     4B2     0.613122
       9A1     0.616106     1A2     0.635251     4B1     0.640013
      10A1     0.648322    11A1     1.297390     5B2     2.323311
       5B1     2.323554    12A1     2.334885

    Beta Occupied:

       1A1   -65.871905     2A1    -5.011912     3A1    -3.377541
       1B2    -3.366605     1B1    -3.363657     4A1    -0.516288
       5A1    -0.130465     2B1     0.110031

    Beta Virtual:

       6A1     0.139695     2B2     0.168362     7A1     0.498420
       8A1     0.559958     3B1     0.573585     3B2     0.579873
       9A1     0.641362     4B1     0.642905     4B2     0.653317
       1A2     0.669845    10A1     0.674455    11A1     1.297664
       5B2     2.323330     5B1     2.323556    12A1     2.334930

    Final Occupation by Irrep:
             A1    A2    B1    B2
    DOCC [     5,    0,    2,    1 ]
    SOCC [     0,    0,    0,    1 ]
    NA   [     5,    0,    2,    2 ]
    NB   [     5,    0,    2,    1 ]

  @DF-UKS Final Energy:  -292.27939827350650

   => Energetics <=

    Nuclear Repulsion Energy =              4.4646383187415948
    One-Electron Energy =                -417.7393436222041601
    Two-Electron Energy =                 138.8104853898393571
    DFT Exchange-Correlation Energy =     -17.8151783598832587
    Empirical Dispersion Energy =           0.0000000000000000
    VV10 Nonlocal Energy =                  0.0000000000000000
    Total Energy =                       -292.2793982735064446

  UHF NO Occupations:
  HONO-2 :    2 B1 1.9999886
  HONO-1 :    5 A1 1.9986920
  HONO-0 :    2 B2 1.0000000
  LUNO+0 :    6 A1 0.0013080
  LUNO+1 :    3 B1 0.0000114
  LUNO+2 :    7 A1 0.0000000
  LUNO+3 :    3 B2 0.0000000

Computation Completed

Properties will be evaluated at   0.000000,   0.000000,   0.000000 [a0]

Properties computed using the SCF density matrix

 Multipole Moments:

 ------------------------------------------------------------------------------------
     Multipole            Electronic (a.u.)      Nuclear  (a.u.)        Total (a.u.)
 ------------------------------------------------------------------------------------

 L = 1.  Multiply by 2.5417464519 to convert [e a0] to [Debye]
 Dipole X            :          0.0000000            0.0000000            0.0000000
 Dipole Y            :          0.0000000            0.0000000            0.0000000
 Dipole Z            :          0.8139697           -0.0161972            0.7977725
 Magnitude           :                                                    0.7977725

 ------------------------------------------------------------------------------------

*** tstop() called on Joses-MacBook-Pro-2.local at Thu Jul 17 09:23:22 2025
Module time:
	user time   =       3.59 seconds =       0.06 minutes
	system time =       2.07 seconds =       0.03 minutes
	total time  =          1 seconds =       0.02 minutes
Total time:
	user time   =      73.21 seconds =       1.22 minutes
	system time =      66.27 seconds =       1.10 minutes
	total time  =         14 seconds =       0.23 minutes

*** tstart() called on Joses-MacBook-Pro-2.local
*** at Thu Jul 17 09:23:22 2025

         ------------------------------------------------------------
                                   SCF GRAD
                          Rob Parrish, Justin Turney,
                       Andy Simmonett, and Alex Sokolov
         ------------------------------------------------------------

  ==> Geometry <==

    Molecular point group: c2v
    Full point group: C_inf_v

    Geometry (in Angstrom), charge = -1, multiplicity = 2:

       Center              X                  Y                   Z               Mass
    ------------   -----------------  -----------------  -----------------  -----------------
         HE           0.000000000000     0.000000000000     2.903359472981     4.002603254130
         SI           0.000000000000     0.000000000000    -0.415377867189    27.976926534650

  Nuclear repulsion =    4.464638318741595

  ==> Basis Set <==

  Basis Set: CC-PVDZ
    Blend: CC-PVDZ
    Number of shells: 11
    Number of basis functions: 23
    Number of Cartesian functions: 24
    Spherical Harmonics?: true
    Max angular momentum: 2

  ==> DFJKGrad: Density-Fitted SCF Gradients <==

    Gradient:                    1
    J tasked:                  Yes
    K tasked:                  Yes
    wK tasked:                  No
    OpenMP threads:              1
    Integrals threads:           1
    Memory [MiB]:              375
    Schwarz Cutoff:          1E-12
    Fitting Condition:       1E-10

   => Auxiliary Basis Set <=

  Basis Set: (CC-PVDZ AUX)
    Blend: CC-PVDZ-JKFIT + DEF2-UNIVERSAL-JKFIT
    Number of shells: 45
    Number of basis functions: 135
    Number of Cartesian functions: 155
    Spherical Harmonics?: true
    Max angular momentum: 3

  ==> DFT Potential <==

   => LibXC <=

    Version 6.2.2
    S. Lehtola, C. Steigemann, M. J.T. Oliveira, and M. A.L. Marques.,  SoftwareX 7, 1â€“5 (2018) (10.1016/j.softx.2017.11.002)

   => Composite Functional: B3LYP <=

    B3LYP Hyb-GGA Exchange-Correlation Functional

    P. J. Stephens, F. J. Devlin, C. F. Chabalowski, and M. J. Frisch.,  J. Phys. Chem. 98, 11623 (1994) (10.1021/j100096a001)

    Deriv               =              1
    GGA                 =           TRUE
    Meta                =          FALSE

    Exchange Hybrid     =           TRUE
    MP2 Hybrid          =          FALSE

   => Exchange Functionals <=

    0.0800   Slater exchange
    0.7200         Becke 88

   => Exact (HF) Exchange <=

    0.2000               HF

   => Correlation Functionals <=

    0.1900   Vosko, Wilk & Nusair (VWN5_RPA)
    0.8100   Lee, Yang & Parr

   => LibXC Density Thresholds  <==

    XC_HYB_GGA_XC_B3LYP:  1.00E-15

   => Molecular Quadrature <=

    Radial Scheme          =       TREUTLER
    Pruning Scheme         =           NONE
    Nuclear Scheme         =       TREUTLER

    Blocking Scheme        =         OCTREE
    BS radius alpha        =              1
    Pruning alpha          =              1
    Radial Points          =             75
    Spherical Points       =            302
    Total Points           =          43055
    Total Blocks           =            388
    Max Points             =            256
    Max Functions          =             23
    Weights Tolerance      =       1.00E-15

  -Total Gradient:
     Atom            X                  Y                   Z
    ------   -----------------  -----------------  -----------------
       1        0.000000000000    -0.000000000000    -0.000005610169
       2        0.000000000000    -0.000000000000     0.000004373501

*** tstop() called on Joses-MacBook-Pro-2.local at Thu Jul 17 09:23:22 2025
Module time:
	user time   =       0.96 seconds =       0.02 minutes
	system time =       1.03 seconds =       0.02 minutes
	total time  =          0 seconds =       0.00 minutes
Total time:
	user time   =      74.17 seconds =       1.24 minutes
	system time =      67.30 seconds =       1.12 minutes
	total time  =         14 seconds =       0.23 minutes

    			-----------------------------------------

    			 OPTKING 3.0: for geometry optimizations

    			     By R.A. King, Bethel University

    			        with contributions from

    			    A.V. Copan, J. Cayton, A. Heide

    			-----------------------------------------

	                            ===> Fragment 1 <==

	 Z (Atomic Numbers)          Masses                          Geom
	       2.000000             4.002603          0.00000000  0.00000000  5.48655425
	      14.000000            27.976927          0.00000000  0.00000000 -0.78495041

	 - Coordinate -           - BOHR/RAD -       - ANG/DEG -
	 R(1,2)           =         6.271505           3.318737

	        --- Internal Coordinate Step in ANG or DEG, aJ/ANG or AJ/DEG ---
	-------------------------------------------------------------------------------
	           Coordinate      Previous         Force          Change          New
	           ----------      --------        ------          ------        ------
	               R(1,2)       3.31874        0.00004        0.00573       3.32447
	-------------------------------------------------------------------------------

	                                 ==> Convergence Check <==

	Measures of convergence in internal coordinates in au.

	Criteria marked as inactive (o), active & met (*), and active & unmet ( ).

	----------------------------------------------------------------------------------------------
	   Step    Total Energy     Delta E     Max Force     RMS Force      Max Disp      RMS Disp
	----------------------------------------------------------------------------------------------
	  Convergence Criteria     1.00e-06 *    3.00e-04 *             o    1.20e-03 *             o
	----------------------------------------------------------------------------------------------
	    16    -292.27939827   -2.34e-07 *    4.99e-06 *    4.99e-06 o    1.08e-02      1.08e-02 o  ~
	----------------------------------------------------------------------------------------------

Next Geometry in Ang
	Fragment 1 (Ang)

	   He   0.0000000000   0.0000000000   2.9062250190
	   Si   0.0000000000   0.0000000000  -0.4182434132

    Final optimized geometry and variables:
    Molecular point group: c2v
    Full point group: C_inf_v

    Geometry (in Angstrom), charge = -1, multiplicity = 2:

    HE           0.000000000000     0.000000000000     2.903359472981
    SI           0.000000000000     0.000000000000    -0.415377867189

    Psi4 stopped on: Thursday, 17 July 2025 09:23AM
    Psi4 wall time for execution: 0:00:14.36

*** Psi4 exiting successfully. Buy a developer a beer!
