                               Psi4 1.9.1 release

  ==> Input File <==

--------------------------------------------------------------------------
molecule {
-1 2
Be   0.00000        0.60000        0.00000
Mg   0.00000       -0.60000        0.00000
}

set {
basis              cc-pvdz
reference          uks
maxiter            500
geom_maxiter       500
DAMPING_PERCENTAGE 1
guess              SAP
}

optimize('b3lyp')
--------------------------------------------------------------------------

    Molecular point group: c2v
  Charge       = -1
  Multiplicity = 2
  Basis Set: CC-PVDZ
    Blend: CC-PVDZ
  Basis Set: (CC-PVDZ AUX)
    Blend: DEF2-UNIVERSAL-JKFIT
  @DF-UKS Final Energy:  -214.30346571560588
    Total Energy =                       -214.3034657156058813
 Dipole X            :          0.0000000            0.0000000            0.0000000
 Dipole Y            :          0.0000000            0.0000000            0.0000000
 Dipole Z            :         -0.0133821           -0.8388361           -0.8522182
 Magnitude           :                                                    0.8522182
    Molecular point group: c2v
  Basis Set: CC-PVDZ
    Blend: CC-PVDZ
  Basis Set: (CC-PVDZ AUX)
    Blend: DEF2-UNIVERSAL-JKFIT
  Basis Set: CC-PVDZ
    Blend: CC-PVDZ
  Basis Set: (CC-PVDZ AUX)
    Blend: DEF2-UNIVERSAL-JKFIT
  @DF-UKS Final Energy:  -214.37782157121976
    Total Energy =                       -214.3778215712197550
  Basis Set: CC-PVDZ
    Blend: CC-PVDZ
  Basis Set: (CC-PVDZ AUX)
    Blend: DEF2-UNIVERSAL-JKFIT
  Basis Set: CC-PVDZ
    Blend: CC-PVDZ
  @DF-UKS Final Energy:  -214.46610149396406
    Total Energy =                       -214.4661014939640609
  @DF-UKS Final Energy:  -214.61681645224502
    Total Energy =                       -214.6168164522450184
  @DF-UKS Final Energy:  -214.69031722064733
    Total Energy =                       -214.6903172206473300
  @DF-UKS Final Energy:  -214.70550536458629
    Total Energy =                       -214.7055053645862586
  @DF-UKS Final Energy:  -214.71684655403081
    Total Energy =                       -214.7168465540308091
  @DF-UKS Final Energy:  -214.71923243229335
    Total Energy =                       -214.7192324322933530
  @DF-UKS Final Energy:  -214.71955138859494
    Total Energy =                       -214.7195513885949367
  @DF-UKS Final Energy:  -214.76122441241162
    Total Energy =                       -214.7612244124116216
  @DF-UKS Final Energy:  -214.77009507644937
    Total Energy =                       -214.7700950764493655
  @DF-UKS Final Energy:  -214.77011922119061
    Total Energy =                       -214.7701192211906118
  @DF-UKS Final Energy:  -214.77029339596396
    Total Energy =                       -214.7702933959639608
  Basis Set: (CC-PVDZ AUX)
    Blend: DEF2-UNIVERSAL-JKFIT
  Basis Set: CC-PVDZ
    Blend: CC-PVDZ
  Basis Set: (CC-PVDZ AUX)
    Blend: DEF2-UNIVERSAL-JKFIT
  @DF-UKS Final Energy:  -214.77029898365333
    Total Energy =                       -214.7702989836533334
  Basis Set: CC-PVDZ
    Blend: CC-PVDZ
  Basis Set: (CC-PVDZ AUX)
    Blend: DEF2-UNIVERSAL-JKFIT
  Charge       = -1
  Multiplicity = 2
  Basis Set: CC-PVDZ
    Blend: CC-PVDZ
  Basis Set: (CC-PVDZ AUX)
    Blend: DEF2-UNIVERSAL-JKFIT

    Orbital Energies [Eh]
    ---------------------

    Alpha Occupied:

       1A1   -46.642424     2A1    -3.872816     3A1    -2.923611
       1B1    -1.667992     1B2    -1.666982     4A1    -1.666553
       5A1    -0.090926     6A1    -0.005661     2B2     0.052200

    Alpha Virtual:

       2B1     0.095683     7A1     0.101029     3B2     0.137651
       3B1     0.149067     8A1     0.182774     9A1     0.249033
       4B2     0.308071     4B1     0.312365    10A1     0.323812
       5B2     0.370059    11A1     0.373203     5B1     0.379873
      12A1     0.480052     6B2     0.480387     1A2     0.482793
      13A1     0.483942     6B1     0.485374    14A1     0.624536
       2A2     0.663170    15A1     0.666219     7B2     0.760685
       7B1     0.767216    16A1     0.933272

    Beta Occupied:

       1A1   -46.642104     2A1    -3.871127     3A1    -2.923172
       1B1    -1.667823     4A1    -1.666458     1B2    -1.665510
       5A1    -0.075697     6A1     0.001558

    Beta Virtual:

       2B1     0.098577     7A1     0.103260     2B2     0.110593
       3B1     0.150565     3B2     0.162123     8A1     0.187447
       9A1     0.252853     4B1     0.312346     4B2     0.320701
      10A1     0.326666    11A1     0.375326     5B1     0.379990
       5B2     0.391677     6B1     0.483981    12A1     0.487170
       1A2     0.493858    13A1     0.494463     6B2     0.494605
      14A1     0.628819     2A2     0.684799    15A1     0.685067
       7B1     0.766601     7B2     0.780355    16A1     0.937741

    Final Occupation by Irrep:
             A1    A2    B1    B2
    DOCC [     6,    0,    1,    1 ]
    SOCC [     0,    0,    0,    1 ]
    NA   [     6,    0,    1,    2 ]
    NB   [     6,    0,    1,    1 ]

  @DF-UKS Final Energy:  -214.77029921008818

   => Energetics <=

    Nuclear Repulsion Energy =              9.2866853764567683
    One-Electron Energy =                -319.9198832790107190
    Two-Electron Energy =                 111.5121948360286126
    DFT Exchange-Correlation Energy =     -15.6492961435628644
    Empirical Dispersion Energy =           0.0000000000000000
    VV10 Nonlocal Energy =                  0.0000000000000000
    Total Energy =                       -214.7702992100881829

  UHF NO Occupations:
  HONO-2 :    5 A1 1.9992237
  HONO-1 :    6 A1 1.9989716
  HONO-0 :    2 B2 1.0000000
  LUNO+0 :    7 A1 0.0010284
  LUNO+1 :    8 A1 0.0007763
  LUNO+2 :    9 A1 0.0000000
  LUNO+3 :    3 B2 0.0000000

Computation Completed

Properties will be evaluated at   0.000000,   0.000000,   0.000000 [a0]

Properties computed using the SCF density matrix

 Multipole Moments:

 ------------------------------------------------------------------------------------
     Multipole            Electronic (a.u.)      Nuclear  (a.u.)        Total (a.u.)
 ------------------------------------------------------------------------------------

 L = 1.  Multiply by 2.5417464519 to convert [e a0] to [Debye]
 Dipole X            :          0.0000000            0.0000000            0.0000000
 Dipole Y            :          0.0000000            0.0000000            0.0000000
 Dipole Z            :          1.0727765           -1.9119544           -0.8391779
 Magnitude           :                                                    0.8391779

 ------------------------------------------------------------------------------------

*** tstop() called on Joses-MacBook-Pro-2.local at Thu Jul 17 09:43:13 2025
Module time:
	user time   =       3.69 seconds =       0.06 minutes
	system time =       3.41 seconds =       0.06 minutes
	total time  =          1 seconds =       0.02 minutes
Total time:
	user time   =      91.56 seconds =       1.53 minutes
	system time =      85.74 seconds =       1.43 minutes
	total time  =         17 seconds =       0.28 minutes

*** tstart() called on Joses-MacBook-Pro-2.local
*** at Thu Jul 17 09:43:13 2025

         ------------------------------------------------------------
                                   SCF GRAD
                          Rob Parrish, Justin Turney,
                       Andy Simmonett, and Alex Sokolov
         ------------------------------------------------------------

  ==> Geometry <==

    Molecular point group: c2v
    Full point group: C_inf_v

    Geometry (in Angstrom), charge = -1, multiplicity = 2:

       Center              X                  Y                   Z               Mass
    ------------   -----------------  -----------------  -----------------  -----------------
         BE           0.000000000000     0.000000000000     1.988129642695     9.012183065000
         MG           0.000000000000     0.000000000000    -0.747023437494    23.985041697000

  Nuclear repulsion =    9.286685376456768

  ==> Basis Set <==

  Basis Set: CC-PVDZ
    Blend: CC-PVDZ
    Number of shells: 14
    Number of basis functions: 32
    Number of Cartesian functions: 34
    Spherical Harmonics?: true
    Max angular momentum: 2

  ==> DFJKGrad: Density-Fitted SCF Gradients <==

    Gradient:                    1
    J tasked:                  Yes
    K tasked:                  Yes
    wK tasked:                  No
    OpenMP threads:              1
    Integrals threads:           1
    Memory [MiB]:              375
    Schwarz Cutoff:          1E-12
    Fitting Condition:       1E-10

   => Auxiliary Basis Set <=

  Basis Set: (CC-PVDZ AUX)
    Blend: DEF2-UNIVERSAL-JKFIT
    Number of shells: 51
    Number of basis functions: 163
    Number of Cartesian functions: 197
    Spherical Harmonics?: true
    Max angular momentum: 4

  ==> DFT Potential <==

   => LibXC <=

    Version 6.2.2
    S. Lehtola, C. Steigemann, M. J.T. Oliveira, and M. A.L. Marques.,  SoftwareX 7, 1â€“5 (2018) (10.1016/j.softx.2017.11.002)

   => Composite Functional: B3LYP <=

    B3LYP Hyb-GGA Exchange-Correlation Functional

    P. J. Stephens, F. J. Devlin, C. F. Chabalowski, and M. J. Frisch.,  J. Phys. Chem. 98, 11623 (1994) (10.1021/j100096a001)

    Deriv               =              1
    GGA                 =           TRUE
    Meta                =          FALSE

    Exchange Hybrid     =           TRUE
    MP2 Hybrid          =          FALSE

   => Exchange Functionals <=

    0.0800   Slater exchange
    0.7200         Becke 88

   => Exact (HF) Exchange <=

    0.2000               HF

   => Correlation Functionals <=

    0.1900   Vosko, Wilk & Nusair (VWN5_RPA)
    0.8100   Lee, Yang & Parr

   => LibXC Density Thresholds  <==

    XC_HYB_GGA_XC_B3LYP:  1.00E-15

   => Molecular Quadrature <=

    Radial Scheme          =       TREUTLER
    Pruning Scheme         =           NONE
    Nuclear Scheme         =       TREUTLER

    Blocking Scheme        =         OCTREE
    BS radius alpha        =              1
    Pruning alpha          =              1
    Radial Points          =             75
    Spherical Points       =            302
    Total Points           =          42990
    Total Blocks           =            422
    Max Points             =            254
    Max Functions          =             32
    Weights Tolerance      =       1.00E-15

  -Total Gradient:
     Atom            X                  Y                   Z
    ------   -----------------  -----------------  -----------------
       1        0.000000000000     0.000000000000    -0.000018063743
       2       -0.000000000000     0.000000000000     0.000012839749

*** tstop() called on Joses-MacBook-Pro-2.local at Thu Jul 17 09:43:13 2025
Module time:
	user time   =       0.84 seconds =       0.01 minutes
	system time =       1.93 seconds =       0.03 minutes
	total time  =          0 seconds =       0.00 minutes
Total time:
	user time   =      92.40 seconds =       1.54 minutes
	system time =      87.67 seconds =       1.46 minutes
	total time  =         17 seconds =       0.28 minutes

    			-----------------------------------------

    			 OPTKING 3.0: for geometry optimizations

    			     By R.A. King, Bethel University

    			        with contributions from

    			    A.V. Copan, J. Cayton, A. Heide

    			-----------------------------------------

	                            ===> Fragment 1 <==

	 Z (Atomic Numbers)          Masses                          Geom
	       4.000000             9.012183          0.00000000  0.00000000  3.75702053
	      12.000000            23.985042          0.00000000  0.00000000 -1.41166971

	 - Coordinate -           - BOHR/RAD -       - ANG/DEG -
	 R(1,2)           =         5.168690           2.735153

	        --- Internal Coordinate Step in ANG or DEG, aJ/ANG or AJ/DEG ---
	-------------------------------------------------------------------------------
	           Coordinate      Previous         Force          Change          New
	           ----------      --------        ------          ------        ------
	               R(1,2)       2.73515        0.00013        0.00065       2.73580
	-------------------------------------------------------------------------------

	                                 ==> Convergence Check <==

	Measures of convergence in internal coordinates in au.

	Criteria marked as inactive (o), active & met (*), and active & unmet ( ).

	----------------------------------------------------------------------------------------------
	   Step    Total Energy     Delta E     Max Force     RMS Force      Max Disp      RMS Disp
	----------------------------------------------------------------------------------------------
	  Convergence Criteria     1.00e-06 *    3.00e-04 *             o    1.20e-03 *             o
	----------------------------------------------------------------------------------------------
	    15    -214.77029921   -2.26e-07 *    1.55e-05 *    1.55e-05 o    1.23e-03      1.23e-03 o  ~
	----------------------------------------------------------------------------------------------

Next Geometry in Ang
	Fragment 1 (Ang)

	   Be   0.0000000000   0.0000000000   1.9884550818
	   Mg   0.0000000000   0.0000000000  -0.7473488766

    Final optimized geometry and variables:
    Molecular point group: c2v
    Full point group: C_inf_v

    Geometry (in Angstrom), charge = -1, multiplicity = 2:

    BE           0.000000000000     0.000000000000     1.988129642695
    MG           0.000000000000     0.000000000000    -0.747023437494

    Psi4 stopped on: Thursday, 17 July 2025 09:43AM
    Psi4 wall time for execution: 0:00:18.19

*** Psi4 exiting successfully. Buy a developer a beer!
