                               Psi4 1.9.1 release

  ==> Input File <==

--------------------------------------------------------------------------
molecule {
-1 2
Na   0.00000        0.60000        0.00000
Al   0.00000       -0.60000        0.00000
}

set {
basis              cc-pvdz
reference          uks
maxiter            500
geom_maxiter       500
DAMPING_PERCENTAGE 1
guess              SAP
}

optimize('b3lyp')
--------------------------------------------------------------------------

    Molecular point group: c2v
  Charge       = -1
  Multiplicity = 2
  Basis Set: CC-PVDZ
    Blend: CC-PVDZ
  Basis Set: (CC-PVDZ AUX)
    Blend: CC-PVDZ-JKFIT + DEF2-UNIVERSAL-JKFIT
  @DF-UKS Final Energy:  -404.00119517284855
    Total Energy =                       -404.0011951728485542
 Dipole X            :          0.0000000            0.0000000            0.0000000
 Dipole Y            :          0.0000000            0.0000000            0.0000000
 Dipole Z            :          1.0538035           -0.0939390            0.9598645
 Magnitude           :                                                    0.9598645
    Molecular point group: c2v
  Basis Set: CC-PVDZ
    Blend: CC-PVDZ
  Basis Set: (CC-PVDZ AUX)
    Blend: CC-PVDZ-JKFIT + DEF2-UNIVERSAL-JKFIT
  Basis Set: CC-PVDZ
    Blend: CC-PVDZ
  Basis Set: (CC-PVDZ AUX)
    Blend: CC-PVDZ-JKFIT + DEF2-UNIVERSAL-JKFIT
  @DF-UKS Final Energy:  -404.00807927303123
    Total Energy =                       -404.0080792730312282
  Basis Set: CC-PVDZ
    Blend: CC-PVDZ
  Basis Set: (CC-PVDZ AUX)
    Blend: CC-PVDZ-JKFIT + DEF2-UNIVERSAL-JKFIT
  Basis Set: CC-PVDZ
    Blend: CC-PVDZ
  @DF-UKS Final Energy:  -404.02140191289476
    Total Energy =                       -404.0214019128947029
  @DF-UKS Final Energy:  -404.07009718505805
    Total Energy =                       -404.0700971850580459
  @DF-UKS Final Energy:  -404.30030752808057
    Total Energy =                       -404.3003075280805660
  @DF-UKS Final Energy:  -404.43515429829046
    Total Energy =                       -404.4351542982903993
  @DF-UKS Final Energy:  -404.53476224783418
    Total Energy =                       -404.5347622478341805
  @DF-UKS Final Energy:  -404.59780787066859
    Total Energy =                       -404.5978078706686460
  @DF-UKS Final Energy:  -404.66794502556036
    Total Energy =                       -404.6679450255603570
  @DF-UKS Final Energy:  -404.69187229813002
    Total Energy =                       -404.6918722981299652
  @DF-UKS Final Energy:  -404.69345659460731
    Total Energy =                       -404.6934565946073121
  @DF-UKS Final Energy:  -404.70060531887253
    Total Energy =                       -404.7006053188725332
  @DF-UKS Final Energy:  -404.70235111135787
    Total Energy =                       -404.7023511113578706
  @DF-UKS Final Energy:  -404.70290922355633
    Total Energy =                       -404.7029092235563326
  @DF-UKS Final Energy:  -404.70297749238239
    Total Energy =                       -404.7029774923823879
  @DF-UKS Final Energy:  -404.70298629195042
    Total Energy =                       -404.7029862919504239
  Basis Set: (CC-PVDZ AUX)
    Blend: CC-PVDZ-JKFIT + DEF2-UNIVERSAL-JKFIT
  Basis Set: CC-PVDZ
    Blend: CC-PVDZ
  Basis Set: (CC-PVDZ AUX)
    Blend: CC-PVDZ-JKFIT + DEF2-UNIVERSAL-JKFIT
  @DF-UKS Final Energy:  -404.70298756372063
    Total Energy =                       -404.7029875637206260
  Basis Set: CC-PVDZ
    Blend: CC-PVDZ
  Basis Set: (CC-PVDZ AUX)
    Blend: CC-PVDZ-JKFIT + DEF2-UNIVERSAL-JKFIT
  Charge       = -1
  Multiplicity = 2
  Basis Set: CC-PVDZ
    Blend: CC-PVDZ
  Basis Set: (CC-PVDZ AUX)
    Blend: CC-PVDZ-JKFIT + DEF2-UNIVERSAL-JKFIT

    Orbital Energies [Eh]
    ---------------------

    Alpha Occupied:

       1A1   -55.876980     2A1   -38.340653     3A1    -3.957412
       4A1    -2.510922     1B1    -2.509800     1B2    -2.509800
       5A1    -2.084869     6A1    -1.016753     2B2    -1.016615
       2B1    -1.016615     7A1    -0.151062     3B1     0.030725
       3B2     0.030725

    Alpha Virtual:

       8A1     0.048187     9A1     0.090932     4B2     0.108318
       4B1     0.108318    10A1     0.121106    11A1     0.177766
       5B2     0.203688     5B1     0.203688    12A1     0.262508
       1A2     0.300943    13A1     0.300943    14A1     0.314252
       6B2     0.316451     6B1     0.316451     7B2     0.390233
       7B1     0.390233    15A1     0.408892     2A2     0.440588
      16A1     0.440590    17A1     0.497519     8B2     0.535102
       8B1     0.535102    18A1     0.686312

    Beta Occupied:

       1A1   -55.875014     2A1   -38.341644     3A1    -3.955094
       4A1    -2.510759     1B1    -2.504697     1B2    -2.504697
       5A1    -2.086888     6A1    -1.018233     2B2    -1.017715
       2B1    -1.017715     7A1    -0.120546     8A1     0.003572

    Beta Virtual:

       9A1     0.078469     3B2     0.084296     3B1     0.084296
      10A1     0.125073     4B1     0.127281     4B2     0.127281
      11A1     0.162599     5B2     0.192992     5B1     0.192992
      12A1     0.249298     1A2     0.294803    13A1     0.294803
      14A1     0.303196     6B2     0.308420     6B1     0.308420
       7B2     0.416335     7B1     0.416335    15A1     0.423328
       2A2     0.485743    16A1     0.485743    17A1     0.495491
       8B2     0.545908     8B1     0.545908    18A1     0.687409

    Final Occupation by Irrep:
             A1    A2    B1    B2
Warning! Irrep has more beta than alpha electrons in symmetry 0 orbitals.
Warning! Irrep has more beta than alpha electrons in symmetry 0 orbitals.
    DOCC [     7,    0,    2,    2 ]
    SOCC [     1,    0,    1,    1 ]
    NA   [     7,    0,    3,    3 ]
    NB   [     8,    0,    2,    2 ]

  @DF-UKS Final Energy:  -404.70298761280412

   => Energetics <=

    Nuclear Repulsion Energy =             25.4959643184027946
    One-Electron Energy =                -619.4299598593513565
    Two-Electron Energy =                 215.9624274514144702
    DFT Exchange-Correlation Energy =     -26.7314195232700236
    Empirical Dispersion Energy =           0.0000000000000000
    VV10 Nonlocal Energy =                  0.0000000000000000
    Total Energy =                       -404.7029876128041224

  UHF NO Occupations:
  HONO-2 :    7 A1 1.9959012
  HONO-1 :    8 A1 1.0000000
  HONO-0 :    3 B2 1.0000000
  LUNO+0 :    3 B1 1.0000000
  LUNO+1 :    9 A1 0.0040988
  LUNO+2 :   10 A1 0.0000014
  LUNO+3 :    4 B1 0.0000008

Computation Completed

Properties will be evaluated at   0.000000,   0.000000,   0.000000 [a0]

Properties computed using the SCF density matrix

 Multipole Moments:

 ------------------------------------------------------------------------------------
     Multipole            Electronic (a.u.)      Nuclear  (a.u.)        Total (a.u.)
 ------------------------------------------------------------------------------------

 L = 1.  Multiply by 2.5417464519 to convert [e a0] to [Debye]
 Dipole X            :          0.0000000            0.0000000            0.0000000
 Dipole Y            :          0.0000000            0.0000000            0.0000000
 Dipole Z            :          0.1995080           -0.2323434           -0.0328354
 Magnitude           :                                                    0.0328354

 ------------------------------------------------------------------------------------
Warning! Irrep has more beta than alpha electrons in symmetry 0 orbitals.
Warning! Irrep has more beta than alpha electrons in symmetry 0 orbitals.

*** tstop() called on Joses-MacBook-Pro-2.local at Thu Jul 17 11:09:24 2025
Module time:
	user time   =       8.73 seconds =       0.15 minutes
	system time =       2.79 seconds =       0.05 minutes
	total time  =          1 seconds =       0.02 minutes
Total time:
	user time   =     245.66 seconds =       4.09 minutes
	system time =      78.56 seconds =       1.31 minutes
	total time  =         31 seconds =       0.52 minutes

*** tstart() called on Joses-MacBook-Pro-2.local
*** at Thu Jul 17 11:09:24 2025

         ------------------------------------------------------------
                                   SCF GRAD
                          Rob Parrish, Justin Turney,
                       Andy Simmonett, and Alex Sokolov
         ------------------------------------------------------------

  ==> Geometry <==

    Molecular point group: c2v
    Full point group: C_inf_v

    Geometry (in Angstrom), charge = -1, multiplicity = 2:

       Center              X                  Y                   Z               Mass
    ------------   -----------------  -----------------  -----------------  -----------------
         NA           0.000000000000     0.000000000000     1.602550493094    22.989769282000
         AL           0.000000000000     0.000000000000    -1.365462019819    26.981538530000

  Nuclear repulsion =   25.495964318402798

  ==> Basis Set <==

  Basis Set: CC-PVDZ
    Blend: CC-PVDZ
    Number of shells: 16
    Number of basis functions: 36
    Number of Cartesian functions: 38
    Spherical Harmonics?: true
    Max angular momentum: 2

  ==> DFJKGrad: Density-Fitted SCF Gradients <==

    Gradient:                    1
    J tasked:                  Yes
    K tasked:                  Yes
    wK tasked:                  No
    OpenMP threads:              1
    Integrals threads:           1
    Memory [MiB]:              375
    Schwarz Cutoff:          1E-12
    Fitting Condition:       1E-10

   => Auxiliary Basis Set <=

  Basis Set: (CC-PVDZ AUX)
    Blend: CC-PVDZ-JKFIT + DEF2-UNIVERSAL-JKFIT
    Number of shells: 70
    Number of basis functions: 224
    Number of Cartesian functions: 267
    Spherical Harmonics?: true
    Max angular momentum: 4

  ==> DFT Potential <==

   => LibXC <=

    Version 6.2.2
    S. Lehtola, C. Steigemann, M. J.T. Oliveira, and M. A.L. Marques.,  SoftwareX 7, 1â€“5 (2018) (10.1016/j.softx.2017.11.002)

   => Composite Functional: B3LYP <=

    B3LYP Hyb-GGA Exchange-Correlation Functional

    P. J. Stephens, F. J. Devlin, C. F. Chabalowski, and M. J. Frisch.,  J. Phys. Chem. 98, 11623 (1994) (10.1021/j100096a001)

    Deriv               =              1
    GGA                 =           TRUE
    Meta                =          FALSE

    Exchange Hybrid     =           TRUE
    MP2 Hybrid          =          FALSE

   => Exchange Functionals <=

    0.0800   Slater exchange
    0.7200         Becke 88

   => Exact (HF) Exchange <=

    0.2000               HF

   => Correlation Functionals <=

    0.1900   Vosko, Wilk & Nusair (VWN5_RPA)
    0.8100   Lee, Yang & Parr

   => LibXC Density Thresholds  <==

    XC_HYB_GGA_XC_B3LYP:  1.00E-15

   => Molecular Quadrature <=

    Radial Scheme          =       TREUTLER
    Pruning Scheme         =           NONE
    Nuclear Scheme         =       TREUTLER

    Blocking Scheme        =         OCTREE
    BS radius alpha        =              1
    Pruning alpha          =              1
    Radial Points          =             75
    Spherical Points       =            302
    Total Points           =          43871
    Total Blocks           =            455
    Max Points             =            256
    Max Functions          =             36
    Weights Tolerance      =       1.00E-15

  -Total Gradient:
     Atom            X                  Y                   Z
    ------   -----------------  -----------------  -----------------
       1        0.000000000000    -0.000000000000    -0.000001380355
       2        0.000000000000     0.000000000000     0.000017802343

*** tstop() called on Joses-MacBook-Pro-2.local at Thu Jul 17 11:09:25 2025
Module time:
	user time   =       2.26 seconds =       0.04 minutes
	system time =       1.76 seconds =       0.03 minutes
	total time  =          1 seconds =       0.02 minutes
Total time:
	user time   =     247.92 seconds =       4.13 minutes
	system time =      80.32 seconds =       1.34 minutes
	total time  =         32 seconds =       0.53 minutes

    			-----------------------------------------

    			 OPTKING 3.0: for geometry optimizations

    			     By R.A. King, Bethel University

    			        with contributions from

    			    A.V. Copan, J. Cayton, A. Heide

    			-----------------------------------------

	                            ===> Fragment 1 <==

	 Z (Atomic Numbers)          Masses                          Geom
	      11.000000            22.989769          0.00000000  0.00000000  3.02838153
	      13.000000            26.981539          0.00000000  0.00000000 -2.58034925

	 - Coordinate -           - BOHR/RAD -       - ANG/DEG -
	 R(1,2)           =         5.608731           2.968013

	        --- Internal Coordinate Step in ANG or DEG, aJ/ANG or AJ/DEG ---
	-------------------------------------------------------------------------------
	           Coordinate      Previous         Force          Change          New
	           ----------      --------        ------          ------        ------
	               R(1,2)       2.96801        0.00008        0.00033       2.96834
	-------------------------------------------------------------------------------

	                                 ==> Convergence Check <==

	Measures of convergence in internal coordinates in au.

	Criteria marked as inactive (o), active & met (*), and active & unmet ( ).

	----------------------------------------------------------------------------------------------
	   Step    Total Energy     Delta E     Max Force     RMS Force      Max Disp      RMS Disp
	----------------------------------------------------------------------------------------------
	  Convergence Criteria     1.00e-06 *    3.00e-04 *             o    1.20e-03 *             o
	----------------------------------------------------------------------------------------------
	    18    -404.70298761   -4.91e-08 *    9.59e-06 *    9.59e-06 o    6.18e-04 *    6.18e-04 o  ~
	----------------------------------------------------------------------------------------------

Next Geometry in Ang
	Fragment 1 (Ang)

	   Na   0.0000000000   0.0000000000   1.6027140929
	   Al   0.0000000000   0.0000000000  -1.3656256196

    Final optimized geometry and variables:
    Molecular point group: c2v
    Full point group: C_inf_v

    Geometry (in Angstrom), charge = -1, multiplicity = 2:

    NA           0.000000000000     0.000000000000     1.602550493094
    AL           0.000000000000     0.000000000000    -1.365462019819

    Psi4 stopped on: Thursday, 17 July 2025 11:09AM
    Psi4 wall time for execution: 0:00:32.74

*** Psi4 exiting successfully. Buy a developer a beer!
