                               Psi4 1.9.1 release

  ==> Input File <==

--------------------------------------------------------------------------
molecule {
-1 2
Si   0.00000        0.60000        0.00000
S   0.00000       -0.60000        0.00000
}

set {
basis              cc-pvdz
reference          uks
maxiter            500
geom_maxiter       500
DAMPING_PERCENTAGE 1
guess              SAP
}

optimize('b3lyp')
--------------------------------------------------------------------------

    Molecular point group: c2v
  Charge       = -1
  Multiplicity = 2
  Basis Set: CC-PVDZ
    Blend: CC-PVDZ
  Basis Set: (CC-PVDZ AUX)
    Blend: CC-PVDZ-JKFIT
  @DF-UKS Final Energy:  -686.48976918026176
    Total Energy =                       -686.4897691802616464
 Dipole X            :          0.0000000            0.0000000            0.0000000
 Dipole Y            :          0.0000000            0.0000000            0.0000000
 Dipole Z            :         -1.3897199           -0.0008257           -1.3905456
 Magnitude           :                                                    1.3905456
    Molecular point group: c2v
  Basis Set: CC-PVDZ
    Blend: CC-PVDZ
  Basis Set: (CC-PVDZ AUX)
    Blend: CC-PVDZ-JKFIT
  Basis Set: CC-PVDZ
    Blend: CC-PVDZ
  Basis Set: (CC-PVDZ AUX)
    Blend: CC-PVDZ-JKFIT
  @DF-UKS Final Energy:  -686.52514433044394
    Total Energy =                       -686.5251443304440500
  Basis Set: CC-PVDZ
    Blend: CC-PVDZ
  Basis Set: (CC-PVDZ AUX)
    Blend: CC-PVDZ-JKFIT
  Basis Set: CC-PVDZ
    Blend: CC-PVDZ
  @DF-UKS Final Energy:  -686.59177530057138
    Total Energy =                       -686.5917753005713848
  @DF-UKS Final Energy:  -686.81681145803589
    Total Energy =                       -686.8168114580358861
  @DF-UKS Final Energy:  -687.39401426663846
    Total Energy =                       -687.3940142666384645
  @DF-UKS Final Energy:  -687.57993425345080
    Total Energy =                       -687.5799342534509151
  @DF-UKS Final Energy:  -687.68201074307740
    Total Energy =                       -687.6820107430773987
  @DF-UKS Final Energy:  -687.72188645358119
    Total Energy =                       -687.7218864535811917
  @DF-UKS Final Energy:  -687.73526526789328
    Total Energy =                       -687.7352652678932827
  @DF-UKS Final Energy:  -687.73784983912128
    Total Energy =                       -687.7378498391212815
  @DF-UKS Final Energy:  -687.73853125336336
    Total Energy =                       -687.7385312533633623
  @DF-UKS Final Energy:  -687.73860607777840
    Total Energy =                       -687.7386060777783996
  Basis Set: (CC-PVDZ AUX)
    Blend: CC-PVDZ-JKFIT
  Basis Set: CC-PVDZ
    Blend: CC-PVDZ
  Basis Set: (CC-PVDZ AUX)
    Blend: CC-PVDZ-JKFIT
  @DF-UKS Final Energy:  -687.73861481279823
    Total Energy =                       -687.7386148127983461
  Basis Set: CC-PVDZ
    Blend: CC-PVDZ
  Basis Set: (CC-PVDZ AUX)
    Blend: CC-PVDZ-JKFIT
  Charge       = -1
  Multiplicity = 2
  Basis Set: CC-PVDZ
    Blend: CC-PVDZ
  Basis Set: (CC-PVDZ AUX)
    Blend: CC-PVDZ-JKFIT

    Orbital Energies [Eh]
    ---------------------

    Alpha Occupied:

       1A1   -88.613453     2A1   -65.915480     3A1    -7.675276
       1B2    -5.636052     4A1    -5.636045     1B1    -5.634016
       5A1    -5.058568     2B2    -3.419512     2B1    -3.416878
       6A1    -3.414329     7A1    -0.447192     8A1    -0.202264
       3B1    -0.046845     9A1    -0.046198     3B2    -0.042018
       4B1     0.076829

    Alpha Virtual:

       4B2     0.130486    10A1     0.251272    11A1     0.440931
      12A1     0.505107     5B1     0.506126     5B2     0.508359
       1A2     0.575211    13A1     0.577730     6B1     0.581495
       6B2     0.585561    14A1     0.614125     7B2     0.747471
       7B1     0.749730    15A1     0.868567     2A2     0.869413
      16A1     0.870215    17A1     0.942879     8B2     1.022860
       8B1     1.023450    18A1     1.356481

    Beta Occupied:

       1A1   -88.612451     2A1   -65.913324     3A1    -7.674263
       1B2    -5.635706     4A1    -5.635533     1B1    -5.630366
       5A1    -5.056138     2B2    -3.418133     6A1    -3.413094
       2B1    -3.408998     7A1    -0.440584     8A1    -0.182305
       3B2    -0.039972     9A1    -0.035627     3B1    -0.024461

    Beta Virtual:

       4B2     0.138112     4B1     0.163068    10A1     0.259268
      11A1     0.449584    12A1     0.510172     5B2     0.512411
       5B1     0.531434     6B2     0.588044    13A1     0.604676
       1A2     0.607908     6B1     0.609784    14A1     0.623737
       7B2     0.748077     7B1     0.758990    15A1     0.874051
       2A2     0.880147    16A1     0.881033    17A1     0.949002
       8B2     1.024294     8B1     1.039845    18A1     1.361533

    Final Occupation by Irrep:
             A1    A2    B1    B2
    DOCC [     9,    0,    3,    3 ]
    SOCC [     0,    0,    1,    0 ]
    NA   [     9,    0,    4,    3 ]
    NB   [     9,    0,    3,    3 ]

  @DF-UKS Final Energy:  -687.73861595656149

   => Energetics <=

    Nuclear Repulsion Energy =             57.2306008361517797
    One-Electron Energy =               -1072.8531017786922348
    Two-Electron Energy =                 365.5881984556918951
    DFT Exchange-Correlation Energy =     -37.7043134697128721
    Empirical Dispersion Energy =           0.0000000000000000
    VV10 Nonlocal Energy =                  0.0000000000000000
    Total Energy =                       -687.7386159565614889

  UHF NO Occupations:
  HONO-2 :    3 B1 1.9997038
  HONO-1 :    9 A1 1.9988453
  HONO-0 :    4 B1 1.0000000
  LUNO+0 :   10 A1 0.0011547
  LUNO+1 :    5 B1 0.0002962
  LUNO+2 :    4 B2 0.0002330
  LUNO+3 :   11 A1 0.0000501

Computation Completed

Properties will be evaluated at   0.000000,   0.000000,   0.000000 [a0]

Properties computed using the SCF density matrix

 Multipole Moments:

 ------------------------------------------------------------------------------------
     Multipole            Electronic (a.u.)      Nuclear  (a.u.)        Total (a.u.)
 ------------------------------------------------------------------------------------

 L = 1.  Multiply by 2.5417464519 to convert [e a0] to [Debye]
 Dipole X            :          0.0000000            0.0000000            0.0000000
 Dipole Y            :          0.0000000            0.0000000            0.0000000
 Dipole Z            :         -0.1512074           -0.0014251           -0.1526325
 Magnitude           :                                                    0.1526325

 ------------------------------------------------------------------------------------

*** tstop() called on Joses-MacBook-Pro-2.local at Thu Jul 17 11:49:32 2025
Module time:
	user time   =       8.67 seconds =       0.14 minutes
	system time =       1.56 seconds =       0.03 minutes
	total time  =          1 seconds =       0.02 minutes
Total time:
	user time   =     177.89 seconds =       2.96 minutes
	system time =      37.10 seconds =       0.62 minutes
	total time  =         20 seconds =       0.33 minutes

*** tstart() called on Joses-MacBook-Pro-2.local
*** at Thu Jul 17 11:49:32 2025

         ------------------------------------------------------------
                                   SCF GRAD
                          Rob Parrish, Justin Turney,
                       Andy Simmonett, and Alex Sokolov
         ------------------------------------------------------------

  ==> Geometry <==

    Molecular point group: c2v
    Full point group: C_inf_v

    Geometry (in Angstrom), charge = -1, multiplicity = 2:

       Center              X                  Y                   Z               Mass
    ------------   -----------------  -----------------  -----------------  -----------------
         SI           0.000000000000     0.000000000000     1.104611830697    27.976926534650
         S            0.000000000000     0.000000000000    -0.966582485949    31.972071174400

  Nuclear repulsion =   57.230600836151787

  ==> Basis Set <==

  Basis Set: CC-PVDZ
    Blend: CC-PVDZ
    Number of shells: 16
    Number of basis functions: 36
    Number of Cartesian functions: 38
    Spherical Harmonics?: true
    Max angular momentum: 2

  ==> DFJKGrad: Density-Fitted SCF Gradients <==

    Gradient:                    1
    J tasked:                  Yes
    K tasked:                  Yes
    wK tasked:                  No
    OpenMP threads:              1
    Integrals threads:           1
    Memory [MiB]:              375
    Schwarz Cutoff:          1E-12
    Fitting Condition:       1E-10

   => Auxiliary Basis Set <=

  Basis Set: (CC-PVDZ AUX)
    Blend: CC-PVDZ-JKFIT
    Number of shells: 72
    Number of basis functions: 224
    Number of Cartesian functions: 260
    Spherical Harmonics?: true
    Max angular momentum: 3

  ==> DFT Potential <==

   => LibXC <=

    Version 6.2.2
    S. Lehtola, C. Steigemann, M. J.T. Oliveira, and M. A.L. Marques.,  SoftwareX 7, 1â€“5 (2018) (10.1016/j.softx.2017.11.002)

   => Composite Functional: B3LYP <=

    B3LYP Hyb-GGA Exchange-Correlation Functional

    P. J. Stephens, F. J. Devlin, C. F. Chabalowski, and M. J. Frisch.,  J. Phys. Chem. 98, 11623 (1994) (10.1021/j100096a001)

    Deriv               =              1
    GGA                 =           TRUE
    Meta                =          FALSE

    Exchange Hybrid     =           TRUE
    MP2 Hybrid          =          FALSE

   => Exchange Functionals <=

    0.0800   Slater exchange
    0.7200         Becke 88

   => Exact (HF) Exchange <=

    0.2000               HF

   => Correlation Functionals <=

    0.1900   Vosko, Wilk & Nusair (VWN5_RPA)
    0.8100   Lee, Yang & Parr

   => LibXC Density Thresholds  <==

    XC_HYB_GGA_XC_B3LYP:  1.00E-15

   => Molecular Quadrature <=

    Radial Scheme          =       TREUTLER
    Pruning Scheme         =           NONE
    Nuclear Scheme         =       TREUTLER

    Blocking Scheme        =         OCTREE
    BS radius alpha        =              1
    Pruning alpha          =              1
    Radial Points          =             75
    Spherical Points       =            302
    Total Points           =          41596
    Total Blocks           =            383
    Max Points             =            256
    Max Functions          =             36
    Weights Tolerance      =       1.00E-15

  -Total Gradient:
     Atom            X                  Y                   Z
    ------   -----------------  -----------------  -----------------
       1       -0.000000000000     0.000000000000    -0.000118376222
       2        0.000000000000     0.000000000000     0.000136004546

*** tstop() called on Joses-MacBook-Pro-2.local at Thu Jul 17 11:49:33 2025
Module time:
	user time   =       2.96 seconds =       0.05 minutes
	system time =       0.79 seconds =       0.01 minutes
	total time  =          1 seconds =       0.02 minutes
Total time:
	user time   =     180.85 seconds =       3.01 minutes
	system time =      37.89 seconds =       0.63 minutes
	total time  =         21 seconds =       0.35 minutes

    			-----------------------------------------

    			 OPTKING 3.0: for geometry optimizations

    			     By R.A. King, Bethel University

    			        with contributions from

    			    A.V. Copan, J. Cayton, A. Heide

    			-----------------------------------------

	                            ===> Fragment 1 <==

	 Z (Atomic Numbers)          Masses                          Geom
	      14.000000            27.976927          0.00000000  0.00000000  2.08741383
	      16.000000            31.972071          0.00000000  0.00000000 -1.82657618

	 - Coordinate -           - BOHR/RAD -       - ANG/DEG -
	 R(1,2)           =         3.913990           2.071194

	        --- Internal Coordinate Step in ANG or DEG, aJ/ANG or AJ/DEG ---
	-------------------------------------------------------------------------------
	           Coordinate      Previous         Force          Change          New
	           ----------      --------        ------          ------        ------
	               R(1,2)       2.07119        0.00105        0.00030       2.07150
	-------------------------------------------------------------------------------

	                                 ==> Convergence Check <==

	Measures of convergence in internal coordinates in au.

	Criteria marked as inactive (o), active & met (*), and active & unmet ( ).

	----------------------------------------------------------------------------------------------
	   Step    Total Energy     Delta E     Max Force     RMS Force      Max Disp      RMS Disp
	----------------------------------------------------------------------------------------------
	  Convergence Criteria     1.00e-06 *    3.00e-04 *             o    1.20e-03 *             o
	----------------------------------------------------------------------------------------------
	    14    -687.73861596   -1.14e-06      1.27e-04 *    1.27e-04 o    5.76e-04 *    5.76e-04 o  ~
	----------------------------------------------------------------------------------------------

Next Geometry in Ang
	Fragment 1 (Ang)

	   Si   0.0000000000   0.0000000000   1.1047641103
	    S   0.0000000000   0.0000000000  -0.9667347655

    Final optimized geometry and variables:
    Molecular point group: c2v
    Full point group: C_inf_v

    Geometry (in Angstrom), charge = -1, multiplicity = 2:

    SI           0.000000000000     0.000000000000     1.104611830697
    S            0.000000000000     0.000000000000    -0.966582485949

    Psi4 stopped on: Thursday, 17 July 2025 11:49AM
    Psi4 wall time for execution: 0:00:21.26

*** Psi4 exiting successfully. Buy a developer a beer!
