                               Psi4 1.9.1 release

  ==> Input File <==

--------------------------------------------------------------------------
molecule {
-1 2
He   0.00000        0.60000        0.00000
Mg   0.00000       -0.60000        0.00000
}

set {
basis              cc-pvdz
reference          uks
maxiter            500
geom_maxiter       500
DAMPING_PERCENTAGE 1
guess              SAP
}

optimize('b3lyp')
--------------------------------------------------------------------------

    Molecular point group: c2v
  Charge       = -1
  Multiplicity = 2
  Basis Set: CC-PVDZ
    Blend: CC-PVDZ
  Basis Set: (CC-PVDZ AUX)
    Blend: DEF2-UNIVERSAL-JKFIT
  @DF-UKS Final Energy:  -202.78851397522024
    Total Energy =                       -202.7885139752202690
 Dipole X            :          0.0000000            0.0000000            0.0000000
 Dipole Y            :          0.0000000            0.0000000            0.0000000
 Dipole Z            :          1.7373120           -0.0049551            1.7323569
 Magnitude           :                                                    1.7323569
    Molecular point group: c2v
  Basis Set: CC-PVDZ
    Blend: CC-PVDZ
  Basis Set: (CC-PVDZ AUX)
    Blend: DEF2-UNIVERSAL-JKFIT
  Basis Set: CC-PVDZ
    Blend: CC-PVDZ
  Basis Set: (CC-PVDZ AUX)
    Blend: DEF2-UNIVERSAL-JKFIT
  @DF-UKS Final Energy:  -202.89097575844696
    Total Energy =                       -202.8909757584469844
  Basis Set: CC-PVDZ
    Blend: CC-PVDZ
  Basis Set: (CC-PVDZ AUX)
    Blend: DEF2-UNIVERSAL-JKFIT
  Basis Set: CC-PVDZ
    Blend: CC-PVDZ
  @DF-UKS Final Energy:  -202.91263883110304
    Total Energy =                       -202.9126388311030098
  @DF-UKS Final Energy:  -202.93303199022523
    Total Energy =                       -202.9330319902252313
  @DF-UKS Final Energy:  -202.94616319448789
    Total Energy =                       -202.9461631944879230
  @DF-UKS Final Energy:  -202.95628526981295
    Total Energy =                       -202.9562852698129234
  @DF-UKS Final Energy:  -202.96316275486063
    Total Energy =                       -202.9631627548606332
  @DF-UKS Final Energy:  -202.96381355395584
    Total Energy =                       -202.9638135539558448
  @DF-UKS Final Energy:  -202.96783480668859
    Total Energy =                       -202.9678348066885860
  @DF-UKS Final Energy:  -202.96803822588512
    Total Energy =                       -202.9680382258851239
  @DF-UKS Final Energy:  -202.96997864594726
    Total Energy =                       -202.9699786459472648
  @DF-UKS Final Energy:  -202.97003797303111
    Total Energy =                       -202.9700379730310829
  @DF-UKS Final Energy:  -202.97095751200652
    Total Energy =                       -202.9709575120064926
  @DF-UKS Final Energy:  -202.97097349171042
    Total Energy =                       -202.9709734917104242
  @DF-UKS Final Energy:  -202.97139996412051
    Total Energy =                       -202.9713999641204794
  @DF-UKS Final Energy:  -202.97140396478255
    Total Energy =                       -202.9714039647825530
  @DF-UKS Final Energy:  -202.97140789052020
    Total Energy =                       -202.9714078905201973
  Basis Set: (CC-PVDZ AUX)
    Blend: DEF2-UNIVERSAL-JKFIT
  Basis Set: CC-PVDZ
    Blend: CC-PVDZ
  Basis Set: (CC-PVDZ AUX)
    Blend: DEF2-UNIVERSAL-JKFIT
  @DF-UKS Final Energy:  -202.97159160522497
    Total Energy =                       -202.9715916052249725
  Basis Set: CC-PVDZ
    Blend: CC-PVDZ
  Basis Set: (CC-PVDZ AUX)
    Blend: DEF2-UNIVERSAL-JKFIT
  Charge       = -1
  Multiplicity = 2
  Basis Set: CC-PVDZ
    Blend: CC-PVDZ
  Basis Set: (CC-PVDZ AUX)
    Blend: DEF2-UNIVERSAL-JKFIT

    Orbital Energies [Eh]
    ---------------------

    Alpha Occupied:

       1A1   -46.619286     2A1    -2.900335     3A1    -1.644506
       1B1    -1.644496     1B2    -1.642840     4A1    -0.535833
       5A1    -0.017482     2B2     0.087105

    Alpha Virtual:

       2B1     0.127071     6A1     0.129696     7A1     0.256373
       3B2     0.326849     3B1     0.333372     8A1     0.337581
       4B2     0.508226     1A2     0.508232     9A1     0.509410
      10A1     0.513108     4B1     0.513215    11A1     1.266312
       5B1     2.303399     5B2     2.303621    12A1     2.308349

    Beta Occupied:

       1A1   -46.618825     2A1    -2.899750     3A1    -1.644332
       1B1    -1.644321     1B2    -1.640613     4A1    -0.535835
       5A1    -0.004192

    Beta Virtual:

       2B1     0.130659     6A1     0.133384     2B2     0.144569
       7A1     0.262856     3B1     0.332878     8A1     0.337149
       3B2     0.346349     9A1     0.510061     4B1     0.510167
       4B2     0.524569     1A2     0.524570    10A1     0.529868
      11A1     1.266444     5B1     2.303410     5B2     2.303649
      12A1     2.308374

    Final Occupation by Irrep:
             A1    A2    B1    B2
    DOCC [     5,    0,    1,    1 ]
    SOCC [     0,    0,    0,    1 ]
    NA   [     5,    0,    1,    2 ]
    NB   [     5,    0,    1,    1 ]

  @DF-UKS Final Energy:  -202.97159244599953

   => Energetics <=

    Nuclear Repulsion Energy =              3.0625063956448728
    One-Electron Energy =                -291.9764155760685753
    Two-Electron Energy =                 100.1908030672879448
    DFT Exchange-Correlation Energy =     -14.2484863328637736
    Empirical Dispersion Energy =           0.0000000000000000
    VV10 Nonlocal Energy =                  0.0000000000000000
    Total Energy =                       -202.9715924459995335

  UHF NO Occupations:
  HONO-2 :    4 A1 2.0000000
  HONO-1 :    5 A1 1.9990027
  HONO-0 :    2 B2 1.0000000
  LUNO+0 :    6 A1 0.0009973
  LUNO+1 :    7 A1 0.0000000
  LUNO+2 :    2 B1 0.0000000
  LUNO+3 :    8 A1 0.0000000

Computation Completed

Properties will be evaluated at   0.000000,   0.000000,   0.000000 [a0]

Properties computed using the SCF density matrix

 Multipole Moments:

 ------------------------------------------------------------------------------------
     Multipole            Electronic (a.u.)      Nuclear  (a.u.)        Total (a.u.)
 ------------------------------------------------------------------------------------

 L = 1.  Multiply by 2.5417464519 to convert [e a0] to [Debye]
 Dipole X            :          0.0000000            0.0000000            0.0000000
 Dipole Y            :          0.0000000            0.0000000            0.0000000
 Dipole Z            :          1.1795463           -0.0171240            1.1624223
 Magnitude           :                                                    1.1624223

 ------------------------------------------------------------------------------------

*** tstop() called on Joses-MacBook-Pro-2.local at Thu Jul 17 09:21:52 2025
Module time:
	user time   =       1.52 seconds =       0.03 minutes
	system time =       1.99 seconds =       0.03 minutes
	total time  =          0 seconds =       0.00 minutes
Total time:
	user time   =      66.14 seconds =       1.10 minutes
	system time =      90.77 seconds =       1.51 minutes
	total time  =         16 seconds =       0.27 minutes

*** tstart() called on Joses-MacBook-Pro-2.local
*** at Thu Jul 17 09:21:52 2025

         ------------------------------------------------------------
                                   SCF GRAD
                          Rob Parrish, Justin Turney,
                       Andy Simmonett, and Alex Sokolov
         ------------------------------------------------------------

  ==> Geometry <==

    Molecular point group: c2v
    Full point group: C_inf_v

    Geometry (in Angstrom), charge = -1, multiplicity = 2:

       Center              X                  Y                   Z               Mass
    ------------   -----------------  -----------------  -----------------  -----------------
         HE           0.000000000000     0.000000000000     3.553935095067     4.002603254130
         MG           0.000000000000     0.000000000000    -0.593077650487    23.985041697000

  Nuclear repulsion =    3.062506395644873

  ==> Basis Set <==

  Basis Set: CC-PVDZ
    Blend: CC-PVDZ
    Number of shells: 11
    Number of basis functions: 23
    Number of Cartesian functions: 24
    Spherical Harmonics?: true
    Max angular momentum: 2

  ==> DFJKGrad: Density-Fitted SCF Gradients <==

    Gradient:                    1
    J tasked:                  Yes
    K tasked:                  Yes
    wK tasked:                  No
    OpenMP threads:              1
    Integrals threads:           1
    Memory [MiB]:              375
    Schwarz Cutoff:          1E-12
    Fitting Condition:       1E-10

   => Auxiliary Basis Set <=

  Basis Set: (CC-PVDZ AUX)
    Blend: DEF2-UNIVERSAL-JKFIT
    Number of shells: 43
    Number of basis functions: 135
    Number of Cartesian functions: 162
    Spherical Harmonics?: true
    Max angular momentum: 4

  ==> DFT Potential <==

   => LibXC <=

    Version 6.2.2
    S. Lehtola, C. Steigemann, M. J.T. Oliveira, and M. A.L. Marques.,  SoftwareX 7, 1â€“5 (2018) (10.1016/j.softx.2017.11.002)

   => Composite Functional: B3LYP <=

    B3LYP Hyb-GGA Exchange-Correlation Functional

    P. J. Stephens, F. J. Devlin, C. F. Chabalowski, and M. J. Frisch.,  J. Phys. Chem. 98, 11623 (1994) (10.1021/j100096a001)

    Deriv               =              1
    GGA                 =           TRUE
    Meta                =          FALSE

    Exchange Hybrid     =           TRUE
    MP2 Hybrid          =          FALSE

   => Exchange Functionals <=

    0.0800   Slater exchange
    0.7200         Becke 88

   => Exact (HF) Exchange <=

    0.2000               HF

   => Correlation Functionals <=

    0.1900   Vosko, Wilk & Nusair (VWN5_RPA)
    0.8100   Lee, Yang & Parr

   => LibXC Density Thresholds  <==

    XC_HYB_GGA_XC_B3LYP:  1.00E-15

   => Molecular Quadrature <=

    Radial Scheme          =       TREUTLER
    Pruning Scheme         =           NONE
    Nuclear Scheme         =       TREUTLER

    Blocking Scheme        =         OCTREE
    BS radius alpha        =              1
    Pruning alpha          =              1
    Radial Points          =             75
    Spherical Points       =            302
    Total Points           =          43578
    Total Blocks           =            422
    Max Points             =            255
    Max Functions          =             23
    Weights Tolerance      =       1.00E-15

  -Total Gradient:
     Atom            X                  Y                   Z
    ------   -----------------  -----------------  -----------------
       1        0.000000000000     0.000000000000    -0.000232046234
       2       -0.000000000000     0.000000000000     0.000219930368

*** tstop() called on Joses-MacBook-Pro-2.local at Thu Jul 17 09:21:52 2025
Module time:
	user time   =       0.64 seconds =       0.01 minutes
	system time =       1.49 seconds =       0.02 minutes
	total time  =          0 seconds =       0.00 minutes
Total time:
	user time   =      66.78 seconds =       1.11 minutes
	system time =      92.27 seconds =       1.54 minutes
	total time  =         16 seconds =       0.27 minutes

    			-----------------------------------------

    			 OPTKING 3.0: for geometry optimizations

    			     By R.A. King, Bethel University

    			        with contributions from

    			    A.V. Copan, J. Cayton, A. Heide

    			-----------------------------------------

	                            ===> Fragment 1 <==

	 Z (Atomic Numbers)          Masses                          Geom
	       2.000000             4.002603          0.00000000  0.00000000  6.71596400
	      12.000000            23.985042          0.00000000  0.00000000 -1.12075433

	 - Coordinate -           - BOHR/RAD -       - ANG/DEG -
	 R(1,2)           =         7.836718           4.147013

	        --- Internal Coordinate Step in ANG or DEG, aJ/ANG or AJ/DEG ---
	-------------------------------------------------------------------------------
	           Coordinate      Previous         Force          Change          New
	           ----------      --------        ------          ------        ------
	               R(1,2)       4.14701        0.00186        0.00194       4.14895
	-------------------------------------------------------------------------------

	                                 ==> Convergence Check <==

	Measures of convergence in internal coordinates in au.

	Criteria marked as inactive (o), active & met (*), and active & unmet ( ).

	----------------------------------------------------------------------------------------------
	   Step    Total Energy     Delta E     Max Force     RMS Force      Max Disp      RMS Disp
	----------------------------------------------------------------------------------------------
	  Convergence Criteria     1.00e-06 *    3.00e-04 *             o    1.20e-03 *             o
	----------------------------------------------------------------------------------------------
	    19    -202.97159245   -8.41e-07 *    2.26e-04 *    2.26e-04 o    3.66e-03      3.66e-03 o  ~
	----------------------------------------------------------------------------------------------

Next Geometry in Ang
	Fragment 1 (Ang)

	   He   0.0000000000   0.0000000000   3.5549027893
	   Mg   0.0000000000   0.0000000000  -0.5940453448

    Final optimized geometry and variables:
    Molecular point group: c2v
    Full point group: C_inf_v

    Geometry (in Angstrom), charge = -1, multiplicity = 2:

    HE           0.000000000000     0.000000000000     3.553935095067
    MG           0.000000000000     0.000000000000    -0.593077650487

    Psi4 stopped on: Thursday, 17 July 2025 09:21AM
    Psi4 wall time for execution: 0:00:16.50

*** Psi4 exiting successfully. Buy a developer a beer!
