                               Psi4 1.9.1 release

  ==> Input File <==

--------------------------------------------------------------------------
molecule {
-1 2
P   0.00000        0.60000        0.00000
Cl   0.00000       -0.60000        0.00000
}

set {
basis              cc-pvdz
reference          uks
maxiter            500
geom_maxiter       500
DAMPING_PERCENTAGE 1
guess              SAP
}

optimize('b3lyp')
--------------------------------------------------------------------------

    Molecular point group: c2v
  Charge       = -1
  Multiplicity = 2
  Basis Set: CC-PVDZ
    Blend: CC-PVDZ
  Basis Set: (CC-PVDZ AUX)
    Blend: CC-PVDZ-JKFIT
  @DF-UKS Final Energy:  -800.21540584536069
    Total Energy =                       -800.2154058453605785
 Dipole X            :          0.0000000            0.0000000            0.0000000
 Dipole Y            :          0.0000000            0.0000000            0.0000000
 Dipole Z            :         -1.8290793           -0.0695049           -1.8985842
 Magnitude           :                                                    1.8985842
    Molecular point group: c2v
  Basis Set: CC-PVDZ
    Blend: CC-PVDZ
  Basis Set: (CC-PVDZ AUX)
    Blend: CC-PVDZ-JKFIT
  Basis Set: CC-PVDZ
    Blend: CC-PVDZ
  Basis Set: (CC-PVDZ AUX)
    Blend: CC-PVDZ-JKFIT
  @DF-UKS Final Energy:  -800.26049650669188
    Total Energy =                       -800.2604965066917657
  Basis Set: CC-PVDZ
    Blend: CC-PVDZ
  Basis Set: (CC-PVDZ AUX)
    Blend: CC-PVDZ-JKFIT
  Basis Set: CC-PVDZ
    Blend: CC-PVDZ
  @DF-UKS Final Energy:  -800.34393490422508
    Total Energy =                       -800.3439349042250797
  @DF-UKS Final Energy:  -800.61349232903285
    Total Energy =                       -800.6134923290328516
  @DF-UKS Final Energy:  -801.16246803753313
    Total Energy =                       -801.1624680375332446
  @DF-UKS Final Energy:  -801.35341461946814
    Total Energy =                       -801.3534146194681398
  @DF-UKS Final Energy:  -801.47439699510369
    Total Energy =                       -801.4743969951036888
  @DF-UKS Final Energy:  -801.53735585321124
    Total Energy =                       -801.5373558532112384
  @DF-UKS Final Energy:  -801.56495559538405
    Total Energy =                       -801.5649555953840490
  @DF-UKS Final Energy:  -801.57578802607361
    Total Energy =                       -801.5757880260736101
  @DF-UKS Final Energy:  -801.57846199593143
    Total Energy =                       -801.5784619959315478
  @DF-UKS Final Energy:  -801.57941305487077
    Total Energy =                       -801.5794130548707699
  @DF-UKS Final Energy:  -801.57957802817668
    Total Energy =                       -801.5795780281766838
  @DF-UKS Final Energy:  -801.57960922629320
    Total Energy =                       -801.5796092262932007
  Basis Set: (CC-PVDZ AUX)
    Blend: CC-PVDZ-JKFIT
  Basis Set: CC-PVDZ
    Blend: CC-PVDZ
  Basis Set: (CC-PVDZ AUX)
    Blend: CC-PVDZ-JKFIT
  @DF-UKS Final Energy:  -801.57961629377030
    Total Energy =                       -801.5796162937703002
  Basis Set: CC-PVDZ
    Blend: CC-PVDZ
  Basis Set: (CC-PVDZ AUX)
    Blend: CC-PVDZ-JKFIT
  Charge       = -1
  Multiplicity = 2
  Basis Set: CC-PVDZ
    Blend: CC-PVDZ
  Basis Set: (CC-PVDZ AUX)
    Blend: CC-PVDZ-JKFIT

    Orbital Energies [Eh]
    ---------------------

    Alpha Occupied:

       1A1  -101.300015     2A1   -76.839268     3A1    -9.216255
       4A1    -6.976433     1B2    -6.971677     1B1    -6.969863
       5A1    -6.304644     2B2    -4.470861     6A1    -4.470704
       2B1    -4.456669     7A1    -0.573805     8A1    -0.306933
       9A1    -0.116908     3B2    -0.106544     3B1    -0.098133
       4B2     0.019233     4B1     0.056172

    Alpha Virtual:

      10A1     0.181516    11A1     0.582990    12A1     0.606955
       5B2     0.643238     6B2     0.664206     5B1     0.671774
       6B1     0.689475    13A1     0.692868     1A2     0.726182
      14A1     0.728565     7B2     0.796460     7B1     0.802809
      15A1     0.918777    16A1     0.946801     2A2     0.973473
      17A1     0.973646     8B2     1.051644     8B1     1.062709
      18A1     1.422012

    Beta Occupied:

       1A1  -101.299644     2A1   -76.835677     3A1    -9.215896
       4A1    -6.976458     1B2    -6.970252     1B1    -6.969644
       5A1    -6.300799     6A1    -4.468546     2B2    -4.458261
       2B1    -4.454472     7A1    -0.570845     8A1    -0.276950
       9A1    -0.107597     3B1    -0.096991     3B2    -0.096142
       4B1     0.066314

    Beta Virtual:

       4B2     0.133395    10A1     0.192554    11A1     0.595999
      12A1     0.616843     5B1     0.677779     5B2     0.683349
       6B1     0.693107    13A1     0.698250     6B2     0.698781
       1A2     0.767631    14A1     0.772080     7B2     0.800881
       7B1     0.803093    15A1     0.926651    16A1     0.949463
       2A2     0.977161    17A1     0.977258     8B1     1.063912
       8B2     1.064159    18A1     1.427396

    Final Occupation by Irrep:
             A1    A2    B1    B2
    DOCC [     9,    0,    4,    3 ]
    SOCC [     0,    0,    0,    1 ]
    NA   [     9,    0,    4,    4 ]
    NB   [     9,    0,    4,    3 ]

  @DF-UKS Final Energy:  -801.57961685035002

   => Energetics <=

    Nuclear Repulsion Energy =             59.9564013159735367
    One-Electron Energy =               -1235.3115053020719643
    Two-Electron Energy =                 415.4339315544625038
    DFT Exchange-Correlation Energy =     -41.6584444187142040
    Empirical Dispersion Energy =           0.0000000000000000
    VV10 Nonlocal Energy =                  0.0000000000000000
    Total Energy =                       -801.5796168503500212

  UHF NO Occupations:
  HONO-2 :    8 A1 1.9998934
  HONO-1 :    9 A1 1.9987579
  HONO-0 :    4 B2 1.0000000
  LUNO+0 :   10 A1 0.0012421
  LUNO+1 :   11 A1 0.0001066
  LUNO+2 :    5 B2 0.0000555
  LUNO+3 :    5 B1 0.0000187

Computation Completed

Properties will be evaluated at   0.000000,   0.000000,   0.000000 [a0]

Properties computed using the SCF density matrix

 Multipole Moments:

 ------------------------------------------------------------------------------------
     Multipole            Electronic (a.u.)      Nuclear  (a.u.)        Total (a.u.)
 ------------------------------------------------------------------------------------

 L = 1.  Multiply by 2.5417464519 to convert [e a0] to [Debye]
 Dipole X            :          0.0000000            0.0000000            0.0000000
 Dipole Y            :          0.0000000            0.0000000            0.0000000
 Dipole Z            :         -0.4664706           -0.1303587           -0.5968293
 Magnitude           :                                                    0.5968293

 ------------------------------------------------------------------------------------

*** tstop() called on Joses-MacBook-Pro-2.local at Thu Jul 17 12:02:12 2025
Module time:
	user time   =       7.26 seconds =       0.12 minutes
	system time =       2.14 seconds =       0.04 minutes
	total time  =          0 seconds =       0.00 minutes
Total time:
	user time   =     187.17 seconds =       3.12 minutes
	system time =      45.13 seconds =       0.75 minutes
	total time  =         22 seconds =       0.37 minutes

*** tstart() called on Joses-MacBook-Pro-2.local
*** at Thu Jul 17 12:02:12 2025

         ------------------------------------------------------------
                                   SCF GRAD
                          Rob Parrish, Justin Turney,
                       Andy Simmonett, and Alex Sokolov
         ------------------------------------------------------------

  ==> Geometry <==

    Molecular point group: c2v
    Full point group: C_inf_v

    Geometry (in Angstrom), charge = -1, multiplicity = 2:

       Center              X                  Y                   Z               Mass
    ------------   -----------------  -----------------  -----------------  -----------------
         P            0.000000000000     0.000000000000     1.193496021149    30.973761998420
         CL           0.000000000000     0.000000000000    -1.057142538856    34.968852682000

  Nuclear repulsion =   59.956401315973537

  ==> Basis Set <==

  Basis Set: CC-PVDZ
    Blend: CC-PVDZ
    Number of shells: 16
    Number of basis functions: 36
    Number of Cartesian functions: 38
    Spherical Harmonics?: true
    Max angular momentum: 2

  ==> DFJKGrad: Density-Fitted SCF Gradients <==

    Gradient:                    1
    J tasked:                  Yes
    K tasked:                  Yes
    wK tasked:                  No
    OpenMP threads:              1
    Integrals threads:           1
    Memory [MiB]:              375
    Schwarz Cutoff:          1E-12
    Fitting Condition:       1E-10

   => Auxiliary Basis Set <=

  Basis Set: (CC-PVDZ AUX)
    Blend: CC-PVDZ-JKFIT
    Number of shells: 72
    Number of basis functions: 224
    Number of Cartesian functions: 260
    Spherical Harmonics?: true
    Max angular momentum: 3

  ==> DFT Potential <==

   => LibXC <=

    Version 6.2.2
    S. Lehtola, C. Steigemann, M. J.T. Oliveira, and M. A.L. Marques.,  SoftwareX 7, 1â€“5 (2018) (10.1016/j.softx.2017.11.002)

   => Composite Functional: B3LYP <=

    B3LYP Hyb-GGA Exchange-Correlation Functional

    P. J. Stephens, F. J. Devlin, C. F. Chabalowski, and M. J. Frisch.,  J. Phys. Chem. 98, 11623 (1994) (10.1021/j100096a001)

    Deriv               =              1
    GGA                 =           TRUE
    Meta                =          FALSE

    Exchange Hybrid     =           TRUE
    MP2 Hybrid          =          FALSE

   => Exchange Functionals <=

    0.0800   Slater exchange
    0.7200         Becke 88

   => Exact (HF) Exchange <=

    0.2000               HF

   => Correlation Functionals <=

    0.1900   Vosko, Wilk & Nusair (VWN5_RPA)
    0.8100   Lee, Yang & Parr

   => LibXC Density Thresholds  <==

    XC_HYB_GGA_XC_B3LYP:  1.00E-15

   => Molecular Quadrature <=

    Radial Scheme          =       TREUTLER
    Pruning Scheme         =           NONE
    Nuclear Scheme         =       TREUTLER

    Blocking Scheme        =         OCTREE
    BS radius alpha        =              1
    Pruning alpha          =              1
    Radial Points          =             75
    Spherical Points       =            302
    Total Points           =          40852
    Total Blocks           =            368
    Max Points             =            255
    Max Functions          =             36
    Weights Tolerance      =       1.00E-15

  -Total Gradient:
     Atom            X                  Y                   Z
    ------   -----------------  -----------------  -----------------
       1        0.000000000000     0.000000000000    -0.000050450113
       2        0.000000000000     0.000000000000     0.000059908475

*** tstop() called on Joses-MacBook-Pro-2.local at Thu Jul 17 12:02:13 2025
Module time:
	user time   =       2.06 seconds =       0.03 minutes
	system time =       1.75 seconds =       0.03 minutes
	total time  =          1 seconds =       0.02 minutes
Total time:
	user time   =     189.24 seconds =       3.15 minutes
	system time =      46.88 seconds =       0.78 minutes
	total time  =         23 seconds =       0.38 minutes

    			-----------------------------------------

    			 OPTKING 3.0: for geometry optimizations

    			     By R.A. King, Bethel University

    			        with contributions from

    			    A.V. Copan, J. Cayton, A. Heide

    			-----------------------------------------

	                            ===> Fragment 1 <==

	 Z (Atomic Numbers)          Masses                          Geom
	      15.000000            30.973762          0.00000000  0.00000000  2.25538061
	      17.000000            34.968853          0.00000000  0.00000000 -1.99770987

	 - Coordinate -           - BOHR/RAD -       - ANG/DEG -
	 R(1,2)           =         4.253090           2.250639

	        --- Internal Coordinate Step in ANG or DEG, aJ/ANG or AJ/DEG ---
	-------------------------------------------------------------------------------
	           Coordinate      Previous         Force          Change          New
	           ----------      --------        ------          ------        ------
	               R(1,2)       2.25064        0.00045        0.00032       2.25095
	-------------------------------------------------------------------------------

	                                 ==> Convergence Check <==

	Measures of convergence in internal coordinates in au.

	Criteria marked as inactive (o), active & met (*), and active & unmet ( ).

	----------------------------------------------------------------------------------------------
	   Step    Total Energy     Delta E     Max Force     RMS Force      Max Disp      RMS Disp
	----------------------------------------------------------------------------------------------
	  Convergence Criteria     1.00e-06 *    3.00e-04 *             o    1.20e-03 *             o
	----------------------------------------------------------------------------------------------
	    16    -801.57961685   -5.57e-07 *    5.52e-05 *    5.52e-05 o    5.96e-04 *    5.96e-04 o  ~
	----------------------------------------------------------------------------------------------

Next Geometry in Ang
	Fragment 1 (Ang)

	    P   0.0000000000   0.0000000000   1.1936537134
	   Cl   0.0000000000   0.0000000000  -1.0573002311

    Final optimized geometry and variables:
    Molecular point group: c2v
    Full point group: C_inf_v

    Geometry (in Angstrom), charge = -1, multiplicity = 2:

    P            0.000000000000     0.000000000000     1.193496021149
    CL           0.000000000000     0.000000000000    -1.057142538856

    Psi4 stopped on: Thursday, 17 July 2025 12:02PM
    Psi4 wall time for execution: 0:00:22.93

*** Psi4 exiting successfully. Buy a developer a beer!
