                               Psi4 1.9.1 release

  ==> Input File <==

--------------------------------------------------------------------------
molecule {
-1 2
B   0.00000        0.60000        0.00000
F   0.00000       -0.60000        0.00000
}

set {
basis              cc-pvdz
reference          uks
maxiter            500
geom_maxiter       500
DAMPING_PERCENTAGE 1
guess              SAP
}

optimize('b3lyp')
--------------------------------------------------------------------------

    Molecular point group: c2v
  Charge       = -1
  Multiplicity = 2
  Basis Set: CC-PVDZ
    Blend: CC-PVDZ
  Basis Set: (CC-PVDZ AUX)
    Blend: CC-PVDZ-JKFIT
  @DF-UKS Final Energy:  -124.57964223199313
    Total Energy =                       -124.5796422319931338
 Dipole X            :          0.0000000            0.0000000            0.0000000
 Dipole Y            :          0.0000000            0.0000000            0.0000000
 Dipole Z            :         -1.6703808           -0.3092107           -1.9795915
 Magnitude           :                                                    1.9795915
    Molecular point group: c2v
  Basis Set: CC-PVDZ
    Blend: CC-PVDZ
  Basis Set: (CC-PVDZ AUX)
    Blend: CC-PVDZ-JKFIT
  Basis Set: CC-PVDZ
    Blend: CC-PVDZ
  Basis Set: (CC-PVDZ AUX)
    Blend: CC-PVDZ-JKFIT
  @DF-UKS Final Energy:  -124.60318087357260
    Total Energy =                       -124.6031808735725974
  Basis Set: CC-PVDZ
    Blend: CC-PVDZ
  Basis Set: (CC-PVDZ AUX)
    Blend: CC-PVDZ-JKFIT
  Basis Set: CC-PVDZ
    Blend: CC-PVDZ
  @DF-UKS Final Energy:  -124.60916933578187
    Total Energy =                       -124.6091693357818713
  @DF-UKS Final Energy:  -124.61030821878762
    Total Energy =                       -124.6103082187876225
  @DF-UKS Final Energy:  -124.61056171534503
    Total Energy =                       -124.6105617153450282
  @DF-UKS Final Energy:  -124.61062265490401
    Total Energy =                       -124.6106226549040059
  Basis Set: (CC-PVDZ AUX)
    Blend: CC-PVDZ-JKFIT
  Basis Set: CC-PVDZ
    Blend: CC-PVDZ
  Basis Set: (CC-PVDZ AUX)
    Blend: CC-PVDZ-JKFIT
  @DF-UKS Final Energy:  -124.61064105441409
    Total Energy =                       -124.6106410544140886
  Basis Set: CC-PVDZ
    Blend: CC-PVDZ
  Basis Set: (CC-PVDZ AUX)
    Blend: CC-PVDZ-JKFIT
  Charge       = -1
  Multiplicity = 2
  Basis Set: CC-PVDZ
    Blend: CC-PVDZ
  Basis Set: (CC-PVDZ AUX)
    Blend: CC-PVDZ-JKFIT

    Orbital Energies [Eh]
    ---------------------

    Alpha Occupied:

       1A1   -24.429556     2A1    -6.511625     3A1    -0.923551
       4A1    -0.263867     1B2    -0.178705     1B1    -0.172901
       5A1     0.004923     2B2     0.155135

    Alpha Virtual:

       2B1     0.228515     6A1     0.352938     3B2     0.541460
       3B1     0.562766     7A1     0.622948     8A1     0.697228
       1A2     0.980195     9A1     0.985759     4B2     1.072015
       4B1     1.077065    10A1     1.171155     5B1     1.510946
       5B2     1.511990    11A1     1.612794    12A1     2.402132
       2A2     3.826628    13A1     3.826720     6B1     3.952191
       6B2     3.954009    14A1     4.181003

    Beta Occupied:

       1A1   -24.426073     2A1    -6.505333     3A1    -0.916384
       4A1    -0.255416     1B1    -0.170310     1B2    -0.157076
       5A1     0.032643

    Beta Virtual:

       2B1     0.237713     2B2     0.266892     6A1     0.360840
       3B1     0.568839     3B2     0.594328     7A1     0.636550
       8A1     0.711620     9A1     1.023608     1A2     1.023900
       4B1     1.078418     4B2     1.105680    10A1     1.180545
       5B1     1.512129     5B2     1.523035    11A1     1.619103
      12A1     2.405316    13A1     3.835163     2A2     3.835236
       6B1     3.953574     6B2     3.964317    14A1     4.186306

    Final Occupation by Irrep:
             A1    A2    B1    B2
    DOCC [     5,    0,    1,    1 ]
    SOCC [     0,    0,    0,    1 ]
    NA   [     5,    0,    1,    2 ]
    NB   [     5,    0,    1,    1 ]

  @DF-UKS Final Energy:  -124.61064293030427

   => Energetics <=

    Nuclear Repulsion Energy =             16.8700857170112570
    One-Electron Energy =                -209.7138164716939173
    Two-Electron Energy =                  80.1045706754089792
    DFT Exchange-Correlation Energy =     -11.8714828510305725
    Empirical Dispersion Energy =           0.0000000000000000
    VV10 Nonlocal Energy =                  0.0000000000000000
    Total Energy =                       -124.6106429303042660

  UHF NO Occupations:
  HONO-2 :    1 B2 1.9998883
  HONO-1 :    5 A1 1.9984824
  HONO-0 :    2 B2 1.0000000
  LUNO+0 :    6 A1 0.0015176
  LUNO+1 :    3 B2 0.0001117
  LUNO+2 :    2 B1 0.0000125
  LUNO+3 :    7 A1 0.0000046

Computation Completed

Properties will be evaluated at   0.000000,   0.000000,   0.000000 [a0]

Properties computed using the SCF density matrix

 Multipole Moments:

 ------------------------------------------------------------------------------------
     Multipole            Electronic (a.u.)      Nuclear  (a.u.)        Total (a.u.)
 ------------------------------------------------------------------------------------

 L = 1.  Multiply by 2.5417464519 to convert [e a0] to [Debye]
 Dipole X            :          0.0000000            0.0000000            0.0000000
 Dipole Y            :          0.0000000            0.0000000            0.0000000
 Dipole Z            :         -1.3750255           -0.3637220           -1.7387475
 Magnitude           :                                                    1.7387475

 ------------------------------------------------------------------------------------

*** tstop() called on Joses-MacBook-Pro-2.local at Thu Jul 17 09:50:32 2025
Module time:
	user time   =       2.66 seconds =       0.04 minutes
	system time =       3.31 seconds =       0.06 minutes
	total time  =          1 seconds =       0.02 minutes
Total time:
	user time   =      28.03 seconds =       0.47 minutes
	system time =      40.10 seconds =       0.67 minutes
	total time  =          7 seconds =       0.12 minutes

*** tstart() called on Joses-MacBook-Pro-2.local
*** at Thu Jul 17 09:50:32 2025

         ------------------------------------------------------------
                                   SCF GRAD
                          Rob Parrish, Justin Turney,
                       Andy Simmonett, and Alex Sokolov
         ------------------------------------------------------------

  ==> Geometry <==

    Molecular point group: c2v
    Full point group: C_inf_v

    Geometry (in Angstrom), charge = -1, multiplicity = 2:

       Center              X                  Y                   Z               Mass
    ------------   -----------------  -----------------  -----------------  -----------------
         B            0.000000000000     0.000000000000     0.893677088986    11.009305360000
         F            0.000000000000     0.000000000000    -0.517873206585    18.998403162730

  Nuclear repulsion =   16.870085717011257

  ==> Basis Set <==

  Basis Set: CC-PVDZ
    Blend: CC-PVDZ
    Number of shells: 12
    Number of basis functions: 28
    Number of Cartesian functions: 30
    Spherical Harmonics?: true
    Max angular momentum: 2

  ==> DFJKGrad: Density-Fitted SCF Gradients <==

    Gradient:                    1
    J tasked:                  Yes
    K tasked:                  Yes
    wK tasked:                  No
    OpenMP threads:              1
    Integrals threads:           1
    Memory [MiB]:              375
    Schwarz Cutoff:          1E-12
    Fitting Condition:       1E-10

   => Auxiliary Basis Set <=

  Basis Set: (CC-PVDZ AUX)
    Blend: CC-PVDZ-JKFIT
    Number of shells: 48
    Number of basis functions: 140
    Number of Cartesian functions: 162
    Spherical Harmonics?: true
    Max angular momentum: 3

  ==> DFT Potential <==

   => LibXC <=

    Version 6.2.2
    S. Lehtola, C. Steigemann, M. J.T. Oliveira, and M. A.L. Marques.,  SoftwareX 7, 1â€“5 (2018) (10.1016/j.softx.2017.11.002)

   => Composite Functional: B3LYP <=

    B3LYP Hyb-GGA Exchange-Correlation Functional

    P. J. Stephens, F. J. Devlin, C. F. Chabalowski, and M. J. Frisch.,  J. Phys. Chem. 98, 11623 (1994) (10.1021/j100096a001)

    Deriv               =              1
    GGA                 =           TRUE
    Meta                =          FALSE

    Exchange Hybrid     =           TRUE
    MP2 Hybrid          =          FALSE

   => Exchange Functionals <=

    0.0800   Slater exchange
    0.7200         Becke 88

   => Exact (HF) Exchange <=

    0.2000               HF

   => Correlation Functionals <=

    0.1900   Vosko, Wilk & Nusair (VWN5_RPA)
    0.8100   Lee, Yang & Parr

   => LibXC Density Thresholds  <==

    XC_HYB_GGA_XC_B3LYP:  1.00E-15

   => Molecular Quadrature <=

    Radial Scheme          =       TREUTLER
    Pruning Scheme         =           NONE
    Nuclear Scheme         =       TREUTLER

    Blocking Scheme        =         OCTREE
    BS radius alpha        =              1
    Pruning alpha          =              1
    Radial Points          =             75
    Spherical Points       =            302
    Total Points           =          43570
    Total Blocks           =            394
    Max Points             =            256
    Max Functions          =             28
    Weights Tolerance      =       1.00E-15

  -Total Gradient:
     Atom            X                  Y                   Z
    ------   -----------------  -----------------  -----------------
       1        0.000000000000     0.000000000000    -0.000143483490
       2        0.000000000000     0.000000000000     0.000173972909

*** tstop() called on Joses-MacBook-Pro-2.local at Thu Jul 17 09:50:32 2025
Module time:
	user time   =       0.55 seconds =       0.01 minutes
	system time =       1.19 seconds =       0.02 minutes
	total time  =          0 seconds =       0.00 minutes
Total time:
	user time   =      28.58 seconds =       0.48 minutes
	system time =      41.29 seconds =       0.69 minutes
	total time  =          7 seconds =       0.12 minutes

    			-----------------------------------------

    			 OPTKING 3.0: for geometry optimizations

    			     By R.A. King, Bethel University

    			        with contributions from

    			    A.V. Copan, J. Cayton, A. Heide

    			-----------------------------------------

	                            ===> Fragment 1 <==

	 Z (Atomic Numbers)          Masses                          Geom
	       5.000000            11.009305          0.00000000  0.00000000  1.68880494
	       9.000000            18.998403          0.00000000  0.00000000 -0.97863853

	 - Coordinate -           - BOHR/RAD -       - ANG/DEG -
	 R(1,2)           =         2.667443           1.411550

	        --- Internal Coordinate Step in ANG or DEG, aJ/ANG or AJ/DEG ---
	-------------------------------------------------------------------------------
	           Coordinate      Previous         Force          Change          New
	           ----------      --------        ------          ------        ------
	               R(1,2)       1.41155        0.00131        0.00032       1.41187
	-------------------------------------------------------------------------------

	                                 ==> Convergence Check <==

	Measures of convergence in internal coordinates in au.

	Criteria marked as inactive (o), active & met (*), and active & unmet ( ).

	----------------------------------------------------------------------------------------------
	   Step    Total Energy     Delta E     Max Force     RMS Force      Max Disp      RMS Disp
	----------------------------------------------------------------------------------------------
	  Convergence Criteria     1.00e-06 *    3.00e-04 *             o    1.20e-03 *             o
	----------------------------------------------------------------------------------------------
	     8    -124.61064293   -1.88e-06      1.59e-04 *    1.59e-04 o    6.09e-04 *    6.09e-04 o  ~
	----------------------------------------------------------------------------------------------

Next Geometry in Ang
	Fragment 1 (Ang)

	    B   0.0000000000   0.0000000000   0.8938381238
	    F   0.0000000000   0.0000000000  -0.5180342414

    Final optimized geometry and variables:
    Molecular point group: c2v
    Full point group: C_inf_v

    Geometry (in Angstrom), charge = -1, multiplicity = 2:

    B            0.000000000000     0.000000000000     0.893677088986
    F            0.000000000000     0.000000000000    -0.517873206585

    Psi4 stopped on: Thursday, 17 July 2025 09:50AM
    Psi4 wall time for execution: 0:00:07.20

*** Psi4 exiting successfully. Buy a developer a beer!
