                               Psi4 1.9.1 release

  ==> Input File <==

--------------------------------------------------------------------------
molecule {
-1 2
Ne   0.00000        0.60000        0.00000
Mg   0.00000       -0.60000        0.00000
}

set {
basis              cc-pvdz
reference          uks
maxiter            500
geom_maxiter       500
DAMPING_PERCENTAGE 1
guess              SAP
}

optimize('b3lyp')
--------------------------------------------------------------------------

    Molecular point group: c2v
  Charge       = -1
  Multiplicity = 2
  Basis Set: CC-PVDZ
    Blend: CC-PVDZ
  Basis Set: (CC-PVDZ AUX)
    Blend: CC-PVDZ-JKFIT + DEF2-UNIVERSAL-JKFIT
  @DF-UKS Final Energy:  -328.49680827911749
    Total Energy =                       -328.4968082791174879
 Dipole X            :          0.0000000            0.0000000            0.0000000
 Dipole Y            :          0.0000000            0.0000000            0.0000000
 Dipole Z            :          1.9878319           -0.0030353            1.9847965
 Magnitude           :                                                    1.9847965
    Molecular point group: c2v
  Basis Set: CC-PVDZ
    Blend: CC-PVDZ
  Basis Set: (CC-PVDZ AUX)
    Blend: CC-PVDZ-JKFIT + DEF2-UNIVERSAL-JKFIT
  Basis Set: CC-PVDZ
    Blend: CC-PVDZ
  Basis Set: (CC-PVDZ AUX)
    Blend: CC-PVDZ-JKFIT + DEF2-UNIVERSAL-JKFIT
  @DF-UKS Final Energy:  -328.72914510617619
    Total Energy =                       -328.7291451061761336
  Basis Set: CC-PVDZ
    Blend: CC-PVDZ
  Basis Set: (CC-PVDZ AUX)
    Blend: CC-PVDZ-JKFIT + DEF2-UNIVERSAL-JKFIT
  Basis Set: CC-PVDZ
    Blend: CC-PVDZ
  @DF-UKS Final Energy:  -328.83322242465732
    Total Energy =                       -328.8332224246572650
  @DF-UKS Final Energy:  -328.89199390828020
    Total Energy =                       -328.8919939082801989
  @DF-UKS Final Energy:  -328.91718575827338
    Total Energy =                       -328.9171857582733196
  @DF-UKS Final Energy:  -328.93548807612888
    Total Energy =                       -328.9354880761288769
  @DF-UKS Final Energy:  -328.94843877764839
    Total Energy =                       -328.9484387776483914
  @DF-UKS Final Energy:  -328.95679520742840
    Total Energy =                       -328.9567952074283994
  @DF-UKS Final Energy:  -328.96408831602503
    Total Energy =                       -328.9640883160250269
  @DF-UKS Final Energy:  -328.96860718981151
    Total Energy =                       -328.9686071898115074
  @DF-UKS Final Energy:  -328.97149670393742
    Total Energy =                       -328.9714967039374187
  @DF-UKS Final Energy:  -328.97310379983406
    Total Energy =                       -328.9731037998340639
  @DF-UKS Final Energy:  -328.97395346577963
    Total Energy =                       -328.9739534657795730
  @DF-UKS Final Energy:  -328.97441051468542
    Total Energy =                       -328.9744105146854167
  @DF-UKS Final Energy:  -328.97466059065368
    Total Energy =                       -328.9746605906536843
  @DF-UKS Final Energy:  -328.97477102293465
    Total Energy =                       -328.9747710229346467
  Basis Set: (CC-PVDZ AUX)
    Blend: CC-PVDZ-JKFIT + DEF2-UNIVERSAL-JKFIT
  Basis Set: CC-PVDZ
    Blend: CC-PVDZ
  Basis Set: (CC-PVDZ AUX)
    Blend: CC-PVDZ-JKFIT + DEF2-UNIVERSAL-JKFIT
  @DF-UKS Final Energy:  -328.97479290410354
    Total Energy =                       -328.9747929041035377
  Basis Set: CC-PVDZ
    Blend: CC-PVDZ
  Basis Set: (CC-PVDZ AUX)
    Blend: CC-PVDZ-JKFIT + DEF2-UNIVERSAL-JKFIT
  Charge       = -1
  Multiplicity = 2
  Basis Set: CC-PVDZ
    Blend: CC-PVDZ
  Basis Set: (CC-PVDZ AUX)
    Blend: CC-PVDZ-JKFIT + DEF2-UNIVERSAL-JKFIT

    Orbital Energies [Eh]
    ---------------------

    Alpha Occupied:

       1A1   -46.619226     2A1   -30.843909     3A1    -2.900277
       4A1    -1.644453     1B1    -1.644438     1B2    -1.642781
       5A1    -1.308945     2B1    -0.417594     2B2    -0.417404
       6A1    -0.417257     7A1    -0.017375     3B2     0.087245

    Alpha Virtual:

       3B1     0.127196     8A1     0.129279     9A1     0.256096
       4B2     0.327001     4B1     0.333512    10A1     0.336211
       5B2     0.508271     1A2     0.508294    11A1     0.509465
      12A1     0.513154     5B1     0.513278     6B1     1.482580
       6B2     1.483050    13A1     1.496361    14A1     1.979203
       2A2     4.847951    15A1     4.848147     7B1     4.848252
       7B2     4.848371    16A1     4.848482

    Beta Occupied:

       1A1   -46.618763     2A1   -30.843891     3A1    -2.899690
       4A1    -1.644277     1B1    -1.644263     1B2    -1.640549
       5A1    -1.308913     2B1    -0.417585     2B2    -0.417332
       6A1    -0.417248     7A1    -0.004082

    Beta Virtual:

       3B1     0.130780     8A1     0.132878     3B2     0.144704
       9A1     0.262531     4B1     0.333019    10A1     0.335690
       4B2     0.346500    11A1     0.510108     5B1     0.510229
       5B2     0.524641     1A2     0.524652    12A1     0.529944
       6B1     1.482571     6B2     1.483101    13A1     1.496418
      14A1     1.979347     2A2     4.847984    15A1     4.848173
       7B1     4.848261     7B2     4.848405    16A1     4.848507

    Final Occupation by Irrep:
             A1    A2    B1    B2
    DOCC [     7,    0,    2,    2 ]
    SOCC [     0,    0,    0,    1 ]
    NA   [     7,    0,    2,    3 ]
    NB   [     7,    0,    2,    2 ]

  @DF-UKS Final Energy:  -328.97479398098994

   => Energetics <=

    Nuclear Repulsion Energy =             15.6198475569888622
    One-Electron Energy =                -496.7505644286453617
    Two-Electron Energy =                 175.6482849310945369
    DFT Exchange-Correlation Energy =     -23.4923620404279845
    Empirical Dispersion Energy =           0.0000000000000000
    VV10 Nonlocal Energy =                  0.0000000000000000
    Total Energy =                       -328.9747939809898867

  UHF NO Occupations:
  HONO-2 :    6 A1 2.0000000
  HONO-1 :    7 A1 1.9990040
  HONO-0 :    3 B2 1.0000000
  LUNO+0 :    8 A1 0.0009960
  LUNO+1 :    9 A1 0.0000000
  LUNO+2 :    3 B1 0.0000000
  LUNO+3 :   10 A1 0.0000000

Computation Completed

Properties will be evaluated at   0.000000,   0.000000,   0.000000 [a0]

Properties computed using the SCF density matrix

 Multipole Moments:

 ------------------------------------------------------------------------------------
     Multipole            Electronic (a.u.)      Nuclear  (a.u.)        Total (a.u.)
 ------------------------------------------------------------------------------------

 L = 1.  Multiply by 2.5417464519 to convert [e a0] to [Debye]
 Dipole X            :          0.0000000            0.0000000            0.0000000
 Dipole Y            :          0.0000000            0.0000000            0.0000000
 Dipole Z            :          3.5494903           -0.0102833            3.5392070
 Magnitude           :                                                    3.5392070

 ------------------------------------------------------------------------------------

*** tstop() called on Joses-MacBook-Pro-2.local at Thu Jul 17 10:58:54 2025
Module time:
	user time   =       3.38 seconds =       0.06 minutes
	system time =       4.40 seconds =       0.07 minutes
	total time  =          1 seconds =       0.02 minutes
Total time:
	user time   =      91.66 seconds =       1.53 minutes
	system time =     102.05 seconds =       1.70 minutes
	total time  =         20 seconds =       0.33 minutes

*** tstart() called on Joses-MacBook-Pro-2.local
*** at Thu Jul 17 10:58:54 2025

         ------------------------------------------------------------
                                   SCF GRAD
                          Rob Parrish, Justin Turney,
                       Andy Simmonett, and Alex Sokolov
         ------------------------------------------------------------

  ==> Geometry <==

    Molecular point group: c2v
    Full point group: C_inf_v

    Geometry (in Angstrom), charge = -1, multiplicity = 2:

       Center              X                  Y                   Z               Mass
    ------------   -----------------  -----------------  -----------------  -----------------
         NE           0.000000000000     0.000000000000     2.217255328767    19.992440176200
         MG           0.000000000000     0.000000000000    -1.848166247770    23.985041697000

  Nuclear repulsion =   15.619847556988862

  ==> Basis Set <==

  Basis Set: CC-PVDZ
    Blend: CC-PVDZ
    Number of shells: 14
    Number of basis functions: 32
    Number of Cartesian functions: 34
    Spherical Harmonics?: true
    Max angular momentum: 2

  ==> DFJKGrad: Density-Fitted SCF Gradients <==

    Gradient:                    1
    J tasked:                  Yes
    K tasked:                  Yes
    wK tasked:                  No
    OpenMP threads:              1
    Integrals threads:           1
    Memory [MiB]:              375
    Schwarz Cutoff:          1E-12
    Fitting Condition:       1E-10

   => Auxiliary Basis Set <=

  Basis Set: (CC-PVDZ AUX)
    Blend: CC-PVDZ-JKFIT + DEF2-UNIVERSAL-JKFIT
    Number of shells: 58
    Number of basis functions: 182
    Number of Cartesian functions: 218
    Spherical Harmonics?: true
    Max angular momentum: 4

  ==> DFT Potential <==

   => LibXC <=

    Version 6.2.2
    S. Lehtola, C. Steigemann, M. J.T. Oliveira, and M. A.L. Marques.,  SoftwareX 7, 1â€“5 (2018) (10.1016/j.softx.2017.11.002)

   => Composite Functional: B3LYP <=

    B3LYP Hyb-GGA Exchange-Correlation Functional

    P. J. Stephens, F. J. Devlin, C. F. Chabalowski, and M. J. Frisch.,  J. Phys. Chem. 98, 11623 (1994) (10.1021/j100096a001)

    Deriv               =              1
    GGA                 =           TRUE
    Meta                =          FALSE

    Exchange Hybrid     =           TRUE
    MP2 Hybrid          =          FALSE

   => Exchange Functionals <=

    0.0800   Slater exchange
    0.7200         Becke 88

   => Exact (HF) Exchange <=

    0.2000               HF

   => Correlation Functionals <=

    0.1900   Vosko, Wilk & Nusair (VWN5_RPA)
    0.8100   Lee, Yang & Parr

   => LibXC Density Thresholds  <==

    XC_HYB_GGA_XC_B3LYP:  1.00E-15

   => Molecular Quadrature <=

    Radial Scheme          =       TREUTLER
    Pruning Scheme         =           NONE
    Nuclear Scheme         =       TREUTLER

    Blocking Scheme        =         OCTREE
    BS radius alpha        =              1
    Pruning alpha          =              1
    Radial Points          =             75
    Spherical Points       =            302
    Total Points           =          43577
    Total Blocks           =            422
    Max Points             =            255
    Max Functions          =             32
    Weights Tolerance      =       1.00E-15

  -Total Gradient:
     Atom            X                  Y                   Z
    ------   -----------------  -----------------  -----------------
       1       -0.000000000000     0.000000000000     0.000014893139
       2        0.000000000000    -0.000000000000     0.000014724393

*** tstop() called on Joses-MacBook-Pro-2.local at Thu Jul 17 10:58:54 2025
Module time:
	user time   =       0.73 seconds =       0.01 minutes
	system time =       1.62 seconds =       0.03 minutes
	total time  =          0 seconds =       0.00 minutes
Total time:
	user time   =      92.40 seconds =       1.54 minutes
	system time =     103.67 seconds =       1.73 minutes
	total time  =         20 seconds =       0.33 minutes

    			-----------------------------------------

    			 OPTKING 3.0: for geometry optimizations

    			     By R.A. King, Bethel University

    			        with contributions from

    			    A.V. Copan, J. Cayton, A. Heide

    			-----------------------------------------

	                            ===> Fragment 1 <==

	 Z (Atomic Numbers)          Masses                          Geom
	      10.000000            19.992440          0.00000000  0.00000000  4.19000532
	      12.000000            23.985042          0.00000000  0.00000000 -3.49252804

	 - Coordinate -           - BOHR/RAD -       - ANG/DEG -
	 R(1,2)           =         7.682533           4.065422

	        --- Internal Coordinate Step in ANG or DEG, aJ/ANG or AJ/DEG ---
	-------------------------------------------------------------------------------
	           Coordinate      Previous         Force          Change          New
	           ----------      --------        ------          ------        ------
	               R(1,2)       4.06542       -0.00000       -0.00011       4.06532
	-------------------------------------------------------------------------------

	                                 ==> Convergence Check <==

	Measures of convergence in internal coordinates in au.

	Criteria marked as inactive (o), active & met (*), and active & unmet ( ).

	----------------------------------------------------------------------------------------------
	   Step    Total Energy     Delta E     Max Force     RMS Force      Max Disp      RMS Disp
	----------------------------------------------------------------------------------------------
	  Convergence Criteria     1.00e-06 *    3.00e-04 *             o    1.20e-03 *             o
	----------------------------------------------------------------------------------------------
	    18    -328.97479398   -1.08e-06      8.44e-08 *    8.44e-08 o    2.00e-04 *    2.00e-04 o  ~
	----------------------------------------------------------------------------------------------

Next Geometry in Ang
	Fragment 1 (Ang)

	   Ne   0.0000000000   0.0000000000   2.2172024861
	   Mg   0.0000000000   0.0000000000  -1.8481134051

    Final optimized geometry and variables:
    Molecular point group: c2v
    Full point group: C_inf_v

    Geometry (in Angstrom), charge = -1, multiplicity = 2:

    NE           0.000000000000     0.000000000000     2.217255328767
    MG           0.000000000000     0.000000000000    -1.848166247770

    Psi4 stopped on: Thursday, 17 July 2025 10:58AM
    Psi4 wall time for execution: 0:00:20.97

*** Psi4 exiting successfully. Buy a developer a beer!
