                               Psi4 1.9.1 release

  ==> Input File <==

--------------------------------------------------------------------------
molecule {
-1 2
Cl   0.00000        0.60000        0.00000
Cl   0.00000       -0.60000        0.00000
}

set {
basis              cc-pvdz
reference          uks
maxiter            500
geom_maxiter       500
DAMPING_PERCENTAGE 1
guess              SAP
}

optimize('b3lyp')
--------------------------------------------------------------------------

    Molecular point group: d2h
  Charge       = -1
  Multiplicity = 2
  Basis Set: CC-PVDZ
    Blend: CC-PVDZ
  Basis Set: (CC-PVDZ AUX)
    Blend: CC-PVDZ-JKFIT
  @DF-UKS Final Energy:  -918.82744518278719
    Total Energy =                       -918.8274451827871872
 Dipole X            :          0.0000000            0.0000000            0.0000000
 Dipole Y            :          0.0000000            0.0000000            0.0000000
 Dipole Z            :          0.0000000            0.0000000            0.0000000
 Magnitude           :                                                    0.0000000
    Molecular point group: d2h
  Basis Set: CC-PVDZ
    Blend: CC-PVDZ
  Basis Set: (CC-PVDZ AUX)
    Blend: CC-PVDZ-JKFIT
  Basis Set: CC-PVDZ
    Blend: CC-PVDZ
  Basis Set: (CC-PVDZ AUX)
    Blend: CC-PVDZ-JKFIT
  @DF-UKS Final Energy:  -918.88017810176677
    Total Energy =                       -918.8801781017667736
  Basis Set: CC-PVDZ
    Blend: CC-PVDZ
  Basis Set: (CC-PVDZ AUX)
    Blend: CC-PVDZ-JKFIT
  Basis Set: CC-PVDZ
    Blend: CC-PVDZ
  @DF-UKS Final Energy:  -918.97679658576806
    Total Energy =                       -918.9767965857680565
  @DF-UKS Final Energy:  -919.28201541740577
    Total Energy =                       -919.2820154174057734
  @DF-UKS Final Energy:  -919.85490738761916
    Total Energy =                       -919.8549073876191642
  @DF-UKS Final Energy:  -920.09196860567602
    Total Energy =                       -920.0919686056760156
  @DF-UKS Final Energy:  -920.26673150181216
    Total Energy =                       -920.2667315018122736
  @DF-UKS Final Energy:  -920.38049633904473
    Total Energy =                       -920.3804963390448393
  @DF-UKS Final Energy:  -920.44394626341978
    Total Energy =                       -920.4439462634197753
  @DF-UKS Final Energy:  -920.47309521258660
    Total Energy =                       -920.4730952125865997
  @DF-UKS Final Energy:  -920.48562589679148
    Total Energy =                       -920.4856258967914755
  @DF-UKS Final Energy:  -920.49028953149514
    Total Energy =                       -920.4902895314951365
  @DF-UKS Final Energy:  -920.49164649317731
    Total Energy =                       -920.4916464931773135
  @DF-UKS Final Energy:  -920.49186664451190
    Total Energy =                       -920.4918666445119015
  @DF-UKS Final Energy:  -920.49190753111031
    Total Energy =                       -920.4919075311103143
  Basis Set: (CC-PVDZ AUX)
    Blend: CC-PVDZ-JKFIT
  Basis Set: CC-PVDZ
    Blend: CC-PVDZ
  Basis Set: (CC-PVDZ AUX)
    Blend: CC-PVDZ-JKFIT
  @DF-UKS Final Energy:  -920.49191694731599
    Total Energy =                       -920.4919169473159855
  Basis Set: CC-PVDZ
    Blend: CC-PVDZ
  Basis Set: (CC-PVDZ AUX)
    Blend: CC-PVDZ-JKFIT
  Charge       = -1
  Multiplicity = 2
  Basis Set: CC-PVDZ
    Blend: CC-PVDZ
  Basis Set: (CC-PVDZ AUX)
    Blend: CC-PVDZ-JKFIT

    Orbital Energies [Eh]
    ---------------------

    Alpha Occupied:

       1B2u -101.288588     1Ag  -101.288588     2B2u   -9.202030
       2Ag    -9.201967     3Ag    -6.967330     3B2u   -6.967329
       1B3g   -6.955509     1B1g   -6.955509     1B1u   -6.955507
       1B3u   -6.955507     4Ag    -0.560185     4B2u   -0.532508
       5Ag    -0.141979     2B1u   -0.086718     2B3u   -0.086718
       2B3g   -0.061987     2B1g   -0.061987     5B2u   -0.045364

    Alpha Virtual:

       6B2u    0.738093     3B1u    0.740891     3B3u    0.740891
       6Ag     0.776730     3B3g    0.812011     3B1g    0.812011
       7Ag     0.823567     7B2u    0.903581     8Ag     0.941009
       4B3u    0.961222     4B1u    0.961222     1B2g    0.989442
       9Ag     0.989448     1Au     0.991926     8B2u    0.991931
       4B3g    1.003400     4B1g    1.003400     9B2u    1.303659

    Beta Occupied:

       1Ag  -101.284769     1B2u -101.284769     2B2u   -9.198245
       2Ag    -9.198189     3Ag    -6.955376     3B2u   -6.955373
       1B3g   -6.953174     1B1g   -6.953174     1B1u   -6.953174
       1B3u   -6.953174     4Ag    -0.534253     4B2u   -0.505111
       5Ag    -0.087509     2B1u   -0.078315     2B3u   -0.078315
       2B3g   -0.053290     2B1g   -0.053290

    Beta Virtual:

       5B2u    0.058011     3B1u    0.744797     3B3u    0.744797
       6B2u    0.760570     6Ag     0.790728     3B3g    0.819901
       3B1g    0.819901     7Ag     0.845028     7B2u    0.933116
       8Ag     0.977975     4B3u    0.990658     4B1u    0.990658
       1B2g    0.994589     9Ag     0.994595     1Au     0.997101
       8B2u    0.997107     4B3g    1.030368     4B1g    1.030368
       9B2u    1.323572

    Final Occupation by Irrep:
             Ag   B1g   B2g   B3g    Au   B1u   B2u   B3u
    DOCC [     5,    2,    0,    2,    0,    2,    4,    2 ]
    SOCC [     0,    0,    0,    0,    0,    0,    1,    0 ]
    NA   [     5,    2,    0,    2,    0,    2,    5,    2 ]
    NB   [     5,    2,    0,    2,    0,    2,    4,    2 ]

  @DF-UKS Final Energy:  -920.49191765454930

   => Energetics <=

    Nuclear Repulsion Energy =             55.7694876273121452
    One-Electron Energy =               -1391.6534336998861363
    Two-Electron Energy =                 461.0917338291416172
    DFT Exchange-Correlation Energy =     -45.6997054111169732
    Empirical Dispersion Energy =           0.0000000000000000
    VV10 Nonlocal Energy =                  0.0000000000000000
    Total Energy =                       -920.4919176545492974

  UHF NO Occupations:
  HONO-2 :    4B2u 1.9997818
  HONO-1 :    5 Ag 1.9993782
  HONO-0 :    5B2u 1.0000000
  LUNO+0 :    6 Ag 0.0006218
  LUNO+1 :    6B2u 0.0002182
  LUNO+2 :    7 Ag 0.0001878
  LUNO+3 :    3B3u 0.0000206

Computation Completed

Properties will be evaluated at   0.000000,   0.000000,   0.000000 [a0]

Properties computed using the SCF density matrix

 Multipole Moments:

 ------------------------------------------------------------------------------------
     Multipole            Electronic (a.u.)      Nuclear  (a.u.)        Total (a.u.)
 ------------------------------------------------------------------------------------

 L = 1.  Multiply by 2.5417464519 to convert [e a0] to [Debye]
 Dipole X            :          0.0000000            0.0000000            0.0000000
 Dipole Y            :          0.0000000            0.0000000            0.0000000
 Dipole Z            :          0.0000000            0.0000000            0.0000000
 Magnitude           :                                                    0.0000000

 ------------------------------------------------------------------------------------

*** tstop() called on Joses-MacBook-Pro-2.local at Thu Jul 17 12:09:58 2025
Module time:
	user time   =       7.38 seconds =       0.12 minutes
	system time =       1.99 seconds =       0.03 minutes
	total time  =          1 seconds =       0.02 minutes
Total time:
	user time   =     409.27 seconds =       6.82 minutes
	system time =      67.86 seconds =       1.13 minutes
	total time  =         48 seconds =       0.80 minutes

*** tstart() called on Joses-MacBook-Pro-2.local
*** at Thu Jul 17 12:09:58 2025

         ------------------------------------------------------------
                                   SCF GRAD
                          Rob Parrish, Justin Turney,
                       Andy Simmonett, and Alex Sokolov
         ------------------------------------------------------------

  ==> Geometry <==

    Molecular point group: d2h
    Full point group: D_inf_h

    Geometry (in Angstrom), charge = -1, multiplicity = 2:

       Center              X                  Y                   Z               Mass
    ------------   -----------------  -----------------  -----------------  -----------------
         CL          -0.000000000000     1.371110085372     0.000000000000    34.968852682000
         CL           0.000000000000    -1.371110085372     0.000000000000    34.968852682000

  Nuclear repulsion =   55.769487627312145

  ==> Basis Set <==

  Basis Set: CC-PVDZ
    Blend: CC-PVDZ
    Number of shells: 16
    Number of basis functions: 36
    Number of Cartesian functions: 38
    Spherical Harmonics?: true
    Max angular momentum: 2

  ==> DFJKGrad: Density-Fitted SCF Gradients <==

    Gradient:                    1
    J tasked:                  Yes
    K tasked:                  Yes
    wK tasked:                  No
    OpenMP threads:              1
    Integrals threads:           1
    Memory [MiB]:              375
    Schwarz Cutoff:          1E-12
    Fitting Condition:       1E-10

   => Auxiliary Basis Set <=

  Basis Set: (CC-PVDZ AUX)
    Blend: CC-PVDZ-JKFIT
    Number of shells: 72
    Number of basis functions: 224
    Number of Cartesian functions: 260
    Spherical Harmonics?: true
    Max angular momentum: 3

  ==> DFT Potential <==

   => LibXC <=

    Version 6.2.2
    S. Lehtola, C. Steigemann, M. J.T. Oliveira, and M. A.L. Marques.,  SoftwareX 7, 1â€“5 (2018) (10.1016/j.softx.2017.11.002)

   => Composite Functional: B3LYP <=

    B3LYP Hyb-GGA Exchange-Correlation Functional

    P. J. Stephens, F. J. Devlin, C. F. Chabalowski, and M. J. Frisch.,  J. Phys. Chem. 98, 11623 (1994) (10.1021/j100096a001)

    Deriv               =              1
    GGA                 =           TRUE
    Meta                =          FALSE

    Exchange Hybrid     =           TRUE
    MP2 Hybrid          =          FALSE

   => Exchange Functionals <=

    0.0800   Slater exchange
    0.7200         Becke 88

   => Exact (HF) Exchange <=

    0.2000               HF

   => Correlation Functionals <=

    0.1900   Vosko, Wilk & Nusair (VWN5_RPA)
    0.8100   Lee, Yang & Parr

   => LibXC Density Thresholds  <==

    XC_HYB_GGA_XC_B3LYP:  1.00E-15

   => Molecular Quadrature <=

    Radial Scheme          =       TREUTLER
    Pruning Scheme         =           NONE
    Nuclear Scheme         =       TREUTLER

    Blocking Scheme        =         OCTREE
    BS radius alpha        =              1
    Pruning alpha          =              1
    Radial Points          =             75
    Spherical Points       =            302
    Total Points           =          39758
    Total Blocks           =            372
    Max Points             =            256
    Max Functions          =             36
    Weights Tolerance      =       1.00E-15

  -Total Gradient:
     Atom            X                  Y                   Z
    ------   -----------------  -----------------  -----------------
       1        0.000000000000    -0.000068221177     0.000000000000
       2       -0.000000000000     0.000068221177     0.000000000000

*** tstop() called on Joses-MacBook-Pro-2.local at Thu Jul 17 12:09:59 2025
Module time:
	user time   =       5.48 seconds =       0.09 minutes
	system time =       0.86 seconds =       0.01 minutes
	total time  =          1 seconds =       0.02 minutes
Total time:
	user time   =     414.75 seconds =       6.91 minutes
	system time =      68.72 seconds =       1.15 minutes
	total time  =         49 seconds =       0.82 minutes

    			-----------------------------------------

    			 OPTKING 3.0: for geometry optimizations

    			     By R.A. King, Bethel University

    			        with contributions from

    			    A.V. Copan, J. Cayton, A. Heide

    			-----------------------------------------

	                            ===> Fragment 1 <==

	 Z (Atomic Numbers)          Masses                          Geom
	      17.000000            34.968853         -0.00000000  2.59102255  0.00000000
	      17.000000            34.968853          0.00000000 -2.59102255  0.00000000

	 - Coordinate -           - BOHR/RAD -       - ANG/DEG -
	 R(1,2)           =         5.182045           2.742220

	        --- Internal Coordinate Step in ANG or DEG, aJ/ANG or AJ/DEG ---
	-------------------------------------------------------------------------------
	           Coordinate      Previous         Force          Change          New
	           ----------      --------        ------          ------        ------
	               R(1,2)       2.74222        0.00056        0.00114       2.74336
	-------------------------------------------------------------------------------

	                                 ==> Convergence Check <==

	Measures of convergence in internal coordinates in au.

	Criteria marked as inactive (o), active & met (*), and active & unmet ( ).

	----------------------------------------------------------------------------------------------
	   Step    Total Energy     Delta E     Max Force     RMS Force      Max Disp      RMS Disp
	----------------------------------------------------------------------------------------------
	  Convergence Criteria     1.00e-06 *    3.00e-04 *             o    1.20e-03 *             o
	----------------------------------------------------------------------------------------------
	    17    -920.49191765   -7.07e-07 *    6.82e-05 *    6.82e-05 o    2.15e-03      2.15e-03 o  ~
	----------------------------------------------------------------------------------------------

Next Geometry in Ang
	Fragment 1 (Ang)

	   Cl  -0.0000000000   1.3716780924   0.0000000000
	   Cl   0.0000000000  -1.3716780924   0.0000000000

    Final optimized geometry and variables:
    Molecular point group: d2h
    Full point group: D_inf_h

    Geometry (in Angstrom), charge = -1, multiplicity = 2:

    CL          -0.000000000000     1.371110085372     0.000000000000
    CL           0.000000000000    -1.371110085372     0.000000000000

    Psi4 stopped on: Thursday, 17 July 2025 12:09PM
    Psi4 wall time for execution: 0:00:49.42

*** Psi4 exiting successfully. Buy a developer a beer!
