                               Psi4 1.9.1 release

  ==> Input File <==

--------------------------------------------------------------------------
molecule {
-1 2
Be   0.00000        0.60000        0.00000
Be   0.00000       -0.60000        0.00000
}

set {
basis              cc-pvdz
reference          uks
maxiter            500
geom_maxiter       500
DAMPING_PERCENTAGE 1
guess              SAP
}

optimize('b3lyp')
--------------------------------------------------------------------------

    Molecular point group: d2h
  Charge       = -1
  Multiplicity = 2
  Basis Set: CC-PVDZ
    Blend: CC-PVDZ
  Basis Set: (CC-PVDZ AUX)
    Blend: DEF2-UNIVERSAL-JKFIT
  @DF-UKS Final Energy:   -29.09130019446793
    Total Energy =                        -29.0913001944679266
 Dipole X            :          0.0000000            0.0000000            0.0000000
 Dipole Y            :          0.0000000            0.0000000            0.0000000
 Dipole Z            :          0.0000000            0.0000000            0.0000000
 Magnitude           :                                                    0.0000000
    Molecular point group: d2h
  Basis Set: CC-PVDZ
    Blend: CC-PVDZ
  Basis Set: (CC-PVDZ AUX)
    Blend: DEF2-UNIVERSAL-JKFIT
  Basis Set: CC-PVDZ
    Blend: CC-PVDZ
  Basis Set: (CC-PVDZ AUX)
    Blend: DEF2-UNIVERSAL-JKFIT
  @DF-UKS Final Energy:   -29.18961134920168
    Total Energy =                        -29.1896113492016767
  Basis Set: CC-PVDZ
    Blend: CC-PVDZ
  Basis Set: (CC-PVDZ AUX)
    Blend: DEF2-UNIVERSAL-JKFIT
  Basis Set: CC-PVDZ
    Blend: CC-PVDZ
  @DF-UKS Final Energy:   -29.28771405980815
    Total Energy =                        -29.2877140598081525
  @DF-UKS Final Energy:   -29.35648628682290
    Total Energy =                        -29.3564862868229035
  @DF-UKS Final Energy:   -29.35963207963805
    Total Energy =                        -29.3596320796380539
  @DF-UKS Final Energy:   -29.36265918916271
    Total Energy =                        -29.3626591891627093
  @DF-UKS Final Energy:   -29.36308918436788
    Total Energy =                        -29.3630891843678832
  @DF-UKS Final Energy:   -29.36315926019560
    Total Energy =                        -29.3631592601956015
  @DF-UKS Final Energy:   -29.36317186410333
    Total Energy =                        -29.3631718641033324
  Basis Set: (CC-PVDZ AUX)
    Blend: DEF2-UNIVERSAL-JKFIT
  Basis Set: CC-PVDZ
    Blend: CC-PVDZ
  Basis Set: (CC-PVDZ AUX)
    Blend: DEF2-UNIVERSAL-JKFIT
  @DF-UKS Final Energy:   -29.36317442827157
    Total Energy =                        -29.3631744282715701
  Basis Set: CC-PVDZ
    Blend: CC-PVDZ
  Basis Set: (CC-PVDZ AUX)
    Blend: DEF2-UNIVERSAL-JKFIT
  Charge       = -1
  Multiplicity = 2
  Basis Set: CC-PVDZ
    Blend: CC-PVDZ
  Basis Set: (CC-PVDZ AUX)
    Blend: DEF2-UNIVERSAL-JKFIT

    Orbital Energies [Eh]
    ---------------------

    Alpha Occupied:

       1Ag    -3.852303     1B2u   -3.852246     2Ag    -0.102079
       2B2u    0.011983     1B1u    0.054236

    Alpha Virtual:

       1B3u    0.106148     3Ag     0.110235     1B3g    0.171466
       1B1g    0.183455     3B2u    0.256307     4Ag     0.341373
       2B1u    0.356237     2B3u    0.366836     5Ag     0.369642
       2B3g    0.396769     2B1g    0.405888     4B2u    0.429733
       5B2u    0.541462     1B2g    0.621066     3B1u    0.622663
       6Ag     0.624035     3B3u    0.631347     1Au     0.735367
       6B2u    0.738240     7Ag     0.866968     3B3g    0.919179
       3B1g    0.925488     7B2u    1.041336

    Beta Occupied:

       1Ag    -3.850727     1B2u   -3.850691     2Ag    -0.083410
       2B2u    0.020939

    Beta Virtual:

       1B3u    0.109729     3Ag     0.111977     1B1u    0.125992
       1B1g    0.185182     1B3g    0.197909     3B2u    0.260929
       4Ag     0.344959     2B3u    0.367167     5Ag     0.377302
       2B1u    0.378920     2B1g    0.405902     2B3g    0.417355
       4B2u    0.432626     5B2u    0.550280     3B3u    0.630532
       1B2g    0.644107     6Ag     0.644147     3B1u    0.645929
       1Au     0.755882     6B2u    0.756090     7Ag     0.874776
       3B1g    0.924853     3B3g    0.939542     7B2u    1.043488

    Final Occupation by Irrep:
             Ag   B1g   B2g   B3g    Au   B1u   B2u   B3u
    DOCC [     2,    0,    0,    0,    0,    0,    2,    0 ]
    SOCC [     0,    0,    0,    0,    0,    1,    0,    0 ]
    NA   [     2,    0,    0,    0,    0,    1,    2,    0 ]
    NB   [     2,    0,    0,    0,    0,    0,    2,    0 ]

  @DF-UKS Final Energy:   -29.36317478961046

   => Energetics <=

    Nuclear Repulsion Energy =              3.7819964090927907
    One-Electron Energy =                 -47.4186864566834601
    Two-Electron Energy =                  18.9269045232100517
    DFT Exchange-Correlation Energy =      -4.6533892652298396
    Empirical Dispersion Energy =           0.0000000000000000
    VV10 Nonlocal Energy =                  0.0000000000000000
    Total Energy =                        -29.3631747896104578

  UHF NO Occupations:
  HONO-2 :    2 Ag 1.9992103
  HONO-1 :    2B2u 1.9989888
  HONO-0 :    1B1u 1.0000000
  LUNO+0 :    3B2u 0.0010112
  LUNO+1 :    3 Ag 0.0007897
  LUNO+2 :    4B2u 0.0000000
  LUNO+3 :    4 Ag 0.0000000

Computation Completed

Properties will be evaluated at   0.000000,   0.000000,   0.000000 [a0]

Properties computed using the SCF density matrix

 Multipole Moments:

 ------------------------------------------------------------------------------------
     Multipole            Electronic (a.u.)      Nuclear  (a.u.)        Total (a.u.)
 ------------------------------------------------------------------------------------

 L = 1.  Multiply by 2.5417464519 to convert [e a0] to [Debye]
 Dipole X            :          0.0000000            0.0000000            0.0000000
 Dipole Y            :          0.0000000            0.0000000            0.0000000
 Dipole Z            :          0.0000000            0.0000000            0.0000000
 Magnitude           :                                                    0.0000000

 ------------------------------------------------------------------------------------

*** tstop() called on Joses-MacBook-Pro-2.local at Thu Jul 17 09:38:47 2025
Module time:
	user time   =       2.54 seconds =       0.04 minutes
	system time =       3.03 seconds =       0.05 minutes
	total time  =          1 seconds =       0.02 minutes
Total time:
	user time   =      42.92 seconds =       0.72 minutes
	system time =      51.23 seconds =       0.85 minutes
	total time  =          9 seconds =       0.15 minutes

*** tstart() called on Joses-MacBook-Pro-2.local
*** at Thu Jul 17 09:38:47 2025

         ------------------------------------------------------------
                                   SCF GRAD
                          Rob Parrish, Justin Turney,
                       Andy Simmonett, and Alex Sokolov
         ------------------------------------------------------------

  ==> Geometry <==

    Molecular point group: d2h
    Full point group: D_inf_h

    Geometry (in Angstrom), charge = -1, multiplicity = 2:

       Center              X                  Y                   Z               Mass
    ------------   -----------------  -----------------  -----------------  -----------------
         BE          -0.000000000000     1.119360577705     0.000000000000     9.012183065000
         BE           0.000000000000    -1.119360577705     0.000000000000     9.012183065000

  Nuclear repulsion =    3.781996409092791

  ==> Basis Set <==

  Basis Set: CC-PVDZ
    Blend: CC-PVDZ
    Number of shells: 12
    Number of basis functions: 28
    Number of Cartesian functions: 30
    Spherical Harmonics?: true
    Max angular momentum: 2

  ==> DFJKGrad: Density-Fitted SCF Gradients <==

    Gradient:                    1
    J tasked:                  Yes
    K tasked:                  Yes
    wK tasked:                  No
    OpenMP threads:              1
    Integrals threads:           1
    Memory [MiB]:              375
    Schwarz Cutoff:          1E-12
    Fitting Condition:       1E-10

   => Auxiliary Basis Set <=

  Basis Set: (CC-PVDZ AUX)
    Blend: DEF2-UNIVERSAL-JKFIT
    Number of shells: 34
    Number of basis functions: 102
    Number of Cartesian functions: 120
    Spherical Harmonics?: true
    Max angular momentum: 3

  ==> DFT Potential <==

   => LibXC <=

    Version 6.2.2
    S. Lehtola, C. Steigemann, M. J.T. Oliveira, and M. A.L. Marques.,  SoftwareX 7, 1â€“5 (2018) (10.1016/j.softx.2017.11.002)

   => Composite Functional: B3LYP <=

    B3LYP Hyb-GGA Exchange-Correlation Functional

    P. J. Stephens, F. J. Devlin, C. F. Chabalowski, and M. J. Frisch.,  J. Phys. Chem. 98, 11623 (1994) (10.1021/j100096a001)

    Deriv               =              1
    GGA                 =           TRUE
    Meta                =          FALSE

    Exchange Hybrid     =           TRUE
    MP2 Hybrid          =          FALSE

   => Exchange Functionals <=

    0.0800   Slater exchange
    0.7200         Becke 88

   => Exact (HF) Exchange <=

    0.2000               HF

   => Correlation Functionals <=

    0.1900   Vosko, Wilk & Nusair (VWN5_RPA)
    0.8100   Lee, Yang & Parr

   => LibXC Density Thresholds  <==

    XC_HYB_GGA_XC_B3LYP:  1.00E-15

   => Molecular Quadrature <=

    Radial Scheme          =       TREUTLER
    Pruning Scheme         =           NONE
    Nuclear Scheme         =       TREUTLER

    Blocking Scheme        =         OCTREE
    BS radius alpha        =              1
    Pruning alpha          =              1
    Radial Points          =             75
    Spherical Points       =            302
    Total Points           =          42568
    Total Blocks           =            390
    Max Points             =            255
    Max Functions          =             28
    Weights Tolerance      =       1.00E-15

  -Total Gradient:
     Atom            X                  Y                   Z
    ------   -----------------  -----------------  -----------------
       1        0.000000000000    -0.000026933052     0.000000000000
       2       -0.000000000000     0.000026933052     0.000000000000

*** tstop() called on Joses-MacBook-Pro-2.local at Thu Jul 17 09:38:47 2025
Module time:
	user time   =       0.66 seconds =       0.01 minutes
	system time =       1.13 seconds =       0.02 minutes
	total time  =          0 seconds =       0.00 minutes
Total time:
	user time   =      43.58 seconds =       0.73 minutes
	system time =      52.36 seconds =       0.87 minutes
	total time  =          9 seconds =       0.15 minutes

    			-----------------------------------------

    			 OPTKING 3.0: for geometry optimizations

    			     By R.A. King, Bethel University

    			        with contributions from

    			    A.V. Copan, J. Cayton, A. Heide

    			-----------------------------------------

	                            ===> Fragment 1 <==

	 Z (Atomic Numbers)          Masses                          Geom
	       4.000000             9.012183         -0.00000000  2.11528493  0.00000000
	       4.000000             9.012183          0.00000000 -2.11528493  0.00000000

	 - Coordinate -           - BOHR/RAD -       - ANG/DEG -
	 R(1,2)           =         4.230570           2.238721

	        --- Internal Coordinate Step in ANG or DEG, aJ/ANG or AJ/DEG ---
	-------------------------------------------------------------------------------
	           Coordinate      Previous         Force          Change          New
	           ----------      --------        ------          ------        ------
	               R(1,2)       2.23872        0.00022        0.00040       2.23912
	-------------------------------------------------------------------------------

	                                 ==> Convergence Check <==

	Measures of convergence in internal coordinates in au.

	Criteria marked as inactive (o), active & met (*), and active & unmet ( ).

	----------------------------------------------------------------------------------------------
	   Step    Total Energy     Delta E     Max Force     RMS Force      Max Disp      RMS Disp
	----------------------------------------------------------------------------------------------
	  Convergence Criteria     1.00e-06 *    3.00e-04 *             o    1.20e-03 *             o
	----------------------------------------------------------------------------------------------
	    11     -29.36317479   -3.61e-07 *    2.69e-05 *    2.69e-05 o    7.46e-04 *    7.46e-04 o  ~
	----------------------------------------------------------------------------------------------

Next Geometry in Ang
	Fragment 1 (Ang)

	   Be  -0.0000000000   1.1195580800   0.0000000000
	   Be   0.0000000000  -1.1195580800   0.0000000000

    Final optimized geometry and variables:
    Molecular point group: d2h
    Full point group: D_inf_h

    Geometry (in Angstrom), charge = -1, multiplicity = 2:

    BE          -0.000000000000     1.119360577705     0.000000000000
    BE           0.000000000000    -1.119360577705     0.000000000000

    Psi4 stopped on: Thursday, 17 July 2025 09:38AM
    Psi4 wall time for execution: 0:00:09.73

*** Psi4 exiting successfully. Buy a developer a beer!
