                               Psi4 1.9.1 release

  ==> Input File <==

--------------------------------------------------------------------------
molecule {
-1 2
N   0.00000        0.60000        0.00000
Al   0.00000       -0.60000        0.00000
}

set {
basis              cc-pvdz
reference          uks
maxiter            500
geom_maxiter       500
DAMPING_PERCENTAGE 1
guess              SAP
}

optimize('b3lyp')
--------------------------------------------------------------------------

    Molecular point group: c2v
  Charge       = -1
  Multiplicity = 2
  Basis Set: CC-PVDZ
    Blend: CC-PVDZ
  Basis Set: (CC-PVDZ AUX)
    Blend: CC-PVDZ-JKFIT
  @DF-UKS Final Energy:  -296.75416069743108
    Total Energy =                       -296.7541606974310753
 Dipole X            :          0.0000000            0.0000000            0.0000000
 Dipole Y            :          0.0000000            0.0000000            0.0000000
 Dipole Z            :         -0.1722674            0.3779474            0.2056800
 Magnitude           :                                                    0.2056800
    Molecular point group: c2v
  Basis Set: CC-PVDZ
    Blend: CC-PVDZ
  Basis Set: (CC-PVDZ AUX)
    Blend: CC-PVDZ-JKFIT
  Basis Set: CC-PVDZ
    Blend: CC-PVDZ
  Basis Set: (CC-PVDZ AUX)
    Blend: CC-PVDZ-JKFIT
  @DF-UKS Final Energy:  -296.96541032953928
    Total Energy =                       -296.9654103295393384
  Basis Set: CC-PVDZ
    Blend: CC-PVDZ
  Basis Set: (CC-PVDZ AUX)
    Blend: CC-PVDZ-JKFIT
  Basis Set: CC-PVDZ
    Blend: CC-PVDZ
  @DF-UKS Final Energy:  -297.06427789971224
    Total Energy =                       -297.0642778997121809
  @DF-UKS Final Energy:  -297.09518830043720
    Total Energy =                       -297.0951883004372007
  @DF-UKS Final Energy:  -297.11054919123922
    Total Energy =                       -297.1105491912392154
  @DF-UKS Final Energy:  -297.11633544488188
    Total Energy =                       -297.1163354448818836
  @DF-UKS Final Energy:  -297.11746870159692
    Total Energy =                       -297.1174687015969198
  @DF-UKS Final Energy:  -297.11772012257688
    Total Energy =                       -297.1177201225769409
  @DF-UKS Final Energy:  -297.11778774604073
    Total Energy =                       -297.1177877460407331
  Basis Set: (CC-PVDZ AUX)
    Blend: CC-PVDZ-JKFIT
  Basis Set: CC-PVDZ
    Blend: CC-PVDZ
  Basis Set: (CC-PVDZ AUX)
    Blend: CC-PVDZ-JKFIT
  @DF-UKS Final Energy:  -297.11779819163553
    Total Energy =                       -297.1177981916355293
  Basis Set: CC-PVDZ
    Blend: CC-PVDZ
  Basis Set: (CC-PVDZ AUX)
    Blend: CC-PVDZ-JKFIT
  Charge       = -1
  Multiplicity = 2
  Basis Set: CC-PVDZ
    Blend: CC-PVDZ
  Basis Set: (CC-PVDZ AUX)
    Blend: CC-PVDZ-JKFIT

    Orbital Energies [Eh]
    ---------------------

    Alpha Occupied:

       1A1   -55.800428     2A1   -14.081122     3A1    -3.886952
       4A1    -2.440457     1B1    -2.438880     1B2    -2.438880
       5A1    -0.480993     6A1    -0.109968     7A1    -0.010075
       2B1    -0.006343     2B2    -0.006343

    Alpha Virtual:

       3B1     0.176679     3B2     0.176679     8A1     0.241096
       9A1     0.370126     4B1     0.432251     4B2     0.432251
      10A1     0.487802    11A1     0.502813     1A2     0.502813
       5B1     0.578041     5B2     0.578041    12A1     0.785620
      13A1     1.050259     6B1     1.060893     6B2     1.060893
      14A1     1.515554    15A1     2.059492     2A2     2.059495
       7B2     2.132139     7B1     2.132139    16A1     2.420920

    Beta Occupied:

       1A1   -55.799925     2A1   -14.062349     3A1    -3.886483
       1B1    -2.439405     1B2    -2.439405     4A1    -2.436452
       5A1    -0.419903     6A1    -0.053313     2B1     0.018669
       2B2     0.018669

    Beta Virtual:

       7A1     0.109304     3B1     0.187401     3B2     0.187401
       8A1     0.248293     9A1     0.377692     4B1     0.430314
       4B2     0.430314    10A1     0.495328     1A2     0.495328
      11A1     0.510091     5B2     0.588507     5B1     0.588507
      12A1     0.804765     6B1     1.082973     6B2     1.082973
      13A1     1.114705    14A1     1.553666    15A1     2.084092
       2A2     2.084095     7B2     2.191212     7B1     2.191212
      16A1     2.480030

    Final Occupation by Irrep:
             A1    A2    B1    B2
    DOCC [     6,    0,    2,    2 ]
    SOCC [     1,    0,    0,    0 ]
    NA   [     7,    0,    2,    2 ]
    NB   [     6,    0,    2,    2 ]

  @DF-UKS Final Energy:  -297.11779886036891

   => Energetics <=

    Nuclear Repulsion Energy =             27.8739971811432419
    One-Electron Energy =                -471.9753584718051798
    Two-Electron Energy =                 167.6900399060201607
    DFT Exchange-Correlation Energy =     -20.7064774757271373
    Empirical Dispersion Energy =           0.0000000000000000
    VV10 Nonlocal Energy =                  0.0000000000000000
    Total Energy =                       -297.1177988603689073

  UHF NO Occupations:
  HONO-2 :    2 B2 1.9903299
  HONO-1 :    2 B1 1.9903299
  HONO-0 :    7 A1 1.0000000
  LUNO+0 :    3 B2 0.0096701
  LUNO+1 :    3 B1 0.0096701
  LUNO+2 :    8 A1 0.0034456
  LUNO+3 :    9 A1 0.0004114

Computation Completed

Properties will be evaluated at   0.000000,   0.000000,   0.000000 [a0]

Properties computed using the SCF density matrix

 Multipole Moments:

 ------------------------------------------------------------------------------------
     Multipole            Electronic (a.u.)      Nuclear  (a.u.)        Total (a.u.)
 ------------------------------------------------------------------------------------

 L = 1.  Multiply by 2.5417464519 to convert [e a0] to [Debye]
 Dipole X            :          0.0000000            0.0000000            0.0000000
 Dipole Y            :          0.0000000            0.0000000            0.0000000
 Dipole Z            :         -0.9031032            0.5441183           -0.3589849
 Magnitude           :                                                    0.3589849

 ------------------------------------------------------------------------------------

*** tstop() called on Joses-MacBook-Pro-2.local at Thu Jul 17 10:30:25 2025
Module time:
	user time   =       3.45 seconds =       0.06 minutes
	system time =       3.94 seconds =       0.07 minutes
	total time  =          1 seconds =       0.02 minutes
Total time:
	user time   =      66.04 seconds =       1.10 minutes
	system time =      67.99 seconds =       1.13 minutes
	total time  =         13 seconds =       0.22 minutes

*** tstart() called on Joses-MacBook-Pro-2.local
*** at Thu Jul 17 10:30:25 2025

         ------------------------------------------------------------
                                   SCF GRAD
                          Rob Parrish, Justin Turney,
                       Andy Simmonett, and Alex Sokolov
         ------------------------------------------------------------

  ==> Geometry <==

    Molecular point group: c2v
    Full point group: C_inf_v

    Geometry (in Angstrom), charge = -1, multiplicity = 2:

       Center              X                  Y                   Z               Mass
    ------------   -----------------  -----------------  -----------------  -----------------
         N            0.000000000000     0.000000000000     1.137336952727    14.003074004430
         AL           0.000000000000     0.000000000000    -0.590263357269    26.981538530000

  Nuclear repulsion =   27.873997181143242

  ==> Basis Set <==

  Basis Set: CC-PVDZ
    Blend: CC-PVDZ
    Number of shells: 14
    Number of basis functions: 32
    Number of Cartesian functions: 34
    Spherical Harmonics?: true
    Max angular momentum: 2

  ==> DFJKGrad: Density-Fitted SCF Gradients <==

    Gradient:                    1
    J tasked:                  Yes
    K tasked:                  Yes
    wK tasked:                  No
    OpenMP threads:              1
    Integrals threads:           1
    Memory [MiB]:              375
    Schwarz Cutoff:          1E-12
    Fitting Condition:       1E-10

   => Auxiliary Basis Set <=

  Basis Set: (CC-PVDZ AUX)
    Blend: CC-PVDZ-JKFIT
    Number of shells: 60
    Number of basis functions: 182
    Number of Cartesian functions: 211
    Spherical Harmonics?: true
    Max angular momentum: 3

  ==> DFT Potential <==

   => LibXC <=

    Version 6.2.2
    S. Lehtola, C. Steigemann, M. J.T. Oliveira, and M. A.L. Marques.,  SoftwareX 7, 1â€“5 (2018) (10.1016/j.softx.2017.11.002)

   => Composite Functional: B3LYP <=

    B3LYP Hyb-GGA Exchange-Correlation Functional

    P. J. Stephens, F. J. Devlin, C. F. Chabalowski, and M. J. Frisch.,  J. Phys. Chem. 98, 11623 (1994) (10.1021/j100096a001)

    Deriv               =              1
    GGA                 =           TRUE
    Meta                =          FALSE

    Exchange Hybrid     =           TRUE
    MP2 Hybrid          =          FALSE

   => Exchange Functionals <=

    0.0800   Slater exchange
    0.7200         Becke 88

   => Exact (HF) Exchange <=

    0.2000               HF

   => Correlation Functionals <=

    0.1900   Vosko, Wilk & Nusair (VWN5_RPA)
    0.8100   Lee, Yang & Parr

   => LibXC Density Thresholds  <==

    XC_HYB_GGA_XC_B3LYP:  1.00E-15

   => Molecular Quadrature <=

    Radial Scheme          =       TREUTLER
    Pruning Scheme         =           NONE
    Nuclear Scheme         =       TREUTLER

    Blocking Scheme        =         OCTREE
    BS radius alpha        =              1
    Pruning alpha          =              1
    Radial Points          =             75
    Spherical Points       =            302
    Total Points           =          43457
    Total Blocks           =            404
    Max Points             =            254
    Max Functions          =             32
    Weights Tolerance      =       1.00E-15

  -Total Gradient:
     Atom            X                  Y                   Z
    ------   -----------------  -----------------  -----------------
       1       -0.000000000000     0.000000000000    -0.000090513419
       2        0.000000000000     0.000000000000     0.000063667786

*** tstop() called on Joses-MacBook-Pro-2.local at Thu Jul 17 10:30:25 2025
Module time:
	user time   =       0.91 seconds =       0.02 minutes
	system time =       1.40 seconds =       0.02 minutes
	total time  =          0 seconds =       0.00 minutes
Total time:
	user time   =      66.95 seconds =       1.12 minutes
	system time =      69.39 seconds =       1.16 minutes
	total time  =         13 seconds =       0.22 minutes

    			-----------------------------------------

    			 OPTKING 3.0: for geometry optimizations

    			     By R.A. King, Bethel University

    			        with contributions from

    			    A.V. Copan, J. Cayton, A. Heide

    			-----------------------------------------

	                            ===> Fragment 1 <==

	 Z (Atomic Numbers)          Masses                          Geom
	       7.000000            14.003074          0.00000000  0.00000000  2.14925535
	      13.000000            26.981539          0.00000000  0.00000000 -1.11543609

	 - Coordinate -           - BOHR/RAD -       - ANG/DEG -
	 R(1,2)           =         3.264691           1.727600

	        --- Internal Coordinate Step in ANG or DEG, aJ/ANG or AJ/DEG ---
	-------------------------------------------------------------------------------
	           Coordinate      Previous         Force          Change          New
	           ----------      --------        ------          ------        ------
	               R(1,2)       1.72760        0.00064        0.00014       1.72774
	-------------------------------------------------------------------------------

	                                 ==> Convergence Check <==

	Measures of convergence in internal coordinates in au.

	Criteria marked as inactive (o), active & met (*), and active & unmet ( ).

	----------------------------------------------------------------------------------------------
	   Step    Total Energy     Delta E     Max Force     RMS Force      Max Disp      RMS Disp
	----------------------------------------------------------------------------------------------
	  Convergence Criteria     1.00e-06 *    3.00e-04 *             o    1.20e-03 *             o
	----------------------------------------------------------------------------------------------
	    11    -297.11779886   -6.69e-07 *    7.71e-05 *    7.71e-05 o    2.70e-04 *    2.70e-04 o  ~
	----------------------------------------------------------------------------------------------

Next Geometry in Ang
	Fragment 1 (Ang)

	    N   0.0000000000   0.0000000000   1.1374083560
	   Al   0.0000000000   0.0000000000  -0.5903347605

    Final optimized geometry and variables:
    Molecular point group: c2v
    Full point group: C_inf_v

    Geometry (in Angstrom), charge = -1, multiplicity = 2:

    N            0.000000000000     0.000000000000     1.137336952727
    AL           0.000000000000     0.000000000000    -0.590263357269

    Psi4 stopped on: Thursday, 17 July 2025 10:30AM
    Psi4 wall time for execution: 0:00:14.10

*** Psi4 exiting successfully. Buy a developer a beer!
