                               Psi4 1.9.1 release

  ==> Input File <==

--------------------------------------------------------------------------
molecule {
-1 2
Li   0.00000        0.60000        0.00000
Cl   0.00000       -0.60000        0.00000
}

set {
basis              cc-pvdz
reference          uks
maxiter            500
geom_maxiter       500
DAMPING_PERCENTAGE 1
guess              SAP
}

optimize('b3lyp')
--------------------------------------------------------------------------

    Molecular point group: c2v
  Charge       = -1
  Multiplicity = 2
  Basis Set: CC-PVDZ
    Blend: CC-PVDZ
  Basis Set: (CC-PVDZ AUX)
    Blend: CC-PVDZ-JKFIT + DEF2-UNIVERSAL-JKFIT
  @DF-UKS Final Energy:  -467.36025827527567
    Total Energy =                       -467.3602582752756689
 Dipole X            :          0.0000000            0.0000000            0.0000000
 Dipole Y            :          0.0000000            0.0000000            0.0000000
 Dipole Z            :         -1.5700321           -0.7759044           -2.3459365
 Magnitude           :                                                    2.3459365
    Molecular point group: c2v
  Basis Set: CC-PVDZ
    Blend: CC-PVDZ
  Basis Set: (CC-PVDZ AUX)
    Blend: CC-PVDZ-JKFIT + DEF2-UNIVERSAL-JKFIT
  Basis Set: CC-PVDZ
    Blend: CC-PVDZ
  Basis Set: (CC-PVDZ AUX)
    Blend: CC-PVDZ-JKFIT + DEF2-UNIVERSAL-JKFIT
  @DF-UKS Final Energy:  -467.55170152965565
    Total Energy =                       -467.5517015296555883
  Basis Set: CC-PVDZ
    Blend: CC-PVDZ
  Basis Set: (CC-PVDZ AUX)
    Blend: CC-PVDZ-JKFIT + DEF2-UNIVERSAL-JKFIT
  Basis Set: CC-PVDZ
    Blend: CC-PVDZ
  @DF-UKS Final Energy:  -467.69547375870098
    Total Energy =                       -467.6954737587009845
  @DF-UKS Final Energy:  -467.77852972092052
    Total Energy =                       -467.7785297209205169
  @DF-UKS Final Energy:  -467.81649536036912
    Total Energy =                       -467.8164953603692311
  @DF-UKS Final Energy:  -467.83308891512354
    Total Energy =                       -467.8330889151235397
  @DF-UKS Final Energy:  -467.83917386099921
    Total Energy =                       -467.8391738609992103
  @DF-UKS Final Energy:  -467.84054039452980
    Total Energy =                       -467.8405403945297962
  @DF-UKS Final Energy:  -467.84095877017029
    Total Energy =                       -467.8409587701702890
  @DF-UKS Final Energy:  -467.84101660477319
    Total Energy =                       -467.8410166047731877
  @DF-UKS Final Energy:  -467.84102503260857
    Total Energy =                       -467.8410250326085702
  Basis Set: (CC-PVDZ AUX)
    Blend: CC-PVDZ-JKFIT + DEF2-UNIVERSAL-JKFIT
  Basis Set: CC-PVDZ
    Blend: CC-PVDZ
  Basis Set: (CC-PVDZ AUX)
    Blend: CC-PVDZ-JKFIT + DEF2-UNIVERSAL-JKFIT
  @DF-UKS Final Energy:  -467.84102637306586
    Total Energy =                       -467.8410263730658585
  Basis Set: CC-PVDZ
    Blend: CC-PVDZ
  Basis Set: (CC-PVDZ AUX)
    Blend: CC-PVDZ-JKFIT + DEF2-UNIVERSAL-JKFIT
  Charge       = -1
  Multiplicity = 2
  Basis Set: CC-PVDZ
    Blend: CC-PVDZ
  Basis Set: (CC-PVDZ AUX)
    Blend: CC-PVDZ-JKFIT + DEF2-UNIVERSAL-JKFIT

    Orbital Energies [Eh]
    ---------------------

    Alpha Occupied:

       1A1  -101.288981     2A1    -9.205556     3A1    -6.962533
       1B2    -6.961539     1B1    -6.961539     4A1    -1.817766
       5A1    -0.554346     6A1    -0.114825     2B1    -0.093948
       2B2    -0.093948     7A1     0.039974

    Alpha Virtual:

       3B2     0.121521     3B1     0.121521     8A1     0.145301
       9A1     0.221209     4B2     0.234207     4B1     0.234207
      10A1     0.331871     1A2     0.396111    11A1     0.396111
       5B1     0.419959     5B2     0.419959    12A1     0.509909
       6B2     0.815713     6B1     0.815713    13A1     0.842842
      14A1     0.964248    15A1     0.982817     2A2     0.982825
       7B2     1.058708     7B1     1.058708    16A1     1.447964

    Beta Occupied:

       1A1  -101.288872     2A1    -9.205440     3A1    -6.962218
       1B2    -6.961481     1B1    -6.961481     4A1    -1.814152
       5A1    -0.553729     6A1    -0.113819     2B1    -0.093857
       2B2    -0.093857

    Beta Virtual:

       7A1     0.111141     3B1     0.133233     3B2     0.133233
       8A1     0.150984     4B2     0.246239     4B1     0.246239
       9A1     0.253018    10A1     0.351233    11A1     0.409570
       1A2     0.409570     5B1     0.452536     5B2     0.452536
      12A1     0.533308     6B2     0.816493     6B1     0.816493
      13A1     0.846243    14A1     0.965064    15A1     0.983100
       2A2     0.983109     7B2     1.061393     7B1     1.061393
      16A1     1.451226

    Final Occupation by Irrep:
             A1    A2    B1    B2
    DOCC [     6,    0,    2,    2 ]
    SOCC [     1,    0,    0,    0 ]
    NA   [     7,    0,    2,    2 ]
    NB   [     6,    0,    2,    2 ]

  @DF-UKS Final Energy:  -467.84102641102692

   => Energetics <=

    Nuclear Repulsion Energy =             12.4333951734014381
    One-Electron Energy =                -675.1012800740978719
    Two-Electron Energy =                 219.2623395906545340
    DFT Exchange-Correlation Energy =     -24.4354811009849691
    Empirical Dispersion Energy =           0.0000000000000000
    VV10 Nonlocal Energy =                  0.0000000000000000
    Total Energy =                       -467.8410264110269168

  UHF NO Occupations:
  HONO-2 :    2 B2 1.9999808
  HONO-1 :    2 B1 1.9999808
  HONO-0 :    7 A1 1.0000000
  LUNO+0 :    3 B1 0.0000192
  LUNO+1 :    3 B2 0.0000192
  LUNO+2 :    8 A1 0.0000109
  LUNO+3 :    9 A1 0.0000002

Computation Completed

Properties will be evaluated at   0.000000,   0.000000,   0.000000 [a0]

Properties computed using the SCF density matrix

 Multipole Moments:

 ------------------------------------------------------------------------------------
     Multipole            Electronic (a.u.)      Nuclear  (a.u.)        Total (a.u.)
 ------------------------------------------------------------------------------------

 L = 1.  Multiply by 2.5417464519 to convert [e a0] to [Debye]
 Dipole X            :          0.0000000            0.0000000            0.0000000
 Dipole Y            :          0.0000000            0.0000000            0.0000000
 Dipole Z            :         -1.2655266           -1.4034874           -2.6690140
 Magnitude           :                                                    2.6690140

 ------------------------------------------------------------------------------------

*** tstop() called on Joses-MacBook-Pro-2.local at Thu Jul 17 09:36:44 2025
Module time:
	user time   =       2.74 seconds =       0.05 minutes
	system time =       2.93 seconds =       0.05 minutes
	total time  =          1 seconds =       0.02 minutes
Total time:
	user time   =      60.25 seconds =       1.00 minutes
	system time =      67.37 seconds =       1.12 minutes
	total time  =         12 seconds =       0.20 minutes

*** tstart() called on Joses-MacBook-Pro-2.local
*** at Thu Jul 17 09:36:44 2025

         ------------------------------------------------------------
                                   SCF GRAD
                          Rob Parrish, Justin Turney,
                       Andy Simmonett, and Alex Sokolov
         ------------------------------------------------------------

  ==> Geometry <==

    Molecular point group: c2v
    Full point group: C_inf_v

    Geometry (in Angstrom), charge = -1, multiplicity = 2:

       Center              X                  Y                   Z               Mass
    ------------   -----------------  -----------------  -----------------  -----------------
         LI           0.000000000000     0.000000000000     1.807882854236     7.016003436600
         CL           0.000000000000     0.000000000000    -0.362726007445    34.968852682000

  Nuclear repulsion =   12.433395173401438

  ==> Basis Set <==

  Basis Set: CC-PVDZ
    Blend: CC-PVDZ
    Number of shells: 14
    Number of basis functions: 32
    Number of Cartesian functions: 34
    Spherical Harmonics?: true
    Max angular momentum: 2

  ==> DFJKGrad: Density-Fitted SCF Gradients <==

    Gradient:                    1
    J tasked:                  Yes
    K tasked:                  Yes
    wK tasked:                  No
    OpenMP threads:              1
    Integrals threads:           1
    Memory [MiB]:              375
    Schwarz Cutoff:          1E-12
    Fitting Condition:       1E-10

   => Auxiliary Basis Set <=

  Basis Set: (CC-PVDZ AUX)
    Blend: CC-PVDZ-JKFIT + DEF2-UNIVERSAL-JKFIT
    Number of shells: 53
    Number of basis functions: 163
    Number of Cartesian functions: 190
    Spherical Harmonics?: true
    Max angular momentum: 3

  ==> DFT Potential <==

   => LibXC <=

    Version 6.2.2
    S. Lehtola, C. Steigemann, M. J.T. Oliveira, and M. A.L. Marques.,  SoftwareX 7, 1â€“5 (2018) (10.1016/j.softx.2017.11.002)

   => Composite Functional: B3LYP <=

    B3LYP Hyb-GGA Exchange-Correlation Functional

    P. J. Stephens, F. J. Devlin, C. F. Chabalowski, and M. J. Frisch.,  J. Phys. Chem. 98, 11623 (1994) (10.1021/j100096a001)

    Deriv               =              1
    GGA                 =           TRUE
    Meta                =          FALSE

    Exchange Hybrid     =           TRUE
    MP2 Hybrid          =          FALSE

   => Exchange Functionals <=

    0.0800   Slater exchange
    0.7200         Becke 88

   => Exact (HF) Exchange <=

    0.2000               HF

   => Correlation Functionals <=

    0.1900   Vosko, Wilk & Nusair (VWN5_RPA)
    0.8100   Lee, Yang & Parr

   => LibXC Density Thresholds  <==

    XC_HYB_GGA_XC_B3LYP:  1.00E-15

   => Molecular Quadrature <=

    Radial Scheme          =       TREUTLER
    Pruning Scheme         =           NONE
    Nuclear Scheme         =       TREUTLER

    Blocking Scheme        =         OCTREE
    BS radius alpha        =              1
    Pruning alpha          =              1
    Radial Points          =             75
    Spherical Points       =            302
    Total Points           =          44335
    Total Blocks           =            440
    Max Points             =            253
    Max Functions          =             32
    Weights Tolerance      =       1.00E-15

  -Total Gradient:
     Atom            X                  Y                   Z
    ------   -----------------  -----------------  -----------------
       1       -0.000000000000     0.000000000000     0.000018436524
       2        0.000000000000    -0.000000000000     0.000042812829

*** tstop() called on Joses-MacBook-Pro-2.local at Thu Jul 17 09:36:44 2025
Module time:
	user time   =       0.88 seconds =       0.01 minutes
	system time =       1.45 seconds =       0.02 minutes
	total time  =          0 seconds =       0.00 minutes
Total time:
	user time   =      61.13 seconds =       1.02 minutes
	system time =      68.82 seconds =       1.15 minutes
	total time  =         12 seconds =       0.20 minutes

    			-----------------------------------------

    			 OPTKING 3.0: for geometry optimizations

    			     By R.A. King, Bethel University

    			        with contributions from

    			    A.V. Copan, J. Cayton, A. Heide

    			-----------------------------------------

	                            ===> Fragment 1 <==

	 Z (Atomic Numbers)          Masses                          Geom
	       3.000000             7.016003          0.00000000  0.00000000  3.41640346
	      17.000000            34.968853          0.00000000  0.00000000 -0.68545281

	 - Coordinate -           - BOHR/RAD -       - ANG/DEG -
	 R(1,2)           =         4.101856           2.170609

	        --- Internal Coordinate Step in ANG or DEG, aJ/ANG or AJ/DEG ---
	-------------------------------------------------------------------------------
	           Coordinate      Previous         Force          Change          New
	           ----------      --------        ------          ------        ------
	               R(1,2)       2.17061        0.00010        0.00011       2.17072
	-------------------------------------------------------------------------------

	                                 ==> Convergence Check <==

	Measures of convergence in internal coordinates in au.

	Criteria marked as inactive (o), active & met (*), and active & unmet ( ).

	----------------------------------------------------------------------------------------------
	   Step    Total Energy     Delta E     Max Force     RMS Force      Max Disp      RMS Disp
	----------------------------------------------------------------------------------------------
	  Convergence Criteria     1.00e-06 *    3.00e-04 *             o    1.20e-03 *             o
	----------------------------------------------------------------------------------------------
	    13    -467.84102641   -3.80e-08 *    1.22e-05 *    1.22e-05 o    2.08e-04 *    2.08e-04 o  ~
	----------------------------------------------------------------------------------------------

Next Geometry in Ang
	Fragment 1 (Ang)

	   Li   0.0000000000   0.0000000000   1.8079379535
	   Cl   0.0000000000   0.0000000000  -0.3627811067

    Final optimized geometry and variables:
    Molecular point group: c2v
    Full point group: C_inf_v

    Geometry (in Angstrom), charge = -1, multiplicity = 2:

    LI           0.000000000000     0.000000000000     1.807882854236
    CL           0.000000000000     0.000000000000    -0.362726007445

    Psi4 stopped on: Thursday, 17 July 2025 09:36AM
    Psi4 wall time for execution: 0:00:13.33

*** Psi4 exiting successfully. Buy a developer a beer!
