                               Psi4 1.9.1 release

  ==> Input File <==

--------------------------------------------------------------------------
molecule {
-1 2
B   0.00000        0.60000        0.00000
Na   0.00000       -0.60000        0.00000
}

set {
basis              cc-pvdz
reference          uks
maxiter            500
geom_maxiter       500
DAMPING_PERCENTAGE 1
guess              SAP
}

optimize('b3lyp')
--------------------------------------------------------------------------

    Molecular point group: c2v
  Charge       = -1
  Multiplicity = 2
  Basis Set: CC-PVDZ
    Blend: CC-PVDZ
  Basis Set: (CC-PVDZ AUX)
    Blend: CC-PVDZ-JKFIT + DEF2-UNIVERSAL-JKFIT
  @DF-UKS Final Energy:  -186.59460376516162
    Total Energy =                       -186.5946037651616507
 Dipole X            :          0.0000000            0.0000000            0.0000000
 Dipole Y            :          0.0000000            0.0000000            0.0000000
 Dipole Z            :         -1.4796635           -0.4104272           -1.8900907
 Magnitude           :                                                    1.8900907
    Molecular point group: c2v
  Basis Set: CC-PVDZ
    Blend: CC-PVDZ
  Basis Set: (CC-PVDZ AUX)
    Blend: CC-PVDZ-JKFIT + DEF2-UNIVERSAL-JKFIT
  Basis Set: CC-PVDZ
    Blend: CC-PVDZ
  Basis Set: (CC-PVDZ AUX)
    Blend: CC-PVDZ-JKFIT + DEF2-UNIVERSAL-JKFIT
  @DF-UKS Final Energy:  -186.67118831082118
    Total Energy =                       -186.6711883108211509
  Basis Set: CC-PVDZ
    Blend: CC-PVDZ
  Basis Set: (CC-PVDZ AUX)
    Blend: CC-PVDZ-JKFIT + DEF2-UNIVERSAL-JKFIT
  Basis Set: CC-PVDZ
    Blend: CC-PVDZ
  @DF-UKS Final Energy:  -186.75869085343453
    Total Energy =                       -186.7586908534345298
  @DF-UKS Final Energy:  -186.85810338219204
    Total Energy =                       -186.8581033821920414
  @DF-UKS Final Energy:  -186.94637715359727
    Total Energy =                       -186.9463771535972683
  @DF-UKS Final Energy:  -186.97592041727677
    Total Energy =                       -186.9759204172767681
  @DF-UKS Final Energy:  -186.98603623179341
    Total Energy =                       -186.9860362317934062
  @DF-UKS Final Energy:  -186.98997869016671
    Total Energy =                       -186.9899786901667085
  @DF-UKS Final Energy:  -186.99114332476731
    Total Energy =                       -186.9911433247673074
  @DF-UKS Final Energy:  -186.99133196742076
    Total Energy =                       -186.9913319674207628
  @DF-UKS Final Energy:  -186.99137014313712
    Total Energy =                       -186.9913701431370896
  Basis Set: (CC-PVDZ AUX)
    Blend: CC-PVDZ-JKFIT + DEF2-UNIVERSAL-JKFIT
  Basis Set: CC-PVDZ
    Blend: CC-PVDZ
  Basis Set: (CC-PVDZ AUX)
    Blend: CC-PVDZ-JKFIT + DEF2-UNIVERSAL-JKFIT
  @DF-UKS Final Energy:  -186.99137280753570
    Total Energy =                       -186.9913728075356971
  Basis Set: CC-PVDZ
    Blend: CC-PVDZ
  Basis Set: (CC-PVDZ AUX)
    Blend: CC-PVDZ-JKFIT + DEF2-UNIVERSAL-JKFIT
  Charge       = -1
  Multiplicity = 2
  Basis Set: CC-PVDZ
    Blend: CC-PVDZ
  Basis Set: (CC-PVDZ AUX)
    Blend: CC-PVDZ-JKFIT + DEF2-UNIVERSAL-JKFIT

    Orbital Energies [Eh]
    ---------------------

    Alpha Occupied:

       1A1   -38.318304     2A1    -6.606211     3A1    -2.063957
       1B1    -0.995910     1B2    -0.995910     4A1    -0.995408
       5A1    -0.191044     2B1     0.026599     2B2     0.026599

    Alpha Virtual:

       6A1     0.066530     7A1     0.106824     3B1     0.115412
       3B2     0.115412     8A1     0.130915     9A1     0.195206
       4B1     0.224577     4B2     0.224577    10A1     0.298171
      11A1     0.319679     1A2     0.319679     5B1     0.365500
       5B2     0.365500    12A1     0.432963     6B1     0.505237
       6B2     0.505237    13A1     0.572056    14A1     0.796916
       2A2     0.901772    15A1     0.901774     7B1     0.980257
       7B2     0.980257    16A1     1.098405

    Beta Occupied:

       1A1   -38.319157     2A1    -6.595314     3A1    -2.065707
       4A1    -0.996808     1B1    -0.996774     1B2    -0.996774
       5A1    -0.131825     6A1     0.019105

    Beta Virtual:

       2B1     0.094520     2B2     0.094520     7A1     0.101352
       8A1     0.133633     3B1     0.158161     3B2     0.158161
       9A1     0.177373     4B1     0.211249     4B2     0.211249
      10A1     0.278263     1A2     0.312266    11A1     0.312266
       5B1     0.358444     5B2     0.358444    12A1     0.432433
       6B1     0.552385     6B2     0.552385    13A1     0.570868
      14A1     0.821180     2A2     0.973603    15A1     0.973609
       7B1     1.012783     7B2     1.012783    16A1     1.118197

    Final Occupation by Irrep:
             A1    A2    B1    B2
Warning! Irrep has more beta than alpha electrons in symmetry 0 orbitals.
Warning! Irrep has more beta than alpha electrons in symmetry 0 orbitals.
    DOCC [     5,    0,    1,    1 ]
    SOCC [     1,    0,    1,    1 ]
    NA   [     5,    0,    2,    2 ]
    NB   [     6,    0,    1,    1 ]

  @DF-UKS Final Energy:  -186.99137300072161

   => Energetics <=

    Nuclear Repulsion Energy =             11.6740029957361653
    One-Electron Energy =                -286.4266016434009998
    Two-Electron Energy =                 102.7017757535451778
    DFT Exchange-Correlation Energy =     -14.9405501066019397
    Empirical Dispersion Energy =           0.0000000000000000
    VV10 Nonlocal Energy =                  0.0000000000000000
    Total Energy =                       -186.9913730007216088

  UHF NO Occupations:
  HONO-2 :    5 A1 1.9972071
  HONO-1 :    6 A1 1.0000000
  HONO-0 :    2 B1 1.0000000
  LUNO+0 :    2 B2 1.0000000
  LUNO+1 :    7 A1 0.0027929
  LUNO+2 :    8 A1 0.0000009
  LUNO+3 :    3 B1 0.0000008

Computation Completed

Properties will be evaluated at   0.000000,   0.000000,   0.000000 [a0]

Properties computed using the SCF density matrix

 Multipole Moments:

 ------------------------------------------------------------------------------------
     Multipole            Electronic (a.u.)      Nuclear  (a.u.)        Total (a.u.)
 ------------------------------------------------------------------------------------

 L = 1.  Multiply by 2.5417464519 to convert [e a0] to [Debye]
 Dipole X            :          0.0000000            0.0000000            0.0000000
 Dipole Y            :          0.0000000            0.0000000            0.0000000
 Dipole Z            :          0.7396222           -0.8527051           -0.1130829
 Magnitude           :                                                    0.1130829

 ------------------------------------------------------------------------------------
Warning! Irrep has more beta than alpha electrons in symmetry 0 orbitals.
Warning! Irrep has more beta than alpha electrons in symmetry 0 orbitals.

*** tstop() called on Joses-MacBook-Pro-2.local at Thu Jul 17 09:51:51 2025
Module time:
	user time   =       4.49 seconds =       0.07 minutes
	system time =       4.23 seconds =       0.07 minutes
	total time  =          1 seconds =       0.02 minutes
Total time:
	user time   =      81.60 seconds =       1.36 minutes
	system time =      87.25 seconds =       1.45 minutes
	total time  =         17 seconds =       0.28 minutes

*** tstart() called on Joses-MacBook-Pro-2.local
*** at Thu Jul 17 09:51:51 2025

         ------------------------------------------------------------
                                   SCF GRAD
                          Rob Parrish, Justin Turney,
                       Andy Simmonett, and Alex Sokolov
         ------------------------------------------------------------

  ==> Geometry <==

    Molecular point group: c2v
    Full point group: C_inf_v

    Geometry (in Angstrom), charge = -1, multiplicity = 2:

       Center              X                  Y                   Z               Mass
    ------------   -----------------  -----------------  -----------------  -----------------
         B            0.000000000000     0.000000000000     1.685821303854    11.009305360000
         NA           0.000000000000     0.000000000000    -0.807303513527    22.989769282000

  Nuclear repulsion =   11.674002995736165

  ==> Basis Set <==

  Basis Set: CC-PVDZ
    Blend: CC-PVDZ
    Number of shells: 14
    Number of basis functions: 32
    Number of Cartesian functions: 34
    Spherical Harmonics?: true
    Max angular momentum: 2

  ==> DFJKGrad: Density-Fitted SCF Gradients <==

    Gradient:                    1
    J tasked:                  Yes
    K tasked:                  Yes
    wK tasked:                  No
    OpenMP threads:              1
    Integrals threads:           1
    Memory [MiB]:              375
    Schwarz Cutoff:          1E-12
    Fitting Condition:       1E-10

   => Auxiliary Basis Set <=

  Basis Set: (CC-PVDZ AUX)
    Blend: CC-PVDZ-JKFIT + DEF2-UNIVERSAL-JKFIT
    Number of shells: 58
    Number of basis functions: 182
    Number of Cartesian functions: 218
    Spherical Harmonics?: true
    Max angular momentum: 4

  ==> DFT Potential <==

   => LibXC <=

    Version 6.2.2
    S. Lehtola, C. Steigemann, M. J.T. Oliveira, and M. A.L. Marques.,  SoftwareX 7, 1â€“5 (2018) (10.1016/j.softx.2017.11.002)

   => Composite Functional: B3LYP <=

    B3LYP Hyb-GGA Exchange-Correlation Functional

    P. J. Stephens, F. J. Devlin, C. F. Chabalowski, and M. J. Frisch.,  J. Phys. Chem. 98, 11623 (1994) (10.1021/j100096a001)

    Deriv               =              1
    GGA                 =           TRUE
    Meta                =          FALSE

    Exchange Hybrid     =           TRUE
    MP2 Hybrid          =          FALSE

   => Exchange Functionals <=

    0.0800   Slater exchange
    0.7200         Becke 88

   => Exact (HF) Exchange <=

    0.2000               HF

   => Correlation Functionals <=

    0.1900   Vosko, Wilk & Nusair (VWN5_RPA)
    0.8100   Lee, Yang & Parr

   => LibXC Density Thresholds  <==

    XC_HYB_GGA_XC_B3LYP:  1.00E-15

   => Molecular Quadrature <=

    Radial Scheme          =       TREUTLER
    Pruning Scheme         =           NONE
    Nuclear Scheme         =       TREUTLER

    Blocking Scheme        =         OCTREE
    BS radius alpha        =              1
    Pruning alpha          =              1
    Radial Points          =             75
    Spherical Points       =            302
    Total Points           =          43839
    Total Blocks           =            436
    Max Points             =            254
    Max Functions          =             32
    Weights Tolerance      =       1.00E-15

  -Total Gradient:
     Atom            X                  Y                   Z
    ------   -----------------  -----------------  -----------------
       1       -0.000000000000     0.000000000000    -0.000030292365
       2       -0.000000000000    -0.000000000000     0.000021056126

*** tstop() called on Joses-MacBook-Pro-2.local at Thu Jul 17 09:51:51 2025
Module time:
	user time   =       2.12 seconds =       0.04 minutes
	system time =       1.94 seconds =       0.03 minutes
	total time  =          0 seconds =       0.00 minutes
Total time:
	user time   =      83.72 seconds =       1.40 minutes
	system time =      89.19 seconds =       1.49 minutes
	total time  =         17 seconds =       0.28 minutes

    			-----------------------------------------

    			 OPTKING 3.0: for geometry optimizations

    			     By R.A. King, Bethel University

    			        with contributions from

    			    A.V. Copan, J. Cayton, A. Heide

    			-----------------------------------------

	                            ===> Fragment 1 <==

	 Z (Atomic Numbers)          Masses                          Geom
	       5.000000            11.009305          0.00000000  0.00000000  3.18574056
	      11.000000            22.989769          0.00000000  0.00000000 -1.52558254

	 - Coordinate -           - BOHR/RAD -       - ANG/DEG -
	 R(1,2)           =         4.711323           2.493125

	        --- Internal Coordinate Step in ANG or DEG, aJ/ANG or AJ/DEG ---
	-------------------------------------------------------------------------------
	           Coordinate      Previous         Force          Change          New
	           ----------      --------        ------          ------        ------
	               R(1,2)       2.49312        0.00021        0.00057       2.49369
	-------------------------------------------------------------------------------

	                                 ==> Convergence Check <==

	Measures of convergence in internal coordinates in au.

	Criteria marked as inactive (o), active & met (*), and active & unmet ( ).

	----------------------------------------------------------------------------------------------
	   Step    Total Energy     Delta E     Max Force     RMS Force      Max Disp      RMS Disp
	----------------------------------------------------------------------------------------------
	  Convergence Criteria     1.00e-06 *    3.00e-04 *             o    1.20e-03 *             o
	----------------------------------------------------------------------------------------------
	    13    -186.99137300   -1.93e-07 *    2.57e-05 *    2.57e-05 o    1.07e-03 *    1.07e-03 o  ~
	----------------------------------------------------------------------------------------------

Next Geometry in Ang
	Fragment 1 (Ang)

	    B   0.0000000000   0.0000000000   1.6861039964
	   Na   0.0000000000   0.0000000000  -0.8075862061

    Final optimized geometry and variables:
    Molecular point group: c2v
    Full point group: C_inf_v

    Geometry (in Angstrom), charge = -1, multiplicity = 2:

    B            0.000000000000     0.000000000000     1.685821303854
    NA           0.000000000000     0.000000000000    -0.807303513527

    Psi4 stopped on: Thursday, 17 July 2025 09:51AM
    Psi4 wall time for execution: 0:00:17.88

*** Psi4 exiting successfully. Buy a developer a beer!
