                               Psi4 1.9.1 release

  ==> Input File <==

--------------------------------------------------------------------------
molecule {
-1 2
He   0.00000        0.60000        0.00000
S   0.00000       -0.60000        0.00000
}

set {
basis              cc-pvdz
reference          uks
maxiter            500
geom_maxiter       500
DAMPING_PERCENTAGE 1
guess              SAP
}

optimize('b3lyp')
--------------------------------------------------------------------------

    Molecular point group: c2v
  Charge       = -1
  Multiplicity = 2
  Basis Set: CC-PVDZ
    Blend: CC-PVDZ
  Basis Set: (CC-PVDZ AUX)
    Blend: CC-PVDZ-JKFIT + DEF2-UNIVERSAL-JKFIT
  @DF-UKS Final Energy:  -400.79736187001180
    Total Energy =                       -400.7973618700117981
 Dipole X            :          0.0000000            0.0000000            0.0000000
 Dipole Y            :          0.0000000            0.0000000            0.0000000
 Dipole Z            :          1.2175126           -0.0061465            1.2113661
 Magnitude           :                                                    1.2113661
    Molecular point group: c2v
  Basis Set: CC-PVDZ
    Blend: CC-PVDZ
  Basis Set: (CC-PVDZ AUX)
    Blend: CC-PVDZ-JKFIT + DEF2-UNIVERSAL-JKFIT
  Basis Set: CC-PVDZ
    Blend: CC-PVDZ
  Basis Set: (CC-PVDZ AUX)
    Blend: CC-PVDZ-JKFIT + DEF2-UNIVERSAL-JKFIT
  @DF-UKS Final Energy:  -400.95087783771532
    Total Energy =                       -400.9508778377153817
  Basis Set: CC-PVDZ
    Blend: CC-PVDZ
  Basis Set: (CC-PVDZ AUX)
    Blend: CC-PVDZ-JKFIT + DEF2-UNIVERSAL-JKFIT
  Basis Set: CC-PVDZ
    Blend: CC-PVDZ
  @DF-UKS Final Energy:  -401.01079949819751
    Total Energy =                       -401.0107994981975139
  @DF-UKS Final Energy:  -401.04536750302270
    Total Energy =                       -401.0453675030227032
  @DF-UKS Final Energy:  -401.06311879331281
    Total Energy =                       -401.0631187933128103
  @DF-UKS Final Energy:  -401.07245366525723
    Total Energy =                       -401.0724536652572283
  @DF-UKS Final Energy:  -401.07732895840212
    Total Energy =                       -401.0773289584021200
  @DF-UKS Final Energy:  -401.07987142558665
    Total Energy =                       -401.0798714255865889
  @DF-UKS Final Energy:  -401.08117934353601
    Total Energy =                       -401.0811793435360073
  @DF-UKS Final Energy:  -401.08183368017330
    Total Energy =                       -401.0818336801733039
  @DF-UKS Final Energy:  -401.08214855450831
    Total Energy =                       -401.0821485545083078
  @DF-UKS Final Energy:  -401.08229318380018
    Total Energy =                       -401.0822931838001182
  @DF-UKS Final Energy:  -401.08235703715263
    Total Energy =                       -401.0823570371526330
  @DF-UKS Final Energy:  -401.08238475344223
    Total Energy =                       -401.0823847534422839
  @DF-UKS Final Energy:  -401.08239608411282
    Total Energy =                       -401.0823960841128155
  @DF-UKS Final Energy:  -401.08239994488497
    Total Energy =                       -401.0823999448849690
  @DF-UKS Final Energy:  -401.08240229344995
    Total Energy =                       -401.0824022934499453
  Basis Set: (CC-PVDZ AUX)
    Blend: CC-PVDZ-JKFIT + DEF2-UNIVERSAL-JKFIT
  Basis Set: CC-PVDZ
    Blend: CC-PVDZ
  Basis Set: (CC-PVDZ AUX)
    Blend: CC-PVDZ-JKFIT + DEF2-UNIVERSAL-JKFIT
  @DF-UKS Final Energy:  -401.08240335834046
    Total Energy =                       -401.0824033583404571
  Basis Set: CC-PVDZ
    Blend: CC-PVDZ
  Basis Set: (CC-PVDZ AUX)
    Blend: CC-PVDZ-JKFIT + DEF2-UNIVERSAL-JKFIT
  Charge       = -1
  Multiplicity = 2
  Basis Set: CC-PVDZ
    Blend: CC-PVDZ
  Basis Set: (CC-PVDZ AUX)
    Blend: CC-PVDZ-JKFIT + DEF2-UNIVERSAL-JKFIT

    Orbital Energies [Eh]
    ---------------------

    Alpha Occupied:

       1A1   -88.543541     2A1    -7.599921     3A1    -5.572956
       1B1    -5.555655     1B2    -5.555655     4A1    -0.523308
       5A1    -0.338980     6A1     0.014667     2B1     0.060389
       2B2     0.060389

    Alpha Virtual:

       7A1     0.760313     8A1     0.767313     3B2     0.793887
       3B1     0.793887     9A1     0.900058     4B2     0.911298
       4B1     0.911298    10A1     0.948793     1A2     0.948793
      11A1     1.247132     5B1     2.315478     5B2     2.315478
      12A1     2.316649

    Beta Occupied:

       1A1   -88.538976     2A1    -7.595232     3A1    -5.557447
       1B1    -5.552904     1B2    -5.552904     4A1    -0.523300
       5A1    -0.295284     2B2     0.072823     2B1     0.072823

    Beta Virtual:

       6A1     0.148582     7A1     0.785705     3B1     0.800946
       3B2     0.800946     8A1     0.805851     1A2     0.955099
       9A1     0.955099     4B2     0.959606     4B1     0.959606
      10A1     0.967334    11A1     1.247115     5B1     2.315489
       5B2     2.315489    12A1     2.316665

    Final Occupation by Irrep:
             A1    A2    B1    B2
    DOCC [     5,    0,    2,    2 ]
    SOCC [     1,    0,    0,    0 ]
    NA   [     6,    0,    2,    2 ]
    NB   [     5,    0,    2,    2 ]

  @DF-UKS Final Energy:  -401.08240420838644

   => Energetics <=

    Nuclear Repulsion Energy =              4.2146192762325603
    One-Electron Energy =                -568.0859229382833746
    Two-Electron Energy =                 184.5401190179725859
    DFT Exchange-Correlation Energy =     -21.7512195643082435
    Empirical Dispersion Energy =           0.0000000000000000
    VV10 Nonlocal Energy =                  0.0000000000000000
    Total Energy =                       -401.0824042083864356

  UHF NO Occupations:
  HONO-2 :    2 B2 1.9999821
  HONO-1 :    5 A1 1.9991079
  HONO-0 :    6 A1 1.0000000
  LUNO+0 :    7 A1 0.0008921
  LUNO+1 :    3 B2 0.0000179
  LUNO+2 :    3 B1 0.0000179
  LUNO+3 :    8 A1 0.0000000

Computation Completed

Properties will be evaluated at   0.000000,   0.000000,   0.000000 [a0]

Properties computed using the SCF density matrix

 Multipole Moments:

 ------------------------------------------------------------------------------------
     Multipole            Electronic (a.u.)      Nuclear  (a.u.)        Total (a.u.)
 ------------------------------------------------------------------------------------

 L = 1.  Multiply by 2.5417464519 to convert [e a0] to [Debye]
 Dipole X            :          0.0000000            0.0000000            0.0000000
 Dipole Y            :          0.0000000            0.0000000            0.0000000
 Dipole Z            :          0.8604446           -0.0205799            0.8398648
 Magnitude           :                                                    0.8398648

 ------------------------------------------------------------------------------------

*** tstop() called on Joses-MacBook-Pro-2.local at Thu Jul 17 09:25:00 2025
Module time:
	user time   =       2.01 seconds =       0.03 minutes
	system time =       2.24 seconds =       0.04 minutes
	total time  =          0 seconds =       0.00 minutes
Total time:
	user time   =      69.22 seconds =       1.15 minutes
	system time =      78.51 seconds =       1.31 minutes
	total time  =         14 seconds =       0.23 minutes

*** tstart() called on Joses-MacBook-Pro-2.local
*** at Thu Jul 17 09:25:00 2025

         ------------------------------------------------------------
                                   SCF GRAD
                          Rob Parrish, Justin Turney,
                       Andy Simmonett, and Alex Sokolov
         ------------------------------------------------------------

  ==> Geometry <==

    Molecular point group: c2v
    Full point group: C_inf_v

    Geometry (in Angstrom), charge = -1, multiplicity = 2:

       Center              X                  Y                   Z               Mass
    ------------   -----------------  -----------------  -----------------  -----------------
         HE           0.000000000000     0.000000000000     3.570809329559     4.002603254130
         S            0.000000000000     0.000000000000    -0.447031816125    31.972071174400

  Nuclear repulsion =    4.214619276232560

  ==> Basis Set <==

  Basis Set: CC-PVDZ
    Blend: CC-PVDZ
    Number of shells: 11
    Number of basis functions: 23
    Number of Cartesian functions: 24
    Spherical Harmonics?: true
    Max angular momentum: 2

  ==> DFJKGrad: Density-Fitted SCF Gradients <==

    Gradient:                    1
    J tasked:                  Yes
    K tasked:                  Yes
    wK tasked:                  No
    OpenMP threads:              1
    Integrals threads:           1
    Memory [MiB]:              375
    Schwarz Cutoff:          1E-12
    Fitting Condition:       1E-10

   => Auxiliary Basis Set <=

  Basis Set: (CC-PVDZ AUX)
    Blend: CC-PVDZ-JKFIT + DEF2-UNIVERSAL-JKFIT
    Number of shells: 45
    Number of basis functions: 135
    Number of Cartesian functions: 155
    Spherical Harmonics?: true
    Max angular momentum: 3

  ==> DFT Potential <==

   => LibXC <=

    Version 6.2.2
    S. Lehtola, C. Steigemann, M. J.T. Oliveira, and M. A.L. Marques.,  SoftwareX 7, 1â€“5 (2018) (10.1016/j.softx.2017.11.002)

   => Composite Functional: B3LYP <=

    B3LYP Hyb-GGA Exchange-Correlation Functional

    P. J. Stephens, F. J. Devlin, C. F. Chabalowski, and M. J. Frisch.,  J. Phys. Chem. 98, 11623 (1994) (10.1021/j100096a001)

    Deriv               =              1
    GGA                 =           TRUE
    Meta                =          FALSE

    Exchange Hybrid     =           TRUE
    MP2 Hybrid          =          FALSE

   => Exchange Functionals <=

    0.0800   Slater exchange
    0.7200         Becke 88

   => Exact (HF) Exchange <=

    0.2000               HF

   => Correlation Functionals <=

    0.1900   Vosko, Wilk & Nusair (VWN5_RPA)
    0.8100   Lee, Yang & Parr

   => LibXC Density Thresholds  <==

    XC_HYB_GGA_XC_B3LYP:  1.00E-15

   => Molecular Quadrature <=

    Radial Scheme          =       TREUTLER
    Pruning Scheme         =           NONE
    Nuclear Scheme         =       TREUTLER

    Blocking Scheme        =         OCTREE
    BS radius alpha        =              1
    Pruning alpha          =              1
    Radial Points          =             75
    Spherical Points       =            302
    Total Points           =          42563
    Total Blocks           =            400
    Max Points             =            256
    Max Functions          =             23
    Weights Tolerance      =       1.00E-15

  -Total Gradient:
     Atom            X                  Y                   Z
    ------   -----------------  -----------------  -----------------
       1        0.000000000000    -0.000000000000    -0.000007553499
       2       -0.000000000000     0.000000000000     0.000007372789

*** tstop() called on Joses-MacBook-Pro-2.local at Thu Jul 17 09:25:00 2025
Module time:
	user time   =       0.50 seconds =       0.01 minutes
	system time =       1.04 seconds =       0.02 minutes
	total time  =          0 seconds =       0.00 minutes
Total time:
	user time   =      69.72 seconds =       1.16 minutes
	system time =      79.55 seconds =       1.33 minutes
	total time  =         14 seconds =       0.23 minutes

    			-----------------------------------------

    			 OPTKING 3.0: for geometry optimizations

    			     By R.A. King, Bethel University

    			        with contributions from

    			    A.V. Copan, J. Cayton, A. Heide

    			-----------------------------------------

	                            ===> Fragment 1 <==

	 Z (Atomic Numbers)          Masses                          Geom
	       2.000000             4.002603          0.00000000  0.00000000  6.74785168
	      16.000000            31.972071          0.00000000  0.00000000 -0.84476770

	 - Coordinate -           - BOHR/RAD -       - ANG/DEG -
	 R(1,2)           =         7.592619           4.017841

	        --- Internal Coordinate Step in ANG or DEG, aJ/ANG or AJ/DEG ---
	-------------------------------------------------------------------------------
	           Coordinate      Previous         Force          Change          New
	           ----------      --------        ------          ------        ------
	               R(1,2)       4.01784        0.00006        0.06397       4.08181
	-------------------------------------------------------------------------------

	                                 ==> Convergence Check <==

	Measures of convergence in internal coordinates in au.

	Criteria marked as inactive (o), active & met (*), and active & unmet ( ).

	----------------------------------------------------------------------------------------------
	   Step    Total Energy     Delta E     Max Force     RMS Force      Max Disp      RMS Disp
	----------------------------------------------------------------------------------------------
	  Convergence Criteria     1.00e-06 *    3.00e-04 *             o    1.20e-03 *             o
	----------------------------------------------------------------------------------------------
	    19    -401.08240421   -8.50e-07 *    7.46e-06 *    7.46e-06 o    1.21e-01      1.21e-01 o  ~
	----------------------------------------------------------------------------------------------

Next Geometry in Ang
	Fragment 1 (Ang)

	   He   0.0000000000   0.0000000000   3.6027943624
	    S   0.0000000000   0.0000000000  -0.4790168490

    Final optimized geometry and variables:
    Molecular point group: c2v
    Full point group: C_inf_v

    Geometry (in Angstrom), charge = -1, multiplicity = 2:

    HE           0.000000000000     0.000000000000     3.570809329559
    S            0.000000000000     0.000000000000    -0.447031816125

    Psi4 stopped on: Thursday, 17 July 2025 09:25AM
    Psi4 wall time for execution: 0:00:14.63

*** Psi4 exiting successfully. Buy a developer a beer!
