                               Psi4 1.9.1 release

  ==> Input File <==

--------------------------------------------------------------------------
molecule {
-1 2
Al   0.00000        0.60000        0.00000
P   0.00000       -0.60000        0.00000
}

set {
basis              cc-pvdz
reference          uks
maxiter            500
geom_maxiter       500
DAMPING_PERCENTAGE 1
guess              SAP
}

optimize('b3lyp')
--------------------------------------------------------------------------

    Molecular point group: c2v
  Charge       = -1
  Multiplicity = 2
  Basis Set: CC-PVDZ
    Blend: CC-PVDZ
  Basis Set: (CC-PVDZ AUX)
    Blend: CC-PVDZ-JKFIT
  @DF-UKS Final Energy:  -582.69873006747002
    Total Energy =                       -582.6987300674700236
 Dipole X            :          0.0000000            0.0000000            0.0000000
 Dipole Y            :          0.0000000            0.0000000            0.0000000
 Dipole Z            :         -0.4981341           -0.0807668           -0.5789009
 Magnitude           :                                                    0.5789009
    Molecular point group: c2v
  Basis Set: CC-PVDZ
    Blend: CC-PVDZ
  Basis Set: (CC-PVDZ AUX)
    Blend: CC-PVDZ-JKFIT
  Basis Set: CC-PVDZ
    Blend: CC-PVDZ
  Basis Set: (CC-PVDZ AUX)
    Blend: CC-PVDZ-JKFIT
  @DF-UKS Final Energy:  -582.71922046708960
    Total Energy =                       -582.7192204670897127
  Basis Set: CC-PVDZ
    Blend: CC-PVDZ
  Basis Set: (CC-PVDZ AUX)
    Blend: CC-PVDZ-JKFIT
  Basis Set: CC-PVDZ
    Blend: CC-PVDZ
  @DF-UKS Final Energy:  -582.75861561110401
    Total Energy =                       -582.7586156111040054
  @DF-UKS Final Energy:  -582.89966938430700
    Total Energy =                       -582.8996693843071171
  @DF-UKS Final Energy:  -583.44989762334194
    Total Energy =                       -583.4498976233419398
  @DF-UKS Final Energy:  -583.66090656162623
    Total Energy =                       -583.6609065616262342
  @DF-UKS Final Energy:  -583.75160476028975
    Total Energy =                       -583.7516047602897515
  @DF-UKS Final Energy:  -583.78704657282071
    Total Energy =                       -583.7870465728207137
  @DF-UKS Final Energy:  -583.79850395518167
    Total Energy =                       -583.7985039551816726
  @DF-UKS Final Energy:  -583.80068162541659
    Total Energy =                       -583.8006816254164733
  @DF-UKS Final Energy:  -583.80124533082562
    Total Energy =                       -583.8012453308257363
  @DF-UKS Final Energy:  -583.80130641295375
    Total Energy =                       -583.8013064129537497
  Basis Set: (CC-PVDZ AUX)
    Blend: CC-PVDZ-JKFIT
  Basis Set: CC-PVDZ
    Blend: CC-PVDZ
  Basis Set: (CC-PVDZ AUX)
    Blend: CC-PVDZ-JKFIT
  @DF-UKS Final Energy:  -583.80131346264295
    Total Energy =                       -583.8013134626428382
  Basis Set: CC-PVDZ
    Blend: CC-PVDZ
  Basis Set: (CC-PVDZ AUX)
    Blend: CC-PVDZ-JKFIT
  Charge       = -1
  Multiplicity = 2
  Basis Set: CC-PVDZ
    Blend: CC-PVDZ
  Basis Set: (CC-PVDZ AUX)
    Blend: CC-PVDZ-JKFIT

    Orbital Energies [Eh]
    ---------------------

    Alpha Occupied:

       1A1   -76.833997     2A1   -55.844464     3A1    -6.303174
       4A1    -4.469054     1B1    -4.461865     1B2    -4.461865
       5A1    -3.928207     6A1    -2.481874     2B1    -2.480151
       2B2    -2.480151     7A1    -0.335098     8A1    -0.118414
       9A1    -0.013710     3B1     0.005543     3B2     0.005543

    Alpha Virtual:

       4B2     0.147649     4B1     0.147649    10A1     0.220032
      11A1     0.340079     5B1     0.396746     5B2     0.396746
      12A1     0.414893     1A2     0.465271    13A1     0.465271
       6B1     0.473177     6B2     0.473177    14A1     0.498758
       7B1     0.677903     7B2     0.677903    15A1     0.718320
       2A2     0.752108    16A1     0.752110    17A1     0.836150
       8B2     0.885390     8B1     0.885390    18A1     1.167327

    Beta Occupied:

       1A1   -76.831616     2A1   -55.843188     3A1    -6.300682
       4A1    -4.460935     1B1    -4.460269     1B2    -4.460269
       5A1    -3.926633     2B1    -2.479454     2B2    -2.479454
       6A1    -2.476900     7A1    -0.310662     8A1    -0.087655
       3B1     0.011265     3B2     0.011265

    Beta Virtual:

       9A1     0.068518     4B2     0.155973     4B1     0.155973
      10A1     0.230258    11A1     0.350126     5B1     0.399123
       5B2     0.399123    12A1     0.439838     1A2     0.467248
      13A1     0.467248     6B1     0.495771     6B2     0.495771
      14A1     0.520986     7B1     0.682292     7B2     0.682292
      15A1     0.736172     2A2     0.756233    16A1     0.756235
      17A1     0.852531     8B2     0.905669     8B1     0.905669
      18A1     1.185013

    Final Occupation by Irrep:
             A1    A2    B1    B2
    DOCC [     8,    0,    3,    3 ]
    SOCC [     1,    0,    0,    0 ]
    NA   [     9,    0,    3,    3 ]
    NB   [     8,    0,    3,    3 ]

  @DF-UKS Final Energy:  -583.80131437736316

   => Energetics <=

    Nuclear Repulsion Energy =             47.8838430817897134
    One-Electron Energy =                -910.9379151588034347
    Two-Electron Energy =                 313.1281647720975911
    DFT Exchange-Correlation Energy =     -33.8754070724470608
    Empirical Dispersion Energy =           0.0000000000000000
    VV10 Nonlocal Energy =                  0.0000000000000000
    Total Energy =                       -583.8013143773631555

  UHF NO Occupations:
  HONO-2 :    7 A1 1.9995512
  HONO-1 :    8 A1 1.9972205
  HONO-0 :    9 A1 1.0000000
  LUNO+0 :   10 A1 0.0027795
  LUNO+1 :   11 A1 0.0004488
  LUNO+2 :    4 B2 0.0001989
  LUNO+3 :    4 B1 0.0001989

Computation Completed

Properties will be evaluated at   0.000000,   0.000000,   0.000000 [a0]

Properties computed using the SCF density matrix

 Multipole Moments:

 ------------------------------------------------------------------------------------
     Multipole            Electronic (a.u.)      Nuclear  (a.u.)        Total (a.u.)
 ------------------------------------------------------------------------------------

 L = 1.  Multiply by 2.5417464519 to convert [e a0] to [Debye]
 Dipole X            :          0.0000000            0.0000000            0.0000000
 Dipole Y            :          0.0000000            0.0000000            0.0000000
 Dipole Z            :          0.3144087           -0.1450435            0.1693652
 Magnitude           :                                                    0.1693652

 ------------------------------------------------------------------------------------

*** tstop() called on Joses-MacBook-Pro-2.local at Thu Jul 17 11:37:51 2025
Module time:
	user time   =      13.29 seconds =       0.22 minutes
	system time =       2.08 seconds =       0.03 minutes
	total time  =          1 seconds =       0.02 minutes
Total time:
	user time   =     273.40 seconds =       4.56 minutes
	system time =      50.36 seconds =       0.84 minutes
	total time  =         33 seconds =       0.55 minutes

*** tstart() called on Joses-MacBook-Pro-2.local
*** at Thu Jul 17 11:37:51 2025

         ------------------------------------------------------------
                                   SCF GRAD
                          Rob Parrish, Justin Turney,
                       Andy Simmonett, and Alex Sokolov
         ------------------------------------------------------------

  ==> Geometry <==

    Molecular point group: c2v
    Full point group: C_inf_v

    Geometry (in Angstrom), charge = -1, multiplicity = 2:

       Center              X                  Y                   Z               Mass
    ------------   -----------------  -----------------  -----------------  -----------------
         AL           0.000000000000     0.000000000000     1.151721674282    26.981538530000
         P            0.000000000000     0.000000000000    -1.003275699350    30.973761998420

  Nuclear repulsion =   47.883843081789713

  ==> Basis Set <==

  Basis Set: CC-PVDZ
    Blend: CC-PVDZ
    Number of shells: 16
    Number of basis functions: 36
    Number of Cartesian functions: 38
    Spherical Harmonics?: true
    Max angular momentum: 2

  ==> DFJKGrad: Density-Fitted SCF Gradients <==

    Gradient:                    1
    J tasked:                  Yes
    K tasked:                  Yes
    wK tasked:                  No
    OpenMP threads:              1
    Integrals threads:           1
    Memory [MiB]:              375
    Schwarz Cutoff:          1E-12
    Fitting Condition:       1E-10

   => Auxiliary Basis Set <=

  Basis Set: (CC-PVDZ AUX)
    Blend: CC-PVDZ-JKFIT
    Number of shells: 72
    Number of basis functions: 224
    Number of Cartesian functions: 260
    Spherical Harmonics?: true
    Max angular momentum: 3

  ==> DFT Potential <==

   => LibXC <=

    Version 6.2.2
    S. Lehtola, C. Steigemann, M. J.T. Oliveira, and M. A.L. Marques.,  SoftwareX 7, 1â€“5 (2018) (10.1016/j.softx.2017.11.002)

   => Composite Functional: B3LYP <=

    B3LYP Hyb-GGA Exchange-Correlation Functional

    P. J. Stephens, F. J. Devlin, C. F. Chabalowski, and M. J. Frisch.,  J. Phys. Chem. 98, 11623 (1994) (10.1021/j100096a001)

    Deriv               =              1
    GGA                 =           TRUE
    Meta                =          FALSE

    Exchange Hybrid     =           TRUE
    MP2 Hybrid          =          FALSE

   => Exchange Functionals <=

    0.0800   Slater exchange
    0.7200         Becke 88

   => Exact (HF) Exchange <=

    0.2000               HF

   => Correlation Functionals <=

    0.1900   Vosko, Wilk & Nusair (VWN5_RPA)
    0.8100   Lee, Yang & Parr

   => LibXC Density Thresholds  <==

    XC_HYB_GGA_XC_B3LYP:  1.00E-15

   => Molecular Quadrature <=

    Radial Scheme          =       TREUTLER
    Pruning Scheme         =           NONE
    Nuclear Scheme         =       TREUTLER

    Blocking Scheme        =         OCTREE
    BS radius alpha        =              1
    Pruning alpha          =              1
    Radial Points          =             75
    Spherical Points       =            302
    Total Points           =          42654
    Total Blocks           =            400
    Max Points             =            256
    Max Functions          =             36
    Weights Tolerance      =       1.00E-15

  -Total Gradient:
     Atom            X                  Y                   Z
    ------   -----------------  -----------------  -----------------
       1        0.000000000000    -0.000000000000    -0.000094866086
       2        0.000000000000     0.000000000000     0.000104943856

*** tstop() called on Joses-MacBook-Pro-2.local at Thu Jul 17 11:37:52 2025
Module time:
	user time   =       2.63 seconds =       0.04 minutes
	system time =       1.17 seconds =       0.02 minutes
	total time  =          1 seconds =       0.02 minutes
Total time:
	user time   =     276.03 seconds =       4.60 minutes
	system time =      51.54 seconds =       0.86 minutes
	total time  =         34 seconds =       0.57 minutes

    			-----------------------------------------

    			 OPTKING 3.0: for geometry optimizations

    			     By R.A. King, Bethel University

    			        with contributions from

    			    A.V. Copan, J. Cayton, A. Heide

    			-----------------------------------------

	                            ===> Fragment 1 <==

	 Z (Atomic Numbers)          Masses                          Geom
	      13.000000            26.981539          0.00000000  0.00000000  2.17643854
	      15.000000            30.973762          0.00000000  0.00000000 -1.89591630

	 - Coordinate -           - BOHR/RAD -       - ANG/DEG -
	 R(1,2)           =         4.072355           2.154997

	        --- Internal Coordinate Step in ANG or DEG, aJ/ANG or AJ/DEG ---
	-------------------------------------------------------------------------------
	           Coordinate      Previous         Force          Change          New
	           ----------      --------        ------          ------        ------
	               R(1,2)       2.15500        0.00082        0.00031       2.15531
	-------------------------------------------------------------------------------

	                                 ==> Convergence Check <==

	Measures of convergence in internal coordinates in au.

	Criteria marked as inactive (o), active & met (*), and active & unmet ( ).

	----------------------------------------------------------------------------------------------
	   Step    Total Energy     Delta E     Max Force     RMS Force      Max Disp      RMS Disp
	----------------------------------------------------------------------------------------------
	  Convergence Criteria     1.00e-06 *    3.00e-04 *             o    1.20e-03 *             o
	----------------------------------------------------------------------------------------------
	    14    -583.80131438   -9.15e-07 *    9.99e-05 *    9.99e-05 o    5.86e-04 *    5.86e-04 o  ~
	----------------------------------------------------------------------------------------------

Next Geometry in Ang
	Fragment 1 (Ang)

	   Al   0.0000000000   0.0000000000   1.1518768489
	    P   0.0000000000   0.0000000000  -1.0034308739

    Final optimized geometry and variables:
    Molecular point group: c2v
    Full point group: C_inf_v

    Geometry (in Angstrom), charge = -1, multiplicity = 2:

    AL           0.000000000000     0.000000000000     1.151721674282
    P            0.000000000000     0.000000000000    -1.003275699350

    Psi4 stopped on: Thursday, 17 July 2025 11:37AM
    Psi4 wall time for execution: 0:00:34.23

*** Psi4 exiting successfully. Buy a developer a beer!
