                               Psi4 1.9.1 release

  ==> Input File <==

--------------------------------------------------------------------------
molecule {
-1 2
Na   0.00000        0.60000        0.00000
P   0.00000       -0.60000        0.00000
}

set {
basis              cc-pvdz
reference          uks
maxiter            500
geom_maxiter       500
DAMPING_PERCENTAGE 1
guess              SAP
}

optimize('b3lyp')
--------------------------------------------------------------------------

    Molecular point group: c2v
  Charge       = -1
  Multiplicity = 2
  Basis Set: CC-PVDZ
    Blend: CC-PVDZ
  Basis Set: (CC-PVDZ AUX)
    Blend: CC-PVDZ-JKFIT + DEF2-UNIVERSAL-JKFIT
  @DF-UKS Final Energy:  -502.81393438946384
    Total Energy =                       -502.8139343894638387
 Dipole X            :          0.0000000            0.0000000            0.0000000
 Dipole Y            :          0.0000000            0.0000000            0.0000000
 Dipole Z            :         -0.6631276           -0.1737688           -0.8368964
 Magnitude           :                                                    0.8368964
    Molecular point group: c2v
  Basis Set: CC-PVDZ
    Blend: CC-PVDZ
  Basis Set: (CC-PVDZ AUX)
    Blend: CC-PVDZ-JKFIT + DEF2-UNIVERSAL-JKFIT
  Basis Set: CC-PVDZ
    Blend: CC-PVDZ
  Basis Set: (CC-PVDZ AUX)
    Blend: CC-PVDZ-JKFIT + DEF2-UNIVERSAL-JKFIT
  @DF-UKS Final Energy:  -502.82367803034180
    Total Energy =                       -502.8236780303417959
  Basis Set: CC-PVDZ
    Blend: CC-PVDZ
  Basis Set: (CC-PVDZ AUX)
    Blend: CC-PVDZ-JKFIT + DEF2-UNIVERSAL-JKFIT
  Basis Set: CC-PVDZ
    Blend: CC-PVDZ
  @DF-UKS Final Energy:  -502.84248716092361
    Total Energy =                       -502.8424871609236106
  @DF-UKS Final Energy:  -502.91073494929481
    Total Energy =                       -502.9107349492948060
  @DF-UKS Final Energy:  -503.21719122043419
    Total Energy =                       -503.2171912204341879
  @DF-UKS Final Energy:  -503.38128137456511
    Total Energy =                       -503.3812813745651056
  @DF-UKS Final Energy:  -503.49544342386548
    Total Energy =                       -503.4954434238654812
  @DF-UKS Final Energy:  -503.56153777844247
    Total Energy =                       -503.5615377784424709
  @DF-UKS Final Energy:  -503.58777374536749
    Total Energy =                       -503.5877737453674854
  @DF-UKS Final Energy:  -503.59698071098455
    Total Energy =                       -503.5969807109845533
  @DF-UKS Final Energy:  -503.59952375989451
    Total Energy =                       -503.5995237598945096
  @DF-UKS Final Energy:  -503.59989032708984
    Total Energy =                       -503.5998903270898381
  @DF-UKS Final Energy:  -503.59995387120972
    Total Energy =                       -503.5999538712097205
  Basis Set: (CC-PVDZ AUX)
    Blend: CC-PVDZ-JKFIT + DEF2-UNIVERSAL-JKFIT
  Basis Set: CC-PVDZ
    Blend: CC-PVDZ
  Basis Set: (CC-PVDZ AUX)
    Blend: CC-PVDZ-JKFIT + DEF2-UNIVERSAL-JKFIT
  @DF-UKS Final Energy:  -503.59995716988817
    Total Energy =                       -503.5999571698881709
  Basis Set: CC-PVDZ
    Blend: CC-PVDZ
  Basis Set: (CC-PVDZ AUX)
    Blend: CC-PVDZ-JKFIT + DEF2-UNIVERSAL-JKFIT
  Charge       = -1
  Multiplicity = 2
  Basis Set: CC-PVDZ
    Blend: CC-PVDZ
  Basis Set: (CC-PVDZ AUX)
    Blend: CC-PVDZ-JKFIT + DEF2-UNIVERSAL-JKFIT

    Orbital Energies [Eh]
    ---------------------

    Alpha Occupied:

       1A1   -76.846937     2A1   -38.335573     3A1    -6.312659
       4A1    -4.481568     1B2    -4.470481     1B1    -4.470481
       5A1    -2.084630     6A1    -1.017167     2B2    -1.014929
       2B1    -1.014929     7A1    -0.311583     8A1    -0.027910
       3B2     0.019110     3B1     0.019110

    Alpha Virtual:

       9A1     0.054612     4B1     0.109504     4B2     0.109504
      10A1     0.127265    11A1     0.167372     5B2     0.202722
       5B1     0.202722    12A1     0.268235    13A1     0.305177
       1A2     0.305177     6B2     0.336479     6B1     0.336479
      14A1     0.423875    15A1     0.672299     7B2     0.675767
       7B1     0.675767    16A1     0.696909     2A2     0.744121
      17A1     0.744122     8B2     0.802504     8B1     0.802504
      18A1     1.013033

    Beta Occupied:

       1A1   -76.843353     2A1   -38.334667     3A1    -6.308789
       4A1    -4.471343     1B2    -4.467156     1B1    -4.467156
       5A1    -2.082963     6A1    -1.015432     2B2    -1.013966
       2B1    -1.013966     7A1    -0.273148     3B2     0.034096
       3B1     0.034096

    Beta Virtual:

       8A1     0.042574     9A1     0.090417     4B1     0.112668
       4B2     0.112668    10A1     0.130275    11A1     0.174158
       5B2     0.209136     5B1     0.209136    12A1     0.284275
      13A1     0.308164     1A2     0.308164     6B2     0.349850
       6B1     0.349850    14A1     0.435802     7B2     0.687690
       7B1     0.687690    15A1     0.705782    16A1     0.737866
       2A2     0.756745    17A1     0.756748     8B2     0.834568
       8B1     0.834568    18A1     1.028284

    Final Occupation by Irrep:
             A1    A2    B1    B2
    DOCC [     7,    0,    3,    3 ]
    SOCC [     1,    0,    0,    0 ]
    NA   [     8,    0,    3,    3 ]
    NB   [     7,    0,    3,    3 ]

  @DF-UKS Final Energy:  -503.59995723811375

   => Energetics <=

    Nuclear Repulsion Energy =             35.4984348663281182
    One-Electron Energy =                -775.8945059261502593
    Two-Electron Energy =                 267.2661996905741830
    DFT Exchange-Correlation Energy =     -30.4700858688657803
    Empirical Dispersion Energy =           0.0000000000000000
    VV10 Nonlocal Energy =                  0.0000000000000000
    Total Energy =                       -503.5999572381137455

  UHF NO Occupations:
  HONO-2 :    3 B2 1.9921528
  HONO-1 :    3 B1 1.9921528
  HONO-0 :    8 A1 1.0000000
  LUNO+0 :    4 B1 0.0078472
  LUNO+1 :    4 B2 0.0078472
  LUNO+2 :    9 A1 0.0007011
  LUNO+3 :   10 A1 0.0000022

Computation Completed

Properties will be evaluated at   0.000000,   0.000000,   0.000000 [a0]

Properties computed using the SCF density matrix

 Multipole Moments:

 ------------------------------------------------------------------------------------
     Multipole            Electronic (a.u.)      Nuclear  (a.u.)        Total (a.u.)
 ------------------------------------------------------------------------------------

 L = 1.  Multiply by 2.5417464519 to convert [e a0] to [Debye]
 Dipole X            :          0.0000000            0.0000000            0.0000000
 Dipole Y            :          0.0000000            0.0000000            0.0000000
 Dipole Z            :          1.9695838           -0.3561774            1.6134064
 Magnitude           :                                                    1.6134064

 ------------------------------------------------------------------------------------

*** tstop() called on Joses-MacBook-Pro-2.local at Thu Jul 17 11:12:39 2025
Module time:
	user time   =      23.95 seconds =       0.40 minutes
	system time =       3.35 seconds =       0.06 minutes
	total time  =          3 seconds =       0.05 minutes
Total time:
	user time   =     361.61 seconds =       6.03 minutes
	system time =      88.28 seconds =       1.47 minutes
	total time  =         48 seconds =       0.80 minutes

*** tstart() called on Joses-MacBook-Pro-2.local
*** at Thu Jul 17 11:12:39 2025

         ------------------------------------------------------------
                                   SCF GRAD
                          Rob Parrish, Justin Turney,
                       Andy Simmonett, and Alex Sokolov
         ------------------------------------------------------------

  ==> Geometry <==

    Molecular point group: c2v
    Full point group: C_inf_v

    Geometry (in Angstrom), charge = -1, multiplicity = 2:

       Center              X                  Y                   Z               Mass
    ------------   -----------------  -----------------  -----------------  -----------------
         NA           0.000000000000     0.000000000000     1.411787938298    22.989769282000
         P            0.000000000000     0.000000000000    -1.047876553653    30.973761998420

  Nuclear repulsion =   35.498434866328118

  ==> Basis Set <==

  Basis Set: CC-PVDZ
    Blend: CC-PVDZ
    Number of shells: 16
    Number of basis functions: 36
    Number of Cartesian functions: 38
    Spherical Harmonics?: true
    Max angular momentum: 2

  ==> DFJKGrad: Density-Fitted SCF Gradients <==

    Gradient:                    1
    J tasked:                  Yes
    K tasked:                  Yes
    wK tasked:                  No
    OpenMP threads:              1
    Integrals threads:           1
    Memory [MiB]:              375
    Schwarz Cutoff:          1E-12
    Fitting Condition:       1E-10

   => Auxiliary Basis Set <=

  Basis Set: (CC-PVDZ AUX)
    Blend: CC-PVDZ-JKFIT + DEF2-UNIVERSAL-JKFIT
    Number of shells: 70
    Number of basis functions: 224
    Number of Cartesian functions: 267
    Spherical Harmonics?: true
    Max angular momentum: 4

  ==> DFT Potential <==

   => LibXC <=

    Version 6.2.2
    S. Lehtola, C. Steigemann, M. J.T. Oliveira, and M. A.L. Marques.,  SoftwareX 7, 1â€“5 (2018) (10.1016/j.softx.2017.11.002)

   => Composite Functional: B3LYP <=

    B3LYP Hyb-GGA Exchange-Correlation Functional

    P. J. Stephens, F. J. Devlin, C. F. Chabalowski, and M. J. Frisch.,  J. Phys. Chem. 98, 11623 (1994) (10.1021/j100096a001)

    Deriv               =              1
    GGA                 =           TRUE
    Meta                =          FALSE

    Exchange Hybrid     =           TRUE
    MP2 Hybrid          =          FALSE

   => Exchange Functionals <=

    0.0800   Slater exchange
    0.7200         Becke 88

   => Exact (HF) Exchange <=

    0.2000               HF

   => Correlation Functionals <=

    0.1900   Vosko, Wilk & Nusair (VWN5_RPA)
    0.8100   Lee, Yang & Parr

   => LibXC Density Thresholds  <==

    XC_HYB_GGA_XC_B3LYP:  1.00E-15

   => Molecular Quadrature <=

    Radial Scheme          =       TREUTLER
    Pruning Scheme         =           NONE
    Nuclear Scheme         =       TREUTLER

    Blocking Scheme        =         OCTREE
    BS radius alpha        =              1
    Pruning alpha          =              1
    Radial Points          =             75
    Spherical Points       =            302
    Total Points           =          43840
    Total Blocks           =            442
    Max Points             =            255
    Max Functions          =             36
    Weights Tolerance      =       1.00E-15

  -Total Gradient:
     Atom            X                  Y                   Z
    ------   -----------------  -----------------  -----------------
       1       -0.000000000000     0.000000000000    -0.000022679115
       2        0.000000000000    -0.000000000000     0.000061788941

*** tstop() called on Joses-MacBook-Pro-2.local at Thu Jul 17 11:12:40 2025
Module time:
	user time   =       4.02 seconds =       0.07 minutes
	system time =       1.95 seconds =       0.03 minutes
	total time  =          1 seconds =       0.02 minutes
Total time:
	user time   =     365.63 seconds =       6.09 minutes
	system time =      90.23 seconds =       1.50 minutes
	total time  =         49 seconds =       0.82 minutes

    			-----------------------------------------

    			 OPTKING 3.0: for geometry optimizations

    			     By R.A. King, Bethel University

    			        with contributions from

    			    A.V. Copan, J. Cayton, A. Heide

    			-----------------------------------------

	                            ===> Fragment 1 <==

	 Z (Atomic Numbers)          Masses                          Geom
	      11.000000            22.989769          0.00000000  0.00000000  2.66789255
	      15.000000            30.973762          0.00000000  0.00000000 -1.98019970

	 - Coordinate -           - BOHR/RAD -       - ANG/DEG -
	 R(1,2)           =         4.648092           2.459664

	        --- Internal Coordinate Step in ANG or DEG, aJ/ANG or AJ/DEG ---
	-------------------------------------------------------------------------------
	           Coordinate      Previous         Force          Change          New
	           ----------      --------        ------          ------        ------
	               R(1,2)       2.45966        0.00035        0.00038       2.46005
	-------------------------------------------------------------------------------

	                                 ==> Convergence Check <==

	Measures of convergence in internal coordinates in au.

	Criteria marked as inactive (o), active & met (*), and active & unmet ( ).

	----------------------------------------------------------------------------------------------
	   Step    Total Energy     Delta E     Max Force     RMS Force      Max Disp      RMS Disp
	----------------------------------------------------------------------------------------------
	  Convergence Criteria     1.00e-06 *    3.00e-04 *             o    1.20e-03 *             o
	----------------------------------------------------------------------------------------------
	    15    -503.59995724   -6.82e-08 *    4.22e-05 *    4.22e-05 o    7.24e-04 *    7.24e-04 o  ~
	----------------------------------------------------------------------------------------------

Next Geometry in Ang
	Fragment 1 (Ang)

	   Na   0.0000000000   0.0000000000   1.4119794502
	    P   0.0000000000   0.0000000000  -1.0480680655

    Final optimized geometry and variables:
    Molecular point group: c2v
    Full point group: C_inf_v

    Geometry (in Angstrom), charge = -1, multiplicity = 2:

    NA           0.000000000000     0.000000000000     1.411787938298
    P            0.000000000000     0.000000000000    -1.047876553653

    Psi4 stopped on: Thursday, 17 July 2025 11:12AM
    Psi4 wall time for execution: 0:00:49.16

*** Psi4 exiting successfully. Buy a developer a beer!
