                               Psi4 1.9.1 release

  ==> Input File <==

--------------------------------------------------------------------------
molecule {
-1 2
B   0.00000        0.60000        0.00000
P   0.00000       -0.60000        0.00000
}

set {
basis              cc-pvdz
reference          uks
maxiter            500
geom_maxiter       500
DAMPING_PERCENTAGE 1
guess              SAP
}

optimize('b3lyp')
--------------------------------------------------------------------------

    Molecular point group: c2v
  Charge       = -1
  Multiplicity = 2
  Basis Set: CC-PVDZ
    Blend: CC-PVDZ
  Basis Set: (CC-PVDZ AUX)
    Blend: CC-PVDZ-JKFIT
  @DF-UKS Final Energy:  -365.76182489212766
    Total Energy =                       -365.7618248921277200
 Dipole X            :          0.0000000            0.0000000            0.0000000
 Dipole Y            :          0.0000000            0.0000000            0.0000000
 Dipole Z            :         -0.0136690           -0.5547649           -0.5684339
 Magnitude           :                                                    0.5684339
    Molecular point group: c2v
  Basis Set: CC-PVDZ
    Blend: CC-PVDZ
  Basis Set: (CC-PVDZ AUX)
    Blend: CC-PVDZ-JKFIT
  Basis Set: CC-PVDZ
    Blend: CC-PVDZ
  Basis Set: (CC-PVDZ AUX)
    Blend: CC-PVDZ-JKFIT
  @DF-UKS Final Energy:  -365.98433251670389
    Total Energy =                       -365.9843325167038870
  Basis Set: CC-PVDZ
    Blend: CC-PVDZ
  Basis Set: (CC-PVDZ AUX)
    Blend: CC-PVDZ-JKFIT
  Basis Set: CC-PVDZ
    Blend: CC-PVDZ
  @DF-UKS Final Energy:  -366.09390628181001
    Total Energy =                       -366.0939062818099501
  @DF-UKS Final Energy:  -366.13105968022319
    Total Energy =                       -366.1310596802231316
  @DF-UKS Final Energy:  -366.13986204448935
    Total Energy =                       -366.1398620444893481
  @DF-UKS Final Energy:  -366.14296018645280
    Total Energy =                       -366.1429601864527399
  @DF-UKS Final Energy:  -366.14347850744514
    Total Energy =                       -366.1434785074451383
  @DF-UKS Final Energy:  -366.14357446000821
    Total Energy =                       -366.1435744600081534
  Basis Set: (CC-PVDZ AUX)
    Blend: CC-PVDZ-JKFIT
  Basis Set: CC-PVDZ
    Blend: CC-PVDZ
  Basis Set: (CC-PVDZ AUX)
    Blend: CC-PVDZ-JKFIT
  @DF-UKS Final Energy:  -366.14359590122365
    Total Energy =                       -366.1435959012236481
  Basis Set: CC-PVDZ
    Blend: CC-PVDZ
  Basis Set: (CC-PVDZ AUX)
    Blend: CC-PVDZ-JKFIT
  Charge       = -1
  Multiplicity = 2
  Basis Set: CC-PVDZ
    Blend: CC-PVDZ
  Basis Set: (CC-PVDZ AUX)
    Blend: CC-PVDZ-JKFIT

    Orbital Energies [Eh]
    ---------------------

    Alpha Occupied:

       1A1   -76.802685     2A1    -6.548143     3A1    -6.274301
       4A1    -4.436944     1B1    -4.433824     1B2    -4.433824
       5A1    -0.347140     6A1    -0.119694     7A1    -0.011843
       2B2     0.008864     2B1     0.008864

    Alpha Virtual:

       3B2     0.204861     3B1     0.204861     8A1     0.347270
       9A1     0.456566     4B2     0.514812     4B1     0.514812
      10A1     0.553860    11A1     0.675135     5B2     0.681536
       5B1     0.681536    12A1     0.731332     1A2     0.731333
       6B2     0.777484     6B1     0.777484    13A1     0.899045
      14A1     1.000546     2A2     1.000546    15A1     1.180683
       7B1     1.251456     7B2     1.251456    16A1     1.478247

    Beta Occupied:

       1A1   -76.801997     2A1    -6.538386     3A1    -6.273607
       1B1    -4.434199     1B2    -4.434199     4A1    -4.432936
       5A1    -0.333608     6A1    -0.086057     2B2     0.012902
       2B1     0.012902

    Beta Virtual:

       7A1     0.111489     3B2     0.220122     3B1     0.220122
       8A1     0.360723     9A1     0.475378     4B2     0.525614
       4B1     0.525614    10A1     0.592348     5B2     0.688438
       5B1     0.688438    11A1     0.701902    12A1     0.728531
       1A2     0.728532     6B2     0.793669     6B1     0.793669
      13A1     0.907985    14A1     1.015232     2A2     1.015232
      15A1     1.206747     7B1     1.283837     7B2     1.283837
      16A1     1.512685

    Final Occupation by Irrep:
             A1    A2    B1    B2
    DOCC [     6,    0,    2,    2 ]
    SOCC [     1,    0,    0,    0 ]
    NA   [     7,    0,    2,    2 ]
    NB   [     6,    0,    2,    2 ]

  @DF-UKS Final Energy:  -366.14359761861624

   => Energetics <=

    Nuclear Repulsion Energy =             23.1900444422671619
    One-Electron Energy =                -556.1914398242040534
    Two-Electron Energy =                 188.9747881415159156
    DFT Exchange-Correlation Energy =     -22.1169903781953501
    Empirical Dispersion Energy =           0.0000000000000000
    VV10 Nonlocal Energy =                  0.0000000000000000
    Total Energy =                       -366.1435976186162975

  UHF NO Occupations:
  HONO-2 :    2 B1 1.9969964
  HONO-1 :    2 B2 1.9969964
  HONO-0 :    7 A1 1.0000000
  LUNO+0 :    3 B2 0.0030036
  LUNO+1 :    3 B1 0.0030036
  LUNO+2 :    8 A1 0.0008424
  LUNO+3 :    9 A1 0.0001904

Computation Completed

Properties will be evaluated at   0.000000,   0.000000,   0.000000 [a0]

Properties computed using the SCF density matrix

 Multipole Moments:

 ------------------------------------------------------------------------------------
     Multipole            Electronic (a.u.)      Nuclear  (a.u.)        Total (a.u.)
 ------------------------------------------------------------------------------------

 L = 1.  Multiply by 2.5417464519 to convert [e a0] to [Debye]
 Dipole X            :          0.0000000            0.0000000            0.0000000
 Dipole Y            :          0.0000000            0.0000000            0.0000000
 Dipole Z            :          0.2138709           -0.7912041           -0.5773332
 Magnitude           :                                                    0.5773332

 ------------------------------------------------------------------------------------

*** tstop() called on Joses-MacBook-Pro-2.local at Thu Jul 17 09:54:45 2025
Module time:
	user time   =       3.60 seconds =       0.06 minutes
	system time =       3.37 seconds =       0.06 minutes
	total time  =          0 seconds =       0.00 minutes
Total time:
	user time   =      46.57 seconds =       0.78 minutes
	system time =      61.26 seconds =       1.02 minutes
	total time  =         10 seconds =       0.17 minutes

*** tstart() called on Joses-MacBook-Pro-2.local
*** at Thu Jul 17 09:54:45 2025

         ------------------------------------------------------------
                                   SCF GRAD
                          Rob Parrish, Justin Turney,
                       Andy Simmonett, and Alex Sokolov
         ------------------------------------------------------------

  ==> Geometry <==

    Molecular point group: c2v
    Full point group: C_inf_v

    Geometry (in Angstrom), charge = -1, multiplicity = 2:

       Center              X                  Y                   Z               Mass
    ------------   -----------------  -----------------  -----------------  -----------------
         B            0.000000000000     0.000000000000     1.262643090194    11.009305360000
         P            0.000000000000     0.000000000000    -0.448793509208    30.973761998420

  Nuclear repulsion =   23.190044442267162

  ==> Basis Set <==

  Basis Set: CC-PVDZ
    Blend: CC-PVDZ
    Number of shells: 14
    Number of basis functions: 32
    Number of Cartesian functions: 34
    Spherical Harmonics?: true
    Max angular momentum: 2

  ==> DFJKGrad: Density-Fitted SCF Gradients <==

    Gradient:                    1
    J tasked:                  Yes
    K tasked:                  Yes
    wK tasked:                  No
    OpenMP threads:              1
    Integrals threads:           1
    Memory [MiB]:              375
    Schwarz Cutoff:          1E-12
    Fitting Condition:       1E-10

   => Auxiliary Basis Set <=

  Basis Set: (CC-PVDZ AUX)
    Blend: CC-PVDZ-JKFIT
    Number of shells: 60
    Number of basis functions: 182
    Number of Cartesian functions: 211
    Spherical Harmonics?: true
    Max angular momentum: 3

  ==> DFT Potential <==

   => LibXC <=

    Version 6.2.2
    S. Lehtola, C. Steigemann, M. J.T. Oliveira, and M. A.L. Marques.,  SoftwareX 7, 1â€“5 (2018) (10.1016/j.softx.2017.11.002)

   => Composite Functional: B3LYP <=

    B3LYP Hyb-GGA Exchange-Correlation Functional

    P. J. Stephens, F. J. Devlin, C. F. Chabalowski, and M. J. Frisch.,  J. Phys. Chem. 98, 11623 (1994) (10.1021/j100096a001)

    Deriv               =              1
    GGA                 =           TRUE
    Meta                =          FALSE

    Exchange Hybrid     =           TRUE
    MP2 Hybrid          =          FALSE

   => Exchange Functionals <=

    0.0800   Slater exchange
    0.7200         Becke 88

   => Exact (HF) Exchange <=

    0.2000               HF

   => Correlation Functionals <=

    0.1900   Vosko, Wilk & Nusair (VWN5_RPA)
    0.8100   Lee, Yang & Parr

   => LibXC Density Thresholds  <==

    XC_HYB_GGA_XC_B3LYP:  1.00E-15

   => Molecular Quadrature <=

    Radial Scheme          =       TREUTLER
    Pruning Scheme         =           NONE
    Nuclear Scheme         =       TREUTLER

    Blocking Scheme        =         OCTREE
    BS radius alpha        =              1
    Pruning alpha          =              1
    Radial Points          =             75
    Spherical Points       =            302
    Total Points           =          41979
    Total Blocks           =            383
    Max Points             =            256
    Max Functions          =             32
    Weights Tolerance      =       1.00E-15

  -Total Gradient:
     Atom            X                  Y                   Z
    ------   -----------------  -----------------  -----------------
       1        0.000000000000     0.000000000000    -0.000193715595
       2        0.000000000000     0.000000000000     0.000174264359

*** tstop() called on Joses-MacBook-Pro-2.local at Thu Jul 17 09:54:46 2025
Module time:
	user time   =       0.80 seconds =       0.01 minutes
	system time =       1.71 seconds =       0.03 minutes
	total time  =          1 seconds =       0.02 minutes
Total time:
	user time   =      47.38 seconds =       0.79 minutes
	system time =      62.97 seconds =       1.05 minutes
	total time  =         11 seconds =       0.18 minutes

    			-----------------------------------------

    			 OPTKING 3.0: for geometry optimizations

    			     By R.A. King, Bethel University

    			        with contributions from

    			    A.V. Copan, J. Cayton, A. Heide

    			-----------------------------------------

	                            ===> Fragment 1 <==

	 Z (Atomic Numbers)          Masses                          Geom
	       5.000000            11.009305          0.00000000  0.00000000  2.38604963
	      15.000000            30.973762          0.00000000  0.00000000 -0.84809682

	 - Coordinate -           - BOHR/RAD -       - ANG/DEG -
	 R(1,2)           =         3.234146           1.711437

	        --- Internal Coordinate Step in ANG or DEG, aJ/ANG or AJ/DEG ---
	-------------------------------------------------------------------------------
	           Coordinate      Previous         Force          Change          New
	           ----------      --------        ------          ------        ------
	               R(1,2)       1.71144        0.00152        0.00027       1.71171
	-------------------------------------------------------------------------------

	                                 ==> Convergence Check <==

	Measures of convergence in internal coordinates in au.

	Criteria marked as inactive (o), active & met (*), and active & unmet ( ).

	----------------------------------------------------------------------------------------------
	   Step    Total Energy     Delta E     Max Force     RMS Force      Max Disp      RMS Disp
	----------------------------------------------------------------------------------------------
	  Convergence Criteria     1.00e-06 *    3.00e-04 *             o    1.20e-03 *             o
	----------------------------------------------------------------------------------------------
	    10    -366.14359762   -1.72e-06      1.84e-04 *    1.84e-04 o    5.13e-04 *    5.13e-04 o  ~
	----------------------------------------------------------------------------------------------

Next Geometry in Ang
	Fragment 1 (Ang)

	    B   0.0000000000   0.0000000000   1.2627788513
	    P   0.0000000000   0.0000000000  -0.4489292703

    Final optimized geometry and variables:
    Molecular point group: c2v
    Full point group: C_inf_v

    Geometry (in Angstrom), charge = -1, multiplicity = 2:

    B            0.000000000000     0.000000000000     1.262643090194
    P            0.000000000000     0.000000000000    -0.448793509208

    Psi4 stopped on: Thursday, 17 July 2025 09:54AM
    Psi4 wall time for execution: 0:00:11.17

*** Psi4 exiting successfully. Buy a developer a beer!
