                               Psi4 1.9.1 release

  ==> Input File <==

--------------------------------------------------------------------------
molecule {
-1 2
Li   0.00000        0.60000        0.00000
Na   0.00000       -0.60000        0.00000
}

set {
basis              cc-pvdz
reference          uks
maxiter            500
geom_maxiter       500
DAMPING_PERCENTAGE 1
guess              SAP
}

optimize('b3lyp')
--------------------------------------------------------------------------

    Molecular point group: c2v
  Charge       = -1
  Multiplicity = 2
  Basis Set: CC-PVDZ
    Blend: CC-PVDZ
  Basis Set: (CC-PVDZ AUX)
    Blend: DEF2-UNIVERSAL-JKFIT
  @DF-UKS Final Energy:  -169.56971357712058
    Total Energy =                       -169.5697135771205808
 Dipole X            :          0.0000000            0.0000000            0.0000000
 Dipole Y            :          0.0000000            0.0000000            0.0000000
 Dipole Z            :         -0.0573022           -0.6202195           -0.6775218
 Magnitude           :                                                    0.6775218
    Molecular point group: c2v
  Basis Set: CC-PVDZ
    Blend: CC-PVDZ
  Basis Set: (CC-PVDZ AUX)
    Blend: DEF2-UNIVERSAL-JKFIT
  Basis Set: CC-PVDZ
    Blend: CC-PVDZ
  Basis Set: (CC-PVDZ AUX)
    Blend: DEF2-UNIVERSAL-JKFIT
  @DF-UKS Final Energy:  -169.60362808215032
    Total Energy =                       -169.6036280821503510
  Basis Set: CC-PVDZ
    Blend: CC-PVDZ
  Basis Set: (CC-PVDZ AUX)
    Blend: DEF2-UNIVERSAL-JKFIT
  Basis Set: CC-PVDZ
    Blend: CC-PVDZ
  @DF-UKS Final Energy:  -169.64489220395595
    Total Energy =                       -169.6448922039559477
  @DF-UKS Final Energy:  -169.70017617545773
    Total Energy =                       -169.7001761754577558
  @DF-UKS Final Energy:  -169.73277458414498
    Total Energy =                       -169.7327745841449769
  @DF-UKS Final Energy:  -169.76431902714825
    Total Energy =                       -169.7643190271482467
  @DF-UKS Final Energy:  -169.78472435089949
    Total Energy =                       -169.7847243508994950
  @DF-UKS Final Energy:  -169.78856557112368
    Total Energy =                       -169.7885655711236836
  @DF-UKS Final Energy:  -169.79722551766662
    Total Energy =                       -169.7972255176666181
  @DF-UKS Final Energy:  -169.79786855400934
    Total Energy =                       -169.7978685540093409
  @DF-UKS Final Energy:  -169.79994279426509
    Total Energy =                       -169.7999427942650641
  @DF-UKS Final Energy:  -169.80018356508481
    Total Energy =                       -169.8001835650848079
  Basis Set: (CC-PVDZ AUX)
    Blend: DEF2-UNIVERSAL-JKFIT
  Basis Set: CC-PVDZ
    Blend: CC-PVDZ
  Basis Set: (CC-PVDZ AUX)
    Blend: DEF2-UNIVERSAL-JKFIT
  @DF-UKS Final Energy:  -169.80020543864646
    Total Energy =                       -169.8002054386464863
  Basis Set: CC-PVDZ
    Blend: CC-PVDZ
  Basis Set: (CC-PVDZ AUX)
    Blend: DEF2-UNIVERSAL-JKFIT
  Charge       = -1
  Multiplicity = 2
  Basis Set: CC-PVDZ
    Blend: CC-PVDZ
  Basis Set: (CC-PVDZ AUX)
    Blend: DEF2-UNIVERSAL-JKFIT

    Orbital Energies [Eh]
    ---------------------

    Alpha Occupied:

       1A1   -38.323210     2A1    -2.069238     3A1    -1.871713
       4A1    -1.001188     1B2    -1.000676     1B1    -1.000019
       5A1    -0.008673     2B1     0.051399

    Alpha Virtual:

       6A1     0.056909     2B2     0.085861     7A1     0.094016
       3B1     0.102766     3B2     0.114387     8A1     0.120259
       9A1     0.166517     4B1     0.177464    10A1     0.184394
       4B2     0.186951     5B1     0.220293     5B2     0.226936
      11A1     0.268232     1A2     0.293139    12A1     0.294833
      13A1     0.303379     6B1     0.322127     6B2     0.327023
       2A2     0.385571    14A1     0.388695    15A1     0.441852
       7B1     0.481429     7B2     0.487981    16A1     0.753007

    Beta Occupied:

       1A1   -38.323291     2A1    -2.069452     3A1    -1.870609
       4A1    -1.001344     1B2    -1.000893     1B1    -0.999779
       5A1    -0.000956

    Beta Virtual:

       6A1     0.058452     2B2     0.086675     2B1     0.090426
       7A1     0.093984     3B2     0.113936     3B1     0.115095
       8A1     0.122552     9A1     0.170086    10A1     0.182033
       4B2     0.184984     4B1     0.189464     5B2     0.223797
       5B1     0.229119    11A1     0.269903    12A1     0.298708
       1A2     0.298987    13A1     0.305635     6B2     0.323013
       6B1     0.331063     2A2     0.398987    14A1     0.399455
      15A1     0.445153     7B2     0.485239     7B1     0.492922
      16A1     0.751758

    Final Occupation by Irrep:
             A1    A2    B1    B2
    DOCC [     5,    0,    1,    1 ]
    SOCC [     0,    0,    1,    0 ]
    NA   [     5,    0,    2,    1 ]
    NB   [     5,    0,    1,    1 ]

  @DF-UKS Final Energy:  -169.80020569362068

   => Energetics <=

    Nuclear Repulsion Energy =              6.1300978854529680
    One-Electron Energy =                -251.9063937110077518
    Two-Electron Energy =                  89.1954874797377215
    DFT Exchange-Correlation Energy =     -13.2193973478036213
    Empirical Dispersion Energy =           0.0000000000000000
    VV10 Nonlocal Energy =                  0.0000000000000000
    Total Energy =                       -169.8002056936206827

  UHF NO Occupations:
  HONO-2 :    4 A1 1.9999999
  HONO-1 :    5 A1 1.9875062
  HONO-0 :    2 B1 1.0000000
  LUNO+0 :    6 A1 0.0124938
  LUNO+1 :    7 A1 0.0000001
  LUNO+2 :    2 B2 0.0000001
  LUNO+3 :    8 A1 0.0000001

Computation Completed

Properties will be evaluated at   0.000000,   0.000000,   0.000000 [a0]

Properties computed using the SCF density matrix

 Multipole Moments:

 ------------------------------------------------------------------------------------
     Multipole            Electronic (a.u.)      Nuclear  (a.u.)        Total (a.u.)
 ------------------------------------------------------------------------------------

 L = 1.  Multiply by 2.5417464519 to convert [e a0] to [Debye]
 Dipole X            :          0.0000000            0.0000000            0.0000000
 Dipole Y            :          0.0000000            0.0000000            0.0000000
 Dipole Z            :          0.0180949           -1.4723527           -1.4542578
 Magnitude           :                                                    1.4542578

 ------------------------------------------------------------------------------------

*** tstop() called on Joses-MacBook-Pro-2.local at Thu Jul 17 09:31:54 2025
Module time:
	user time   =       4.58 seconds =       0.08 minutes
	system time =       2.93 seconds =       0.05 minutes
	total time  =          1 seconds =       0.02 minutes
Total time:
	user time   =      88.54 seconds =       1.48 minutes
	system time =      75.74 seconds =       1.26 minutes
	total time  =         16 seconds =       0.27 minutes

*** tstart() called on Joses-MacBook-Pro-2.local
*** at Thu Jul 17 09:31:54 2025

         ------------------------------------------------------------
                                   SCF GRAD
                          Rob Parrish, Justin Turney,
                       Andy Simmonett, and Alex Sokolov
         ------------------------------------------------------------

  ==> Geometry <==

    Molecular point group: c2v
    Full point group: C_inf_v

    Geometry (in Angstrom), charge = -1, multiplicity = 2:

       Center              X                  Y                   Z               Mass
    ------------   -----------------  -----------------  -----------------  -----------------
         LI           0.000000000000     0.000000000000     2.182616634355     7.016003436600
         NA           0.000000000000     0.000000000000    -0.666089581830    22.989769282000

  Nuclear repulsion =    6.130097885452968

  ==> Basis Set <==

  Basis Set: CC-PVDZ
    Blend: CC-PVDZ
    Number of shells: 14
    Number of basis functions: 32
    Number of Cartesian functions: 34
    Spherical Harmonics?: true
    Max angular momentum: 2

  ==> DFJKGrad: Density-Fitted SCF Gradients <==

    Gradient:                    1
    J tasked:                  Yes
    K tasked:                  Yes
    wK tasked:                  No
    OpenMP threads:              1
    Integrals threads:           1
    Memory [MiB]:              375
    Schwarz Cutoff:          1E-12
    Fitting Condition:       1E-10

   => Auxiliary Basis Set <=

  Basis Set: (CC-PVDZ AUX)
    Blend: DEF2-UNIVERSAL-JKFIT
    Number of shells: 51
    Number of basis functions: 163
    Number of Cartesian functions: 197
    Spherical Harmonics?: true
    Max angular momentum: 4

  ==> DFT Potential <==

   => LibXC <=

    Version 6.2.2
    S. Lehtola, C. Steigemann, M. J.T. Oliveira, and M. A.L. Marques.,  SoftwareX 7, 1â€“5 (2018) (10.1016/j.softx.2017.11.002)

   => Composite Functional: B3LYP <=

    B3LYP Hyb-GGA Exchange-Correlation Functional

    P. J. Stephens, F. J. Devlin, C. F. Chabalowski, and M. J. Frisch.,  J. Phys. Chem. 98, 11623 (1994) (10.1021/j100096a001)

    Deriv               =              1
    GGA                 =           TRUE
    Meta                =          FALSE

    Exchange Hybrid     =           TRUE
    MP2 Hybrid          =          FALSE

   => Exchange Functionals <=

    0.0800   Slater exchange
    0.7200         Becke 88

   => Exact (HF) Exchange <=

    0.2000               HF

   => Correlation Functionals <=

    0.1900   Vosko, Wilk & Nusair (VWN5_RPA)
    0.8100   Lee, Yang & Parr

   => LibXC Density Thresholds  <==

    XC_HYB_GGA_XC_B3LYP:  1.00E-15

   => Molecular Quadrature <=

    Radial Scheme          =       TREUTLER
    Pruning Scheme         =           NONE
    Nuclear Scheme         =       TREUTLER

    Blocking Scheme        =         OCTREE
    BS radius alpha        =              1
    Pruning alpha          =              1
    Radial Points          =             75
    Spherical Points       =            302
    Total Points           =          43620
    Total Blocks           =            452
    Max Points             =            256
    Max Functions          =             32
    Weights Tolerance      =       1.00E-15

  -Total Gradient:
     Atom            X                  Y                   Z
    ------   -----------------  -----------------  -----------------
       1        0.000000000000     0.000000000000    -0.000010314038
       2        0.000000000000    -0.000000000000     0.000007025427

*** tstop() called on Joses-MacBook-Pro-2.local at Thu Jul 17 09:31:54 2025
Module time:
	user time   =       0.89 seconds =       0.01 minutes
	system time =       2.08 seconds =       0.03 minutes
	total time  =          0 seconds =       0.00 minutes
Total time:
	user time   =      89.43 seconds =       1.49 minutes
	system time =      77.82 seconds =       1.30 minutes
	total time  =         16 seconds =       0.27 minutes

    			-----------------------------------------

    			 OPTKING 3.0: for geometry optimizations

    			     By R.A. King, Bethel University

    			        with contributions from

    			    A.V. Copan, J. Cayton, A. Heide

    			-----------------------------------------

	                            ===> Fragment 1 <==

	 Z (Atomic Numbers)          Masses                          Geom
	       3.000000             7.016003          0.00000000  0.00000000  4.12454768
	      11.000000            22.989769          0.00000000  0.00000000 -1.25872688

	 - Coordinate -           - BOHR/RAD -       - ANG/DEG -
	 R(1,2)           =         5.383275           2.848706

	        --- Internal Coordinate Step in ANG or DEG, aJ/ANG or AJ/DEG ---
	-------------------------------------------------------------------------------
	           Coordinate      Previous         Force          Change          New
	           ----------      --------        ------          ------        ------
	               R(1,2)       2.84871        0.00007        0.00036       2.84906
	-------------------------------------------------------------------------------

	                                 ==> Convergence Check <==

	Measures of convergence in internal coordinates in au.

	Criteria marked as inactive (o), active & met (*), and active & unmet ( ).

	----------------------------------------------------------------------------------------------
	   Step    Total Energy     Delta E     Max Force     RMS Force      Max Disp      RMS Disp
	----------------------------------------------------------------------------------------------
	  Convergence Criteria     1.00e-06 *    3.00e-04 *             o    1.20e-03 *             o
	----------------------------------------------------------------------------------------------
	    14    -169.80020569   -2.55e-07 *    8.67e-06 *    8.67e-06 o    6.74e-04 *    6.74e-04 o  ~
	----------------------------------------------------------------------------------------------

Next Geometry in Ang
	Fragment 1 (Ang)

	   Li   0.0000000000   0.0000000000   2.1827950253
	   Na   0.0000000000   0.0000000000  -0.6662679727

    Final optimized geometry and variables:
    Molecular point group: c2v
    Full point group: C_inf_v

    Geometry (in Angstrom), charge = -1, multiplicity = 2:

    LI           0.000000000000     0.000000000000     2.182616634355
    NA           0.000000000000     0.000000000000    -0.666089581830

    Psi4 stopped on: Thursday, 17 July 2025 09:31AM
    Psi4 wall time for execution: 0:00:16.97

*** Psi4 exiting successfully. Buy a developer a beer!
