                               Psi4 1.9.1 release

  ==> Input File <==

--------------------------------------------------------------------------
molecule {
-1 2
B   0.00000        0.60000        0.00000
Cl   0.00000       -0.60000        0.00000
}

set {
basis              cc-pvdz
reference          uks
maxiter            500
geom_maxiter       500
DAMPING_PERCENTAGE 1
guess              SAP
}

optimize('b3lyp')
--------------------------------------------------------------------------

    Molecular point group: c2v
  Charge       = -1
  Multiplicity = 2
  Basis Set: CC-PVDZ
    Blend: CC-PVDZ
  Basis Set: (CC-PVDZ AUX)
    Blend: CC-PVDZ-JKFIT
  @DF-UKS Final Energy:  -484.56544038235347
    Total Energy =                       -484.5654403823534722
 Dipole X            :          0.0000000            0.0000000            0.0000000
 Dipole Y            :          0.0000000            0.0000000            0.0000000
 Dipole Z            :         -2.2729142           -0.6073306           -2.8802448
 Magnitude           :                                                    2.8802448
    Molecular point group: c2v
  Basis Set: CC-PVDZ
    Blend: CC-PVDZ
  Basis Set: (CC-PVDZ AUX)
    Blend: CC-PVDZ-JKFIT
  Basis Set: CC-PVDZ
    Blend: CC-PVDZ
  Basis Set: (CC-PVDZ AUX)
    Blend: CC-PVDZ-JKFIT
  @DF-UKS Final Energy:  -484.79065321908769
    Total Energy =                       -484.7906532190876874
  Basis Set: CC-PVDZ
    Blend: CC-PVDZ
  Basis Set: (CC-PVDZ AUX)
    Blend: CC-PVDZ-JKFIT
  Basis Set: CC-PVDZ
    Blend: CC-PVDZ
  @DF-UKS Final Energy:  -484.90128633192609
    Total Energy =                       -484.9012863319260305
  @DF-UKS Final Energy:  -484.95442298409637
    Total Energy =                       -484.9544229840963681
  @DF-UKS Final Energy:  -484.97345075660036
    Total Energy =                       -484.9734507566004140
  @DF-UKS Final Energy:  -484.98482086720509
    Total Energy =                       -484.9848208672051442
  @DF-UKS Final Energy:  -484.99052176271380
    Total Energy =                       -484.9905217627137972
  @DF-UKS Final Energy:  -484.99231076415185
    Total Energy =                       -484.9923107641518527
  @DF-UKS Final Energy:  -484.99310104148299
    Total Energy =                       -484.9931010414829871
  @DF-UKS Final Energy:  -484.99333111915951
    Total Energy =                       -484.9933311191595067
  @DF-UKS Final Energy:  -484.99341789881618
    Total Energy =                       -484.9934178988161761
  @DF-UKS Final Energy:  -484.99343808905240
    Total Energy =                       -484.9934380890524039
  Basis Set: (CC-PVDZ AUX)
    Blend: CC-PVDZ-JKFIT
  Basis Set: CC-PVDZ
    Blend: CC-PVDZ
  Basis Set: (CC-PVDZ AUX)
    Blend: CC-PVDZ-JKFIT
  @DF-UKS Final Energy:  -484.99344020157076
    Total Energy =                       -484.9934402015707633
  Basis Set: CC-PVDZ
    Blend: CC-PVDZ
  Basis Set: (CC-PVDZ AUX)
    Blend: CC-PVDZ-JKFIT
  Charge       = -1
  Multiplicity = 2
  Basis Set: CC-PVDZ
    Blend: CC-PVDZ
  Basis Set: (CC-PVDZ AUX)
    Blend: CC-PVDZ-JKFIT

    Orbital Energies [Eh]
    ---------------------

    Alpha Occupied:

       1A1  -101.292543     2A1    -9.209268     3A1    -6.967665
       1B1    -6.965098     1B2    -6.964138     4A1    -6.553160
       5A1    -0.567779     6A1    -0.200023     2B2    -0.097918
       2B1    -0.097090     7A1    -0.021348     3B2     0.097465

    Alpha Virtual:

       3B1     0.174245     8A1     0.279346     9A1     0.497040
       4B2     0.520403     4B1     0.542661    10A1     0.597661
      11A1     0.718710     5B1     0.794337     5B2     0.797559
       6B2     0.821674     6B1     0.825095     1A2     0.912911
      12A1     0.916720    13A1     1.004906     2A2     1.011963
      14A1     1.014951    15A1     1.170027     7B2     1.236192
       7B1     1.240181    16A1     1.518819

    Beta Occupied:

       1A1  -101.292141     2A1    -9.208868     3A1    -6.967512
       1B1    -6.964921     1B2    -6.962723     4A1    -6.545721
       5A1    -0.564569     6A1    -0.183434     2B1    -0.096320
       2B2    -0.088293     7A1     0.000725

    Beta Virtual:

       3B1     0.184101     3B2     0.215683     8A1     0.289861
       9A1     0.502799     4B1     0.548952     4B2     0.575316
      10A1     0.613883    11A1     0.722254     5B1     0.794386
       5B2     0.800311     6B1     0.825751     6B2     0.842892
      12A1     0.937600     1A2     0.937685    13A1     1.010466
      14A1     1.037235     2A2     1.037648    15A1     1.180120
       7B1     1.242150     7B2     1.261390    16A1     1.524998

    Final Occupation by Irrep:
             A1    A2    B1    B2
    DOCC [     7,    0,    2,    2 ]
    SOCC [     0,    0,    0,    1 ]
    NA   [     7,    0,    2,    3 ]
    NB   [     7,    0,    2,    2 ]

  @DF-UKS Final Energy:  -484.99344029989243

   => Energetics <=

    Nuclear Repulsion Energy =             22.4636284755263063
    One-Electron Energy =                -718.5863091251937931
    Two-Electron Energy =                 237.2728900145262401
    DFT Exchange-Correlation Energy =     -26.1436496647512158
    Empirical Dispersion Energy =           0.0000000000000000
    VV10 Nonlocal Energy =                  0.0000000000000000
    Total Energy =                       -484.9934402998924270

  UHF NO Occupations:
  HONO-2 :    2 B2 1.9998967
  HONO-1 :    7 A1 1.9980708
  HONO-0 :    3 B2 1.0000000
  LUNO+0 :    8 A1 0.0019292
  LUNO+1 :    4 B2 0.0001033
  LUNO+2 :    3 B1 0.0000378
  LUNO+3 :    9 A1 0.0000136

Computation Completed

Properties will be evaluated at   0.000000,   0.000000,   0.000000 [a0]

Properties computed using the SCF density matrix

 Multipole Moments:

 ------------------------------------------------------------------------------------
     Multipole            Electronic (a.u.)      Nuclear  (a.u.)        Total (a.u.)
 ------------------------------------------------------------------------------------

 L = 1.  Multiply by 2.5417464519 to convert [e a0] to [Debye]
 Dipole X            :          0.0000000            0.0000000            0.0000000
 Dipole Y            :          0.0000000            0.0000000            0.0000000
 Dipole Z            :         -0.8160547           -1.0134073           -1.8294621
 Magnitude           :                                                    1.8294621

 ------------------------------------------------------------------------------------

*** tstop() called on Joses-MacBook-Pro-2.local at Thu Jul 17 09:56:06 2025
Module time:
	user time   =       2.72 seconds =       0.05 minutes
	system time =       4.76 seconds =       0.08 minutes
	total time  =          1 seconds =       0.02 minutes
Total time:
	user time   =      65.60 seconds =       1.09 minutes
	system time =      82.01 seconds =       1.37 minutes
	total time  =         14 seconds =       0.23 minutes

*** tstart() called on Joses-MacBook-Pro-2.local
*** at Thu Jul 17 09:56:06 2025

         ------------------------------------------------------------
                                   SCF GRAD
                          Rob Parrish, Justin Turney,
                       Andy Simmonett, and Alex Sokolov
         ------------------------------------------------------------

  ==> Geometry <==

    Molecular point group: c2v
    Full point group: C_inf_v

    Geometry (in Angstrom), charge = -1, multiplicity = 2:

       Center              X                  Y                   Z               Mass
    ------------   -----------------  -----------------  -----------------  -----------------
         B            0.000000000000     0.000000000000     1.522895016339    11.009305360000
         CL           0.000000000000     0.000000000000    -0.479455715020    34.968852682000

  Nuclear repulsion =   22.463628475526306

  ==> Basis Set <==

  Basis Set: CC-PVDZ
    Blend: CC-PVDZ
    Number of shells: 14
    Number of basis functions: 32
    Number of Cartesian functions: 34
    Spherical Harmonics?: true
    Max angular momentum: 2

  ==> DFJKGrad: Density-Fitted SCF Gradients <==

    Gradient:                    1
    J tasked:                  Yes
    K tasked:                  Yes
    wK tasked:                  No
    OpenMP threads:              1
    Integrals threads:           1
    Memory [MiB]:              375
    Schwarz Cutoff:          1E-12
    Fitting Condition:       1E-10

   => Auxiliary Basis Set <=

  Basis Set: (CC-PVDZ AUX)
    Blend: CC-PVDZ-JKFIT
    Number of shells: 60
    Number of basis functions: 182
    Number of Cartesian functions: 211
    Spherical Harmonics?: true
    Max angular momentum: 3

  ==> DFT Potential <==

   => LibXC <=

    Version 6.2.2
    S. Lehtola, C. Steigemann, M. J.T. Oliveira, and M. A.L. Marques.,  SoftwareX 7, 1â€“5 (2018) (10.1016/j.softx.2017.11.002)

   => Composite Functional: B3LYP <=

    B3LYP Hyb-GGA Exchange-Correlation Functional

    P. J. Stephens, F. J. Devlin, C. F. Chabalowski, and M. J. Frisch.,  J. Phys. Chem. 98, 11623 (1994) (10.1021/j100096a001)

    Deriv               =              1
    GGA                 =           TRUE
    Meta                =          FALSE

    Exchange Hybrid     =           TRUE
    MP2 Hybrid          =          FALSE

   => Exchange Functionals <=

    0.0800   Slater exchange
    0.7200         Becke 88

   => Exact (HF) Exchange <=

    0.2000               HF

   => Correlation Functionals <=

    0.1900   Vosko, Wilk & Nusair (VWN5_RPA)
    0.8100   Lee, Yang & Parr

   => LibXC Density Thresholds  <==

    XC_HYB_GGA_XC_B3LYP:  1.00E-15

   => Molecular Quadrature <=

    Radial Scheme          =       TREUTLER
    Pruning Scheme         =           NONE
    Nuclear Scheme         =       TREUTLER

    Blocking Scheme        =         OCTREE
    BS radius alpha        =              1
    Pruning alpha          =              1
    Radial Points          =             75
    Spherical Points       =            302
    Total Points           =          42015
    Total Blocks           =            383
    Max Points             =            255
    Max Functions          =             32
    Weights Tolerance      =       1.00E-15

  -Total Gradient:
     Atom            X                  Y                   Z
    ------   -----------------  -----------------  -----------------
       1        0.000000000000     0.000000000000    -0.000012290102
       2        0.000000000000     0.000000000000     0.000017675535

*** tstop() called on Joses-MacBook-Pro-2.local at Thu Jul 17 09:56:06 2025
Module time:
	user time   =       0.91 seconds =       0.02 minutes
	system time =       1.39 seconds =       0.02 minutes
	total time  =          0 seconds =       0.00 minutes
Total time:
	user time   =      66.57 seconds =       1.11 minutes
	system time =      83.40 seconds =       1.39 minutes
	total time  =         14 seconds =       0.23 minutes

    			-----------------------------------------

    			 OPTKING 3.0: for geometry optimizations

    			     By R.A. King, Bethel University

    			        with contributions from

    			    A.V. Copan, J. Cayton, A. Heide

    			-----------------------------------------

	                            ===> Fragment 1 <==

	 Z (Atomic Numbers)          Masses                          Geom
	       5.000000            11.009305          0.00000000  0.00000000  2.87785450
	      17.000000            34.968853          0.00000000  0.00000000 -0.90603999

	 - Coordinate -           - BOHR/RAD -       - ANG/DEG -
	 R(1,2)           =         3.783894           2.002351

	        --- Internal Coordinate Step in ANG or DEG, aJ/ANG or AJ/DEG ---
	-------------------------------------------------------------------------------
	           Coordinate      Previous         Force          Change          New
	           ----------      --------        ------          ------        ------
	               R(1,2)       2.00235        0.00012        0.00012       2.00247
	-------------------------------------------------------------------------------

	                                 ==> Convergence Check <==

	Measures of convergence in internal coordinates in au.

	Criteria marked as inactive (o), active & met (*), and active & unmet ( ).

	----------------------------------------------------------------------------------------------
	   Step    Total Energy     Delta E     Max Force     RMS Force      Max Disp      RMS Disp
	----------------------------------------------------------------------------------------------
	  Convergence Criteria     1.00e-06 *    3.00e-04 *             o    1.20e-03 *             o
	----------------------------------------------------------------------------------------------
	    14    -484.99344030   -9.83e-08 *    1.50e-05 *    1.50e-05 o    2.25e-04 *    2.25e-04 o  ~
	----------------------------------------------------------------------------------------------

Next Geometry in Ang
	Fragment 1 (Ang)

	    B   0.0000000000   0.0000000000   1.5229545773
	   Cl   0.0000000000   0.0000000000  -0.4795152759

    Final optimized geometry and variables:
    Molecular point group: c2v
    Full point group: C_inf_v

    Geometry (in Angstrom), charge = -1, multiplicity = 2:

    B            0.000000000000     0.000000000000     1.522895016339
    CL           0.000000000000     0.000000000000    -0.479455715020

    Psi4 stopped on: Thursday, 17 July 2025 09:56AM
    Psi4 wall time for execution: 0:00:15.49

*** Psi4 exiting successfully. Buy a developer a beer!
