                               Psi4 1.9.1 release

  ==> Input File <==

--------------------------------------------------------------------------
molecule {
-1 2
H   0.00000        0.60000        0.00000
Cl   0.00000       -0.60000        0.00000
}

set {
basis              cc-pvdz
reference          uks
maxiter            500
geom_maxiter       500
DAMPING_PERCENTAGE 1
guess              SAP
}

optimize('b3lyp')
--------------------------------------------------------------------------

    Molecular point group: c2v
  Charge       = -1
  Multiplicity = 2
  Basis Set: CC-PVDZ
    Blend: CC-PVDZ
  Basis Set: (CC-PVDZ AUX)
    Blend: CC-PVDZ-JKFIT
  @DF-UKS Final Energy:  -460.68795344458857
    Total Energy =                       -460.6879534445885724
 Dipole X            :          0.0000000            0.0000000            0.0000000
 Dipole Y            :          0.0000000            0.0000000            0.0000000
 Dipole Z            :         -2.4577401            1.1242226           -1.3335175
 Magnitude           :                                                    1.3335175
    Molecular point group: c2v
  Basis Set: CC-PVDZ
    Blend: CC-PVDZ
  Basis Set: (CC-PVDZ AUX)
    Blend: CC-PVDZ-JKFIT
  Basis Set: CC-PVDZ
    Blend: CC-PVDZ
  Basis Set: (CC-PVDZ AUX)
    Blend: CC-PVDZ-JKFIT
  @DF-UKS Final Energy:  -460.74223795559283
    Total Energy =                       -460.7422379555928842
  Basis Set: CC-PVDZ
    Blend: CC-PVDZ
  Basis Set: (CC-PVDZ AUX)
    Blend: CC-PVDZ-JKFIT
  Basis Set: CC-PVDZ
    Blend: CC-PVDZ
  @DF-UKS Final Energy:  -460.76281211436435
    Total Energy =                       -460.7628121143643511
  @DF-UKS Final Energy:  -460.77629926413988
    Total Energy =                       -460.7762992641398796
  @DF-UKS Final Energy:  -460.78189987056834
    Total Energy =                       -460.7818998705683384
  @DF-UKS Final Energy:  -460.78385592244064
    Total Energy =                       -460.7838559224405799
  @DF-UKS Final Energy:  -460.78435032832260
    Total Energy =                       -460.7843503283225459
  @DF-UKS Final Energy:  -460.78441532135622
    Total Energy =                       -460.7844153213562208
  @DF-UKS Final Energy:  -460.78442496294468
    Total Energy =                       -460.7844249629446836
  Basis Set: (CC-PVDZ AUX)
    Blend: CC-PVDZ-JKFIT
  Basis Set: CC-PVDZ
    Blend: CC-PVDZ
  Basis Set: (CC-PVDZ AUX)
    Blend: CC-PVDZ-JKFIT
  @DF-UKS Final Energy:  -460.78442648979620
    Total Energy =                       -460.7844264897961466
  Basis Set: CC-PVDZ
    Blend: CC-PVDZ
  Basis Set: (CC-PVDZ AUX)
    Blend: CC-PVDZ-JKFIT
  Charge       = -1
  Multiplicity = 2
  Basis Set: CC-PVDZ
    Blend: CC-PVDZ
  Basis Set: (CC-PVDZ AUX)
    Blend: CC-PVDZ-JKFIT

    Orbital Energies [Eh]
    ---------------------

    Alpha Occupied:

       1A1  -101.214328     2A1    -9.127373     3A1    -6.888129
       1B1    -6.882653     1B2    -6.882653     4A1    -0.474552
       5A1    -0.082731     2B1    -0.013415     2B2    -0.013415
       6A1     0.033864

    Alpha Virtual:

       7A1     0.674913     3B1     0.825771     3B2     0.825771
       8A1     0.856585     9A1     0.938524    10A1     1.017319
       4B1     1.042514     4B2     1.042514     1A2     1.054259
      11A1     1.054259     5B2     1.511569     5B1     1.511569
      12A1     1.747179

    Beta Occupied:

       1A1  -101.212184     2A1    -9.125206     3A1    -6.881802
       1B1    -6.881262     1B2    -6.881262     4A1    -0.460690
       5A1    -0.026281     2B2    -0.008791     2B1    -0.008791

    Beta Virtual:

       6A1     0.164070     7A1     0.755347     3B1     0.828770
       3B2     0.828770     8A1     0.875192     9A1     0.954178
      10A1     1.040947     1A2     1.057586    11A1     1.057586
       4B1     1.057802     4B2     1.057802     5B2     1.606897
       5B1     1.606897    12A1     1.822685

    Final Occupation by Irrep:
             A1    A2    B1    B2
    DOCC [     5,    0,    2,    2 ]
    SOCC [     1,    0,    0,    0 ]
    NA   [     6,    0,    2,    2 ]
    NB   [     5,    0,    2,    2 ]

  @DF-UKS Final Energy:  -460.78442677093147

   => Energetics <=

    Nuclear Repulsion Energy =              4.0988028694128920
    One-Electron Energy =                -650.2339201242185709
    Two-Electron Energy =                 208.5655756384961421
    DFT Exchange-Correlation Energy =     -23.2148851546219746
    Empirical Dispersion Energy =           0.0000000000000000
    VV10 Nonlocal Energy =                  0.0000000000000000
    Total Energy =                       -460.7844267709314749

  UHF NO Occupations:
  HONO-2 :    4 A1 1.9999485
  HONO-1 :    5 A1 1.9987666
  HONO-0 :    6 A1 1.0000000
  LUNO+0 :    7 A1 0.0012334
  LUNO+1 :    8 A1 0.0000515
  LUNO+2 :    3 B2 0.0000128
  LUNO+3 :    3 B1 0.0000128

Computation Completed

Properties will be evaluated at   0.000000,   0.000000,   0.000000 [a0]

Properties computed using the SCF density matrix

 Multipole Moments:

 ------------------------------------------------------------------------------------
     Multipole            Electronic (a.u.)      Nuclear  (a.u.)        Total (a.u.)
 ------------------------------------------------------------------------------------

 L = 1.  Multiply by 2.5417464519 to convert [e a0] to [Debye]
 Dipole X            :          0.0000000            0.0000000            0.0000000
 Dipole Y            :          0.0000000            0.0000000            0.0000000
 Dipole Z            :         -2.9474223            2.0561940           -0.8912283
 Magnitude           :                                                    0.8912283

 ------------------------------------------------------------------------------------

*** tstop() called on Joses-MacBook-Pro-2.local at Thu Jul 17 09:16:16 2025
Module time:
	user time   =       3.61 seconds =       0.06 minutes
	system time =       2.70 seconds =       0.05 minutes
	total time  =          0 seconds =       0.00 minutes
Total time:
	user time   =      55.12 seconds =       0.92 minutes
	system time =      40.00 seconds =       0.67 minutes
	total time  =          9 seconds =       0.15 minutes

*** tstart() called on Joses-MacBook-Pro-2.local
*** at Thu Jul 17 09:16:16 2025

         ------------------------------------------------------------
                                   SCF GRAD
                          Rob Parrish, Justin Turney,
                       Andy Simmonett, and Alex Sokolov
         ------------------------------------------------------------

  ==> Geometry <==

    Molecular point group: c2v
    Full point group: C_inf_v

    Geometry (in Angstrom), charge = -1, multiplicity = 2:

       Center              X                  Y                   Z               Mass
    ------------   -----------------  -----------------  -----------------  -----------------
         H            0.000000000000     0.000000000000     2.133306960384     1.007825032230
         CL           0.000000000000     0.000000000000    -0.061483291307    34.968852682000

  Nuclear repulsion =    4.098802869412892

  ==> Basis Set <==

  Basis Set: CC-PVDZ
    Blend: CC-PVDZ
    Number of shells: 11
    Number of basis functions: 23
    Number of Cartesian functions: 24
    Spherical Harmonics?: true
    Max angular momentum: 2

  ==> DFJKGrad: Density-Fitted SCF Gradients <==

    Gradient:                    1
    J tasked:                  Yes
    K tasked:                  Yes
    wK tasked:                  No
    OpenMP threads:              1
    Integrals threads:           1
    Memory [MiB]:              375
    Schwarz Cutoff:          1E-12
    Fitting Condition:       1E-10

   => Auxiliary Basis Set <=

  Basis Set: (CC-PVDZ AUX)
    Blend: CC-PVDZ-JKFIT
    Number of shells: 45
    Number of basis functions: 135
    Number of Cartesian functions: 155
    Spherical Harmonics?: true
    Max angular momentum: 3

  ==> DFT Potential <==

   => LibXC <=

    Version 6.2.2
    S. Lehtola, C. Steigemann, M. J.T. Oliveira, and M. A.L. Marques.,  SoftwareX 7, 1â€“5 (2018) (10.1016/j.softx.2017.11.002)

   => Composite Functional: B3LYP <=

    B3LYP Hyb-GGA Exchange-Correlation Functional

    P. J. Stephens, F. J. Devlin, C. F. Chabalowski, and M. J. Frisch.,  J. Phys. Chem. 98, 11623 (1994) (10.1021/j100096a001)

    Deriv               =              1
    GGA                 =           TRUE
    Meta                =          FALSE

    Exchange Hybrid     =           TRUE
    MP2 Hybrid          =          FALSE

   => Exchange Functionals <=

    0.0800   Slater exchange
    0.7200         Becke 88

   => Exact (HF) Exchange <=

    0.2000               HF

   => Correlation Functionals <=

    0.1900   Vosko, Wilk & Nusair (VWN5_RPA)
    0.8100   Lee, Yang & Parr

   => LibXC Density Thresholds  <==

    XC_HYB_GGA_XC_B3LYP:  1.00E-15

   => Molecular Quadrature <=

    Radial Scheme          =       TREUTLER
    Pruning Scheme         =           NONE
    Nuclear Scheme         =       TREUTLER

    Blocking Scheme        =         OCTREE
    BS radius alpha        =              1
    Pruning alpha          =              1
    Radial Points          =             75
    Spherical Points       =            302
    Total Points           =          42482
    Total Blocks           =            376
    Max Points             =            256
    Max Functions          =             23
    Weights Tolerance      =       1.00E-15

  -Total Gradient:
     Atom            X                  Y                   Z
    ------   -----------------  -----------------  -----------------
       1       -0.000000000000     0.000000000000    -0.000021715537
       2        0.000000000000     0.000000000000     0.000021563028

*** tstop() called on Joses-MacBook-Pro-2.local at Thu Jul 17 09:16:17 2025
Module time:
	user time   =       1.22 seconds =       0.02 minutes
	system time =       0.73 seconds =       0.01 minutes
	total time  =          1 seconds =       0.02 minutes
Total time:
	user time   =      56.35 seconds =       0.94 minutes
	system time =      40.73 seconds =       0.68 minutes
	total time  =         10 seconds =       0.17 minutes

    			-----------------------------------------

    			 OPTKING 3.0: for geometry optimizations

    			     By R.A. King, Bethel University

    			        with contributions from

    			    A.V. Copan, J. Cayton, A. Heide

    			-----------------------------------------

	                            ===> Fragment 1 <==

	 Z (Atomic Numbers)          Masses                          Geom
	       1.000000             1.007825          0.00000000  0.00000000  4.03136590
	      17.000000            34.968853          0.00000000  0.00000000 -0.11618658

	 - Coordinate -           - BOHR/RAD -       - ANG/DEG -
	 R(1,2)           =         4.147552           2.194790

	        --- Internal Coordinate Step in ANG or DEG, aJ/ANG or AJ/DEG ---
	-------------------------------------------------------------------------------
	           Coordinate      Previous         Force          Change          New
	           ----------      --------        ------          ------        ------
	               R(1,2)       2.19479        0.00018        0.00076       2.19555
	-------------------------------------------------------------------------------

	                                 ==> Convergence Check <==

	Measures of convergence in internal coordinates in au.

	Criteria marked as inactive (o), active & met (*), and active & unmet ( ).

	----------------------------------------------------------------------------------------------
	   Step    Total Energy     Delta E     Max Force     RMS Force      Max Disp      RMS Disp
	----------------------------------------------------------------------------------------------
	  Convergence Criteria     1.00e-06 *    3.00e-04 *             o    1.20e-03 *             o
	----------------------------------------------------------------------------------------------
	    11    -460.78442677   -2.81e-07 *    2.16e-05 *    2.16e-05 o    1.44e-03      1.44e-03 o  ~
	----------------------------------------------------------------------------------------------

Next Geometry in Ang
	Fragment 1 (Ang)

	    H   0.0000000000   0.0000000000   2.1336888505
	   Cl   0.0000000000   0.0000000000  -0.0618651814

    Final optimized geometry and variables:
    Molecular point group: c2v
    Full point group: C_inf_v

    Geometry (in Angstrom), charge = -1, multiplicity = 2:

    H            0.000000000000     0.000000000000     2.133306960384
    CL           0.000000000000     0.000000000000    -0.061483291307

    Psi4 stopped on: Thursday, 17 July 2025 09:16AM
    Psi4 wall time for execution: 0:00:10.08

*** Psi4 exiting successfully. Buy a developer a beer!
