                               Psi4 1.9.1 release

  ==> Input File <==

--------------------------------------------------------------------------
molecule {
-1 2
Ne   0.00000        0.60000        0.00000
Ne   0.00000       -0.60000        0.00000
}

set {
basis              cc-pvdz
reference          uks
maxiter            500
geom_maxiter       500
DAMPING_PERCENTAGE 1
guess              SAP
}

optimize('b3lyp')
--------------------------------------------------------------------------

    Molecular point group: d2h
  Charge       = -1
  Multiplicity = 2
  Basis Set: CC-PVDZ
    Blend: CC-PVDZ
  Basis Set: (CC-PVDZ AUX)
    Blend: CC-PVDZ-JKFIT
  @DF-UKS Final Energy:  -255.78445508748771
    Total Energy =                       -255.7844550874877143
 Dipole X            :          0.0000000            0.0000000            0.0000000
 Dipole Y            :          0.0000000            0.0000000            0.0000000
 Dipole Z            :          0.0000000            0.0000000            0.0000000
 Magnitude           :                                                    0.0000000
    Molecular point group: d2h
  Basis Set: CC-PVDZ
    Blend: CC-PVDZ
  Basis Set: (CC-PVDZ AUX)
    Blend: CC-PVDZ-JKFIT
  Basis Set: CC-PVDZ
    Blend: CC-PVDZ
  Basis Set: (CC-PVDZ AUX)
    Blend: CC-PVDZ-JKFIT
  @DF-UKS Final Energy:  -256.23045702088120
    Total Energy =                       -256.2304570208812038
  Basis Set: CC-PVDZ
    Blend: CC-PVDZ
  Basis Set: (CC-PVDZ AUX)
    Blend: CC-PVDZ-JKFIT
  Basis Set: CC-PVDZ
    Blend: CC-PVDZ
  @DF-UKS Final Energy:  -256.30598141645550
    Total Energy =                       -256.3059814164554950
  @DF-UKS Final Energy:  -256.34895790024774
    Total Energy =                       -256.3489579002477399
  @DF-UKS Final Energy:  -256.36241344062449
    Total Energy =                       -256.3624134406244934
  @DF-UKS Final Energy:  -256.36789278966802
    Total Energy =                       -256.3678927896680193
  @DF-UKS Final Energy:  -256.36975795852402
    Total Energy =                       -256.3697579585240192
  @DF-UKS Final Energy:  -256.37009180882501
    Total Energy =                       -256.3700918088250091
  @DF-UKS Final Energy:  -256.37016036323234
    Total Energy =                       -256.3701603632323440
  Basis Set: (CC-PVDZ AUX)
    Blend: CC-PVDZ-JKFIT
  Basis Set: CC-PVDZ
    Blend: CC-PVDZ
  Basis Set: (CC-PVDZ AUX)
    Blend: CC-PVDZ-JKFIT
  @DF-UKS Final Energy:  -256.37017752591123
    Total Energy =                       -256.3701775259112310
  Basis Set: CC-PVDZ
    Blend: CC-PVDZ
  Basis Set: (CC-PVDZ AUX)
    Blend: CC-PVDZ-JKFIT
  Charge       = -1
  Multiplicity = 2
  Basis Set: CC-PVDZ
    Blend: CC-PVDZ
  Basis Set: (CC-PVDZ AUX)
    Blend: CC-PVDZ-JKFIT

    Orbital Energies [Eh]
    ---------------------

    Alpha Occupied:

       1B2u  -30.443881     1Ag   -30.443858     2Ag    -1.005566
       2B2u   -0.977847     3Ag    -0.149053     1B1u   -0.128619
       1B3u   -0.117863     1B3g   -0.106200     1B1g   -0.094737
       3B2u   -0.046317     2B1u    1.578788

    Alpha Virtual:

       4Ag     1.634363     2B3u    1.679943     2B3g    1.785941
       2B1g    1.834523     4B2u    1.892415     5Ag     2.131691
       5B2u    2.627912     3B3u    5.167080     3B1g    5.168075
       6Ag     5.169892     6B2u    5.173707     1B2g    5.174338
       1Au     5.174351     3B1u    5.177571     3B3g    5.178529
       7Ag     5.183010     7B2u    5.204596

    Beta Occupied:

       1B2u  -30.423538     1Ag   -30.423508     2Ag    -0.987120
       2B2u   -0.959146     3Ag    -0.139155     1B3u   -0.108284
       1B1g   -0.084978     1B1u   -0.074959     1B3g   -0.050979
       3B2u   -0.036306

    Beta Virtual:

       4Ag     1.651740     2B3u    1.694342     2B1u    1.725383
       2B1g    1.849175     2B3g    1.880553     4B2u    1.911465
       5Ag     2.162851     5B2u    2.655573     3B3u    5.169253
       3B1g    5.170257     6Ag     5.173182     6B2u    5.182665
       1B2g    5.188816     1Au     5.188828     3B1u    5.191942
       3B3g    5.192967     7Ag     5.199710     7B2u    5.216487

    Final Occupation by Irrep:
             Ag   B1g   B2g   B3g    Au   B1u   B2u   B3u
    DOCC [     3,    1,    0,    1,    0,    1,    3,    1 ]
    SOCC [     0,    0,    0,    0,    0,    1,    0,    0 ]
    NA   [     3,    1,    0,    1,    0,    2,    3,    1 ]
    NB   [     3,    1,    0,    1,    0,    1,    3,    1 ]

  @DF-UKS Final Energy:  -256.37017981994978

   => Energetics <=

    Nuclear Repulsion Energy =             27.3372391806038664
    One-Electron Energy =                -427.3987496552085190
    Two-Electron Energy =                 164.3655115227657859
    DFT Exchange-Correlation Energy =     -20.6741808681109518
    Empirical Dispersion Energy =           0.0000000000000000
    VV10 Nonlocal Energy =                  0.0000000000000000
    Total Energy =                       -256.3701798199497830

  UHF NO Occupations:
  HONO-2 :    3B2u 1.9999922
  HONO-1 :    1B3g 1.9998254
  HONO-0 :    2B1u 1.0000000
  LUNO+0 :    2B3g 0.0001746
  LUNO+1 :    4B2u 0.0000078
  LUNO+2 :    4 Ag 0.0000077
  LUNO+3 :    2B3u 0.0000019

Computation Completed

Properties will be evaluated at   0.000000,   0.000000,   0.000000 [a0]

Properties computed using the SCF density matrix

 Multipole Moments:

 ------------------------------------------------------------------------------------
     Multipole            Electronic (a.u.)      Nuclear  (a.u.)        Total (a.u.)
 ------------------------------------------------------------------------------------

 L = 1.  Multiply by 2.5417464519 to convert [e a0] to [Debye]
 Dipole X            :          0.0000000            0.0000000            0.0000000
 Dipole Y            :          0.0000000            0.0000000            0.0000000
 Dipole Z            :          0.0000000            0.0000000            0.0000000
 Magnitude           :                                                    0.0000000

 ------------------------------------------------------------------------------------

*** tstop() called on Joses-MacBook-Pro-2.local at Thu Jul 17 10:57:24 2025
Module time:
	user time   =       2.54 seconds =       0.04 minutes
	system time =       2.98 seconds =       0.05 minutes
	total time  =          1 seconds =       0.02 minutes
Total time:
	user time   =      42.17 seconds =       0.70 minutes
	system time =      48.17 seconds =       0.80 minutes
	total time  =          9 seconds =       0.15 minutes

*** tstart() called on Joses-MacBook-Pro-2.local
*** at Thu Jul 17 10:57:24 2025

         ------------------------------------------------------------
                                   SCF GRAD
                          Rob Parrish, Justin Turney,
                       Andy Simmonett, and Alex Sokolov
         ------------------------------------------------------------

  ==> Geometry <==

    Molecular point group: d2h
    Full point group: D_inf_h

    Geometry (in Angstrom), charge = -1, multiplicity = 2:

       Center              X                  Y                   Z               Mass
    ------------   -----------------  -----------------  -----------------  -----------------
         NE          -0.000000000000     0.967868787287     0.000000000000    19.992440176200
         NE           0.000000000000    -0.967868787287     0.000000000000    19.992440176200

  Nuclear repulsion =   27.337239180603866

  ==> Basis Set <==

  Basis Set: CC-PVDZ
    Blend: CC-PVDZ
    Number of shells: 12
    Number of basis functions: 28
    Number of Cartesian functions: 30
    Spherical Harmonics?: true
    Max angular momentum: 2

  ==> DFJKGrad: Density-Fitted SCF Gradients <==

    Gradient:                    1
    J tasked:                  Yes
    K tasked:                  Yes
    wK tasked:                  No
    OpenMP threads:              1
    Integrals threads:           1
    Memory [MiB]:              375
    Schwarz Cutoff:          1E-12
    Fitting Condition:       1E-10

   => Auxiliary Basis Set <=

  Basis Set: (CC-PVDZ AUX)
    Blend: CC-PVDZ-JKFIT
    Number of shells: 48
    Number of basis functions: 140
    Number of Cartesian functions: 162
    Spherical Harmonics?: true
    Max angular momentum: 3

  ==> DFT Potential <==

   => LibXC <=

    Version 6.2.2
    S. Lehtola, C. Steigemann, M. J.T. Oliveira, and M. A.L. Marques.,  SoftwareX 7, 1â€“5 (2018) (10.1016/j.softx.2017.11.002)

   => Composite Functional: B3LYP <=

    B3LYP Hyb-GGA Exchange-Correlation Functional

    P. J. Stephens, F. J. Devlin, C. F. Chabalowski, and M. J. Frisch.,  J. Phys. Chem. 98, 11623 (1994) (10.1021/j100096a001)

    Deriv               =              1
    GGA                 =           TRUE
    Meta                =          FALSE

    Exchange Hybrid     =           TRUE
    MP2 Hybrid          =          FALSE

   => Exchange Functionals <=

    0.0800   Slater exchange
    0.7200         Becke 88

   => Exact (HF) Exchange <=

    0.2000               HF

   => Correlation Functionals <=

    0.1900   Vosko, Wilk & Nusair (VWN5_RPA)
    0.8100   Lee, Yang & Parr

   => LibXC Density Thresholds  <==

    XC_HYB_GGA_XC_B3LYP:  1.00E-15

   => Molecular Quadrature <=

    Radial Scheme          =       TREUTLER
    Pruning Scheme         =           NONE
    Nuclear Scheme         =       TREUTLER

    Blocking Scheme        =         OCTREE
    BS radius alpha        =              1
    Pruning alpha          =              1
    Radial Points          =             75
    Spherical Points       =            302
    Total Points           =          41994
    Total Blocks           =            386
    Max Points             =            236
    Max Functions          =             28
    Weights Tolerance      =       1.00E-15

  -Total Gradient:
     Atom            X                  Y                   Z
    ------   -----------------  -----------------  -----------------
       1        0.000000000000    -0.000176892268     0.000000000000
       2       -0.000000000000     0.000176892268     0.000000000000

*** tstop() called on Joses-MacBook-Pro-2.local at Thu Jul 17 10:57:24 2025
Module time:
	user time   =       0.40 seconds =       0.01 minutes
	system time =       1.24 seconds =       0.02 minutes
	total time  =          0 seconds =       0.00 minutes
Total time:
	user time   =      42.57 seconds =       0.71 minutes
	system time =      49.42 seconds =       0.82 minutes
	total time  =          9 seconds =       0.15 minutes

    			-----------------------------------------

    			 OPTKING 3.0: for geometry optimizations

    			     By R.A. King, Bethel University

    			        with contributions from

    			    A.V. Copan, J. Cayton, A. Heide

    			-----------------------------------------

	                            ===> Fragment 1 <==

	 Z (Atomic Numbers)          Masses                          Geom
	      10.000000            19.992440         -0.00000000  1.82900693  0.00000000
	      10.000000            19.992440          0.00000000 -1.82900693  0.00000000

	 - Coordinate -           - BOHR/RAD -       - ANG/DEG -
	 R(1,2)           =         3.658014           1.935738

	        --- Internal Coordinate Step in ANG or DEG, aJ/ANG or AJ/DEG ---
	-------------------------------------------------------------------------------
	           Coordinate      Previous         Force          Change          New
	           ----------      --------        ------          ------        ------
	               R(1,2)       1.93574        0.00146        0.00060       1.93633
	-------------------------------------------------------------------------------

	                                 ==> Convergence Check <==

	Measures of convergence in internal coordinates in au.

	Criteria marked as inactive (o), active & met (*), and active & unmet ( ).

	----------------------------------------------------------------------------------------------
	   Step    Total Energy     Delta E     Max Force     RMS Force      Max Disp      RMS Disp
	----------------------------------------------------------------------------------------------
	  Convergence Criteria     1.00e-06 *    3.00e-04 *             o    1.20e-03 *             o
	----------------------------------------------------------------------------------------------
	    11    -256.37017982   -2.29e-06      1.77e-04 *    1.77e-04 o    1.13e-03 *    1.13e-03 o  ~
	----------------------------------------------------------------------------------------------

Next Geometry in Ang
	Fragment 1 (Ang)

	   Ne  -0.0000000000   0.9681674499   0.0000000000
	   Ne   0.0000000000  -0.9681674499   0.0000000000

    Final optimized geometry and variables:
    Molecular point group: d2h
    Full point group: D_inf_h

    Geometry (in Angstrom), charge = -1, multiplicity = 2:

    NE          -0.000000000000     0.967868787287     0.000000000000
    NE           0.000000000000    -0.967868787287     0.000000000000

    Psi4 stopped on: Thursday, 17 July 2025 10:57AM
    Psi4 wall time for execution: 0:00:10.05

*** Psi4 exiting successfully. Buy a developer a beer!
