                               Psi4 1.9.1 release

  ==> Input File <==

--------------------------------------------------------------------------
molecule {
-1 2
Be   0.00000        0.60000        0.00000
Ar   0.00000       -0.60000        0.00000
}

set {
basis              cc-pvdz
reference          uks
maxiter            500
geom_maxiter       500
DAMPING_PERCENTAGE 1
guess              SAP
}

optimize('b3lyp')
--------------------------------------------------------------------------

    Molecular point group: c2v
  Charge       = -1
  Multiplicity = 2
  Basis Set: CC-PVDZ
    Blend: CC-PVDZ
  Basis Set: (CC-PVDZ AUX)
    Blend: CC-PVDZ-JKFIT + DEF2-UNIVERSAL-JKFIT
  @DF-UKS Final Energy:  -541.63725600714042
    Total Energy =                       -541.6372560071404223
 Dipole X            :          0.0000000            0.0000000            0.0000000
 Dipole Y            :          0.0000000            0.0000000            0.0000000
 Dipole Z            :         -3.8311242           -0.1097272           -3.9408514
 Magnitude           :                                                    3.9408514
    Molecular point group: c2v
  Basis Set: CC-PVDZ
    Blend: CC-PVDZ
  Basis Set: (CC-PVDZ AUX)
    Blend: CC-PVDZ-JKFIT + DEF2-UNIVERSAL-JKFIT
  Basis Set: CC-PVDZ
    Blend: CC-PVDZ
  Basis Set: (CC-PVDZ AUX)
    Blend: CC-PVDZ-JKFIT + DEF2-UNIVERSAL-JKFIT
  @DF-UKS Final Energy:  -541.84606195842332
    Total Energy =                       -541.8460619584233200
  Basis Set: CC-PVDZ
    Blend: CC-PVDZ
  Basis Set: (CC-PVDZ AUX)
    Blend: CC-PVDZ-JKFIT + DEF2-UNIVERSAL-JKFIT
  Basis Set: CC-PVDZ
    Blend: CC-PVDZ
  @DF-UKS Final Energy:  -541.97384124299174
    Total Energy =                       -541.9738412429917389
  @DF-UKS Final Energy:  -542.04650829175682
    Total Energy =                       -542.0465082917568225
  @DF-UKS Final Energy:  -542.08964449245434
    Total Energy =                       -542.0896444924542266
  @DF-UKS Final Energy:  -542.11982922426796
    Total Energy =                       -542.1198292242679599
  @DF-UKS Final Energy:  -542.14359171196861
    Total Energy =                       -542.1435917119686110
  @DF-UKS Final Energy:  -542.16114201296386
    Total Energy =                       -542.1611420129638645
  @DF-UKS Final Energy:  -542.16247700023268
    Total Energy =                       -542.1624770002326841
  @DF-UKS Final Energy:  -542.17308426845148
    Total Energy =                       -542.1730842684514755
  @DF-UKS Final Energy:  -542.17350492096932
    Total Energy =                       -542.1735049209693216
  @DF-UKS Final Energy:  -542.17850580196864
    Total Energy =                       -542.1785058019686403
  @DF-UKS Final Energy:  -542.17862696592363
    Total Energy =                       -542.1786269659236268
  @DF-UKS Final Energy:  -542.18100088300343
    Total Energy =                       -542.1810008830034349
  @DF-UKS Final Energy:  -542.18103418708415
    Total Energy =                       -542.1810341870841512
  @DF-UKS Final Energy:  -542.18215357561849
    Total Energy =                       -542.1821535756184858
  @DF-UKS Final Energy:  -542.18216219656165
    Total Energy =                       -542.1821621965616487
  @DF-UKS Final Energy:  -542.18217068244110
    Total Energy =                       -542.1821706824409830
  @DF-UKS Final Energy:  -542.18267439472925
    Total Energy =                       -542.1826743947292471
  @DF-UKS Final Energy:  -542.18267641170337
    Total Energy =                       -542.1826764117033690
  @DF-UKS Final Energy:  -542.18267840879230
    Total Energy =                       -542.1826784087922988
  @DF-UKS Final Energy:  -542.18268038766519
    Total Energy =                       -542.1826803876651866
  @DF-UKS Final Energy:  -542.18268234851780
    Total Energy =                       -542.1826823485178011
  @DF-UKS Final Energy:  -542.18289332811742
    Total Energy =                       -542.1828933281174159
  @DF-UKS Final Energy:  -542.18296185381485
    Total Energy =                       -542.1829618538148452
  @DF-UKS Final Energy:  -542.18299204622872
    Total Energy =                       -542.1829920462287191
  @DF-UKS Final Energy:  -542.18300179431196
    Total Energy =                       -542.1830017943119628
  Basis Set: (CC-PVDZ AUX)
    Blend: CC-PVDZ-JKFIT + DEF2-UNIVERSAL-JKFIT
  Basis Set: CC-PVDZ
    Blend: CC-PVDZ
  Basis Set: (CC-PVDZ AUX)
    Blend: CC-PVDZ-JKFIT + DEF2-UNIVERSAL-JKFIT
  @DF-UKS Final Energy:  -542.18300417537705
    Total Energy =                       -542.1830041753769365
  Basis Set: CC-PVDZ
    Blend: CC-PVDZ
  Basis Set: (CC-PVDZ AUX)
    Blend: CC-PVDZ-JKFIT + DEF2-UNIVERSAL-JKFIT
  Charge       = -1
  Multiplicity = 2
  Basis Set: CC-PVDZ
    Blend: CC-PVDZ
  Basis Set: (CC-PVDZ AUX)
    Blend: CC-PVDZ-JKFIT + DEF2-UNIVERSAL-JKFIT

    Orbital Energies [Eh]
    ---------------------

    Alpha Occupied:

       1A1  -114.994022     2A1   -11.030097     1B1    -8.580019
       1B2    -8.580006     3A1    -8.579871     4A1    -3.808218
       5A1    -0.858393     2B1    -0.316752     2B2    -0.316601
       6A1    -0.314879     7A1    -0.002984     3B2     0.112276

    Alpha Virtual:

       3B1     0.167331     8A1     0.167398     9A1     0.398748
       4B2     0.400189    10A1     0.414851     4B1     0.416921
       5B1     0.686601     5B2     0.686899    11A1     0.701140
       1A2     0.708963     6B2     0.708982    12A1     0.713474
       6B1     0.722916    13A1     0.725522    14A1     0.843192
       2A2     0.941202    15A1     0.941224     7B1     0.942151
       7B2     0.942241    16A1     0.943344

    Beta Occupied:

       1A1  -114.994020     2A1   -11.030095     1B1    -8.580017
       1B2    -8.580002     3A1    -8.579869     4A1    -3.806168
       5A1    -0.858386     2B1    -0.316753     2B2    -0.316598
       6A1    -0.314891     7A1     0.019744

    Beta Virtual:

       3B1     0.171575     8A1     0.171677     3B2     0.193154
       9A1     0.409832    10A1     0.415266     4B1     0.416854
       4B2     0.436090     5B1     0.686576     5B2     0.686931
      11A1     0.702009     6B1     0.720473    12A1     0.723178
       6B2     0.741739     1A2     0.741756    13A1     0.749785
      14A1     0.843302     2A2     0.941208    15A1     0.941229
       7B1     0.942154     7B2     0.942249    16A1     0.943355

    Final Occupation by Irrep:
             A1    A2    B1    B2
    DOCC [     7,    0,    2,    2 ]
    SOCC [     0,    0,    0,    1 ]
    NA   [     7,    0,    2,    3 ]
    NB   [     7,    0,    2,    2 ]

  @DF-UKS Final Energy:  -542.18300438013102

   => Energetics <=

    Nuclear Repulsion Energy =              7.7503197566220967
    One-Electron Energy =                -765.8422029093436549
    Two-Electron Energy =                 243.1823365878494485
    DFT Exchange-Correlation Energy =     -27.2734578152589293
    Empirical Dispersion Energy =           0.0000000000000000
    VV10 Nonlocal Energy =                  0.0000000000000000
    Total Energy =                       -542.1830043801310239

  UHF NO Occupations:
  HONO-2 :    6 A1 2.0000000
  HONO-1 :    7 A1 1.9987151
  HONO-0 :    3 B2 1.0000000
  LUNO+0 :    8 A1 0.0012849
  LUNO+1 :    9 A1 0.0000000
  LUNO+2 :   10 A1 0.0000000
  LUNO+3 :    4 B2 0.0000000

Computation Completed

Properties will be evaluated at   0.000000,   0.000000,   0.000000 [a0]

Properties computed using the SCF density matrix

 Multipole Moments:

 ------------------------------------------------------------------------------------
     Multipole            Electronic (a.u.)      Nuclear  (a.u.)        Total (a.u.)
 ------------------------------------------------------------------------------------

 L = 1.  Multiply by 2.5417464519 to convert [e a0] to [Debye]
 Dipole X            :          0.0000000            0.0000000            0.0000000
 Dipole Y            :          0.0000000            0.0000000            0.0000000
 Dipole Z            :         -7.0932425           -0.4495180           -7.5427606
 Magnitude           :                                                    7.5427606

 ------------------------------------------------------------------------------------

*** tstop() called on Joses-MacBook-Pro-2.local at Thu Jul 17 09:48:15 2025
Module time:
	user time   =       2.67 seconds =       0.04 minutes
	system time =       2.64 seconds =       0.04 minutes
	total time  =          1 seconds =       0.02 minutes
Total time:
	user time   =     119.12 seconds =       1.99 minutes
	system time =     163.27 seconds =       2.72 minutes
	total time  =         27 seconds =       0.45 minutes

*** tstart() called on Joses-MacBook-Pro-2.local
*** at Thu Jul 17 09:48:15 2025

         ------------------------------------------------------------
                                   SCF GRAD
                          Rob Parrish, Justin Turney,
                       Andy Simmonett, and Alex Sokolov
         ------------------------------------------------------------

  ==> Geometry <==

    Molecular point group: c2v
    Full point group: C_inf_v

    Geometry (in Angstrom), charge = -1, multiplicity = 2:

       Center              X                  Y                   Z               Mass
    ------------   -----------------  -----------------  -----------------  -----------------
         BE           0.000000000000     0.000000000000     4.011389098469     9.012183065000
         AR           0.000000000000     0.000000000000    -0.904635061139    39.962383123700

  Nuclear repulsion =    7.750319756622097

  ==> Basis Set <==

  Basis Set: CC-PVDZ
    Blend: CC-PVDZ
    Number of shells: 14
    Number of basis functions: 32
    Number of Cartesian functions: 34
    Spherical Harmonics?: true
    Max angular momentum: 2

  ==> DFJKGrad: Density-Fitted SCF Gradients <==

    Gradient:                    1
    J tasked:                  Yes
    K tasked:                  Yes
    wK tasked:                  No
    OpenMP threads:              1
    Integrals threads:           1
    Memory [MiB]:              375
    Schwarz Cutoff:          1E-12
    Fitting Condition:       1E-10

   => Auxiliary Basis Set <=

  Basis Set: (CC-PVDZ AUX)
    Blend: CC-PVDZ-JKFIT + DEF2-UNIVERSAL-JKFIT
    Number of shells: 53
    Number of basis functions: 163
    Number of Cartesian functions: 190
    Spherical Harmonics?: true
    Max angular momentum: 3

  ==> DFT Potential <==

   => LibXC <=

    Version 6.2.2
    S. Lehtola, C. Steigemann, M. J.T. Oliveira, and M. A.L. Marques.,  SoftwareX 7, 1â€“5 (2018) (10.1016/j.softx.2017.11.002)

   => Composite Functional: B3LYP <=

    B3LYP Hyb-GGA Exchange-Correlation Functional

    P. J. Stephens, F. J. Devlin, C. F. Chabalowski, and M. J. Frisch.,  J. Phys. Chem. 98, 11623 (1994) (10.1021/j100096a001)

    Deriv               =              1
    GGA                 =           TRUE
    Meta                =          FALSE

    Exchange Hybrid     =           TRUE
    MP2 Hybrid          =          FALSE

   => Exchange Functionals <=

    0.0800   Slater exchange
    0.7200         Becke 88

   => Exact (HF) Exchange <=

    0.2000               HF

   => Correlation Functionals <=

    0.1900   Vosko, Wilk & Nusair (VWN5_RPA)
    0.8100   Lee, Yang & Parr

   => LibXC Density Thresholds  <==

    XC_HYB_GGA_XC_B3LYP:  1.00E-15

   => Molecular Quadrature <=

    Radial Scheme          =       TREUTLER
    Pruning Scheme         =           NONE
    Nuclear Scheme         =       TREUTLER

    Blocking Scheme        =         OCTREE
    BS radius alpha        =              1
    Pruning alpha          =              1
    Radial Points          =             75
    Spherical Points       =            302
    Total Points           =          42935
    Total Blocks           =            445
    Max Points             =            256
    Max Functions          =             32
    Weights Tolerance      =       1.00E-15

  -Total Gradient:
     Atom            X                  Y                   Z
    ------   -----------------  -----------------  -----------------
       1       -0.000000000000     0.000000000000    -0.000005684102
       2        0.000000000000     0.000000000000    -0.000003439463

*** tstop() called on Joses-MacBook-Pro-2.local at Thu Jul 17 09:48:15 2025
Module time:
	user time   =       0.73 seconds =       0.01 minutes
	system time =       1.38 seconds =       0.02 minutes
	total time  =          0 seconds =       0.00 minutes
Total time:
	user time   =     119.85 seconds =       2.00 minutes
	system time =     164.65 seconds =       2.74 minutes
	total time  =         27 seconds =       0.45 minutes

    			-----------------------------------------

    			 OPTKING 3.0: for geometry optimizations

    			     By R.A. King, Bethel University

    			        with contributions from

    			    A.V. Copan, J. Cayton, A. Heide

    			-----------------------------------------

	                            ===> Fragment 1 <==

	 Z (Atomic Numbers)          Masses                          Geom
	       4.000000             9.012183          0.00000000  0.00000000  7.58042678
	      18.000000            39.962383          0.00000000  0.00000000 -1.70951251

	 - Coordinate -           - BOHR/RAD -       - ANG/DEG -
	 R(1,2)           =         9.289939           4.916024

	        --- Internal Coordinate Step in ANG or DEG, aJ/ANG or AJ/DEG ---
	-------------------------------------------------------------------------------
	           Coordinate      Previous         Force          Change          New
	           ----------      --------        ------          ------        ------
	               R(1,2)       4.91602        0.00001        0.00387       4.91990
	-------------------------------------------------------------------------------

	                                 ==> Convergence Check <==

	Measures of convergence in internal coordinates in au.

	Criteria marked as inactive (o), active & met (*), and active & unmet ( ).

	----------------------------------------------------------------------------------------------
	   Step    Total Energy     Delta E     Max Force     RMS Force      Max Disp      RMS Disp
	----------------------------------------------------------------------------------------------
	  Convergence Criteria     1.00e-06 *    3.00e-04 *             o    1.20e-03 *             o
	----------------------------------------------------------------------------------------------
	    29    -542.18300438   -2.05e-07 *    1.12e-06 *    1.12e-06 o    7.32e-03      7.32e-03 o  ~
	----------------------------------------------------------------------------------------------

Next Geometry in Ang
	Fragment 1 (Ang)

	   Be   0.0000000000   0.0000000000   4.0133256550
	   Ar   0.0000000000   0.0000000000  -0.9065716177

    Final optimized geometry and variables:
    Molecular point group: c2v
    Full point group: C_inf_v

    Geometry (in Angstrom), charge = -1, multiplicity = 2:

    BE           0.000000000000     0.000000000000     4.011389098469
    AR           0.000000000000     0.000000000000    -0.904635061139

    Psi4 stopped on: Thursday, 17 July 2025 09:48AM
    Psi4 wall time for execution: 0:00:27.89

*** Psi4 exiting successfully. Buy a developer a beer!
