                               Psi4 1.9.1 release

  ==> Input File <==

--------------------------------------------------------------------------
molecule {
-1 2
C   0.00000        0.60000        0.00000
C   0.00000       -0.60000        0.00000
}

set {
basis              cc-pvdz
reference          uks
maxiter            500
geom_maxiter       500
DAMPING_PERCENTAGE 1
guess              SAP
}

optimize('b3lyp')
--------------------------------------------------------------------------

    Molecular point group: d2h
  Charge       = -1
  Multiplicity = 2
  Basis Set: CC-PVDZ
    Blend: CC-PVDZ
  Basis Set: (CC-PVDZ AUX)
    Blend: CC-PVDZ-JKFIT
  @DF-UKS Final Energy:   -76.01854384659529
    Total Energy =                        -76.0185438465952927
 Dipole X            :          0.0000000            0.0000000            0.0000000
 Dipole Y            :          0.0000000            0.0000000            0.0000000
 Dipole Z            :          0.0000000            0.0000000            0.0000000
 Magnitude           :                                                    0.0000000
    Molecular point group: d2h
  Basis Set: CC-PVDZ
    Blend: CC-PVDZ
  Basis Set: (CC-PVDZ AUX)
    Blend: CC-PVDZ-JKFIT
  Basis Set: CC-PVDZ
    Blend: CC-PVDZ
  Basis Set: (CC-PVDZ AUX)
    Blend: CC-PVDZ-JKFIT
  @DF-UKS Final Energy:   -76.02691858601278
    Total Energy =                        -76.0269185860128118
  Basis Set: CC-PVDZ
    Blend: CC-PVDZ
  Basis Set: (CC-PVDZ AUX)
    Blend: CC-PVDZ-JKFIT
  Basis Set: CC-PVDZ
    Blend: CC-PVDZ
  @DF-UKS Final Energy:   -76.02696480096931
    Total Energy =                        -76.0269648009693100
  Basis Set: (CC-PVDZ AUX)
    Blend: CC-PVDZ-JKFIT
  Basis Set: CC-PVDZ
    Blend: CC-PVDZ
  Basis Set: (CC-PVDZ AUX)
    Blend: CC-PVDZ-JKFIT
  @DF-UKS Final Energy:   -76.02696656744972
    Total Energy =                        -76.0269665674497190
  Basis Set: CC-PVDZ
    Blend: CC-PVDZ
  Basis Set: (CC-PVDZ AUX)
    Blend: CC-PVDZ-JKFIT
  Charge       = -1
  Multiplicity = 2
  Basis Set: CC-PVDZ
    Blend: CC-PVDZ
  Basis Set: (CC-PVDZ AUX)
    Blend: CC-PVDZ-JKFIT

    Orbital Energies [Eh]
    ---------------------

    Alpha Occupied:

       1Ag    -9.910784     1B2u   -9.909381     2Ag    -0.445222
       2B2u   -0.105959     3Ag    -0.014491     1B3u    0.009337
       1B1u    0.009337

    Alpha Virtual:

       1B1g    0.317390     1B3g    0.317390     3B2u    0.524590
       4Ag     0.688014     2B3u    0.735427     2B1u    0.735427
       5Ag     0.836932     2B3g    0.843360     2B1g    0.843360
       4B2u    0.949575     5B2u    1.327859     1B2g    1.330304
       6Ag     1.330304     3B3u    1.425540     3B1u    1.425540
       1Au     1.688735     6B2u    1.688735     7Ag     2.076403
       3B1g    2.132120     3B3g    2.132120     7B2u    2.342694

    Beta Occupied:

       1Ag    -9.902910     1B2u   -9.901731     2Ag    -0.415038
       2B2u   -0.042720     1B3u    0.018135     1B1u    0.018135

    Beta Virtual:

       3Ag     0.120557     1B1g    0.331862     1B3g    0.331862
       3B2u    0.539182     4Ag     0.716924     2B3u    0.741644
       2B1u    0.741644     2B3g    0.851993     2B1g    0.851993
       5Ag     0.865128     4B2u    1.006471     1B2g    1.334986
       6Ag     1.334986     5B2u    1.337375     3B3u    1.459545
       3B1u    1.459545     1Au     1.695548     6B2u    1.695548
       7Ag     2.113152     3B1g    2.164118     3B3g    2.164118
       7B2u    2.389780

    Final Occupation by Irrep:
             Ag   B1g   B2g   B3g    Au   B1u   B2u   B3u
    DOCC [     2,    0,    0,    0,    0,    1,    2,    1 ]
    SOCC [     1,    0,    0,    0,    0,    0,    0,    0 ]
    NA   [     3,    0,    0,    0,    0,    1,    2,    1 ]
    NB   [     2,    0,    0,    0,    0,    1,    2,    1 ]

  @DF-UKS Final Energy:   -76.02696663148140

   => Energetics <=

    Nuclear Repulsion Energy =             14.9773983948291765
    One-Electron Energy =                -135.0610640149520236
    Two-Electron Energy =                  52.8745988543871306
    DFT Exchange-Correlation Energy =      -8.8178998657456802
    Empirical Dispersion Energy =           0.0000000000000000
    VV10 Nonlocal Energy =                  0.0000000000000000
    Total Energy =                        -76.0269666314814003

  UHF NO Occupations:
  HONO-2 :    2 Ag 1.9997649
  HONO-1 :    2B2u 1.9987670
  HONO-0 :    3 Ag 1.0000000
  LUNO+0 :    3B2u 0.0012330
  LUNO+1 :    4 Ag 0.0002351
  LUNO+2 :    2B1u 0.0000498
  LUNO+3 :    2B3u 0.0000498

Computation Completed

Properties will be evaluated at   0.000000,   0.000000,   0.000000 [a0]

Properties computed using the SCF density matrix

 Multipole Moments:

 ------------------------------------------------------------------------------------
     Multipole            Electronic (a.u.)      Nuclear  (a.u.)        Total (a.u.)
 ------------------------------------------------------------------------------------

 L = 1.  Multiply by 2.5417464519 to convert [e a0] to [Debye]
 Dipole X            :          0.0000000            0.0000000            0.0000000
 Dipole Y            :          0.0000000            0.0000000            0.0000000
 Dipole Z            :          0.0000000            0.0000000            0.0000000
 Magnitude           :                                                    0.0000000

 ------------------------------------------------------------------------------------

*** tstop() called on Joses-MacBook-Pro-2.local at Thu Jul 17 09:57:53 2025
Module time:
	user time   =       2.73 seconds =       0.05 minutes
	system time =       2.95 seconds =       0.05 minutes
	total time  =          0 seconds =       0.00 minutes
Total time:
	user time   =      21.99 seconds =       0.37 minutes
	system time =      22.36 seconds =       0.37 minutes
	total time  =          4 seconds =       0.07 minutes

*** tstart() called on Joses-MacBook-Pro-2.local
*** at Thu Jul 17 09:57:53 2025

         ------------------------------------------------------------
                                   SCF GRAD
                          Rob Parrish, Justin Turney,
                       Andy Simmonett, and Alex Sokolov
         ------------------------------------------------------------

  ==> Geometry <==

    Molecular point group: d2h
    Full point group: D_inf_h

    Geometry (in Angstrom), charge = -1, multiplicity = 2:

       Center              X                  Y                   Z               Mass
    ------------   -----------------  -----------------  -----------------  -----------------
         C           -0.000000000000     0.635970917042     0.000000000000    12.000000000000
         C            0.000000000000    -0.635970917042     0.000000000000    12.000000000000

  Nuclear repulsion =   14.977398394829176

  ==> Basis Set <==

  Basis Set: CC-PVDZ
    Blend: CC-PVDZ
    Number of shells: 12
    Number of basis functions: 28
    Number of Cartesian functions: 30
    Spherical Harmonics?: true
    Max angular momentum: 2

  ==> DFJKGrad: Density-Fitted SCF Gradients <==

    Gradient:                    1
    J tasked:                  Yes
    K tasked:                  Yes
    wK tasked:                  No
    OpenMP threads:              1
    Integrals threads:           1
    Memory [MiB]:              375
    Schwarz Cutoff:          1E-12
    Fitting Condition:       1E-10

   => Auxiliary Basis Set <=

  Basis Set: (CC-PVDZ AUX)
    Blend: CC-PVDZ-JKFIT
    Number of shells: 48
    Number of basis functions: 140
    Number of Cartesian functions: 162
    Spherical Harmonics?: true
    Max angular momentum: 3

  ==> DFT Potential <==

   => LibXC <=

    Version 6.2.2
    S. Lehtola, C. Steigemann, M. J.T. Oliveira, and M. A.L. Marques.,  SoftwareX 7, 1â€“5 (2018) (10.1016/j.softx.2017.11.002)

   => Composite Functional: B3LYP <=

    B3LYP Hyb-GGA Exchange-Correlation Functional

    P. J. Stephens, F. J. Devlin, C. F. Chabalowski, and M. J. Frisch.,  J. Phys. Chem. 98, 11623 (1994) (10.1021/j100096a001)

    Deriv               =              1
    GGA                 =           TRUE
    Meta                =          FALSE

    Exchange Hybrid     =           TRUE
    MP2 Hybrid          =          FALSE

   => Exchange Functionals <=

    0.0800   Slater exchange
    0.7200         Becke 88

   => Exact (HF) Exchange <=

    0.2000               HF

   => Correlation Functionals <=

    0.1900   Vosko, Wilk & Nusair (VWN5_RPA)
    0.8100   Lee, Yang & Parr

   => LibXC Density Thresholds  <==

    XC_HYB_GGA_XC_B3LYP:  1.00E-15

   => Molecular Quadrature <=

    Radial Scheme          =       TREUTLER
    Pruning Scheme         =           NONE
    Nuclear Scheme         =       TREUTLER

    Blocking Scheme        =         OCTREE
    BS radius alpha        =              1
    Pruning alpha          =              1
    Radial Points          =             75
    Spherical Points       =            302
    Total Points           =          42404
    Total Blocks           =            392
    Max Points             =            248
    Max Functions          =             28
    Weights Tolerance      =       1.00E-15

  -Total Gradient:
     Atom            X                  Y                   Z
    ------   -----------------  -----------------  -----------------
       1        0.000000000000    -0.000066416726     0.000000000000
       2       -0.000000000000     0.000066416726     0.000000000000

*** tstop() called on Joses-MacBook-Pro-2.local at Thu Jul 17 09:57:53 2025
Module time:
	user time   =       0.42 seconds =       0.01 minutes
	system time =       1.29 seconds =       0.02 minutes
	total time  =          0 seconds =       0.00 minutes
Total time:
	user time   =      22.41 seconds =       0.37 minutes
	system time =      23.65 seconds =       0.39 minutes
	total time  =          4 seconds =       0.07 minutes

    			-----------------------------------------

    			 OPTKING 3.0: for geometry optimizations

    			     By R.A. King, Bethel University

    			        with contributions from

    			    A.V. Copan, J. Cayton, A. Heide

    			-----------------------------------------

	                            ===> Fragment 1 <==

	 Z (Atomic Numbers)          Masses                          Geom
	       6.000000            12.000000         -0.00000000  1.20181086  0.00000000
	       6.000000            12.000000          0.00000000 -1.20181086  0.00000000

	 - Coordinate -           - BOHR/RAD -       - ANG/DEG -
	 R(1,2)           =         2.403622           1.271942

	        --- Internal Coordinate Step in ANG or DEG, aJ/ANG or AJ/DEG ---
	-------------------------------------------------------------------------------
	           Coordinate      Previous         Force          Change          New
	           ----------      --------        ------          ------        ------
	               R(1,2)       1.27194        0.00055        0.00004       1.27198
	-------------------------------------------------------------------------------

	                                 ==> Convergence Check <==

	Measures of convergence in internal coordinates in au.

	Criteria marked as inactive (o), active & met (*), and active & unmet ( ).

	----------------------------------------------------------------------------------------------
	   Step    Total Energy     Delta E     Max Force     RMS Force      Max Disp      RMS Disp
	----------------------------------------------------------------------------------------------
	  Convergence Criteria     1.00e-06 *    3.00e-04 *             o    1.20e-03 *             o
	----------------------------------------------------------------------------------------------
	     5     -76.02696663   -6.40e-08 *    6.64e-05 *    6.64e-05 o    6.79e-05 *    6.79e-05 o  ~
	----------------------------------------------------------------------------------------------

Next Geometry in Ang
	Fragment 1 (Ang)

	    C  -0.0000000000   0.6359888697   0.0000000000
	    C   0.0000000000  -0.6359888697   0.0000000000

    Final optimized geometry and variables:
    Molecular point group: d2h
    Full point group: D_inf_h

    Geometry (in Angstrom), charge = -1, multiplicity = 2:

    C           -0.000000000000     0.635970917042     0.000000000000
    C            0.000000000000    -0.635970917042     0.000000000000

    Psi4 stopped on: Thursday, 17 July 2025 09:57AM
    Psi4 wall time for execution: 0:00:05.37

*** Psi4 exiting successfully. Buy a developer a beer!
