                               Psi4 1.9.1 release

  ==> Input File <==

--------------------------------------------------------------------------
molecule {
-1 2
Be   0.00000        0.60000        0.00000
Si   0.00000       -0.60000        0.00000
}

set {
basis              cc-pvdz
reference          uks
maxiter            500
geom_maxiter       500
DAMPING_PERCENTAGE 1
guess              SAP
}

optimize('b3lyp')
--------------------------------------------------------------------------

    Molecular point group: c2v
  Charge       = -1
  Multiplicity = 2
  Basis Set: CC-PVDZ
    Blend: CC-PVDZ
  Basis Set: (CC-PVDZ AUX)
    Blend: CC-PVDZ-JKFIT + DEF2-UNIVERSAL-JKFIT
  @DF-UKS Final Energy:  -303.67164440042308
    Total Energy =                       -303.6716444004230198
 Dipole X            :          0.0000000            0.0000000            0.0000000
 Dipole Y            :          0.0000000            0.0000000            0.0000000
 Dipole Z            :          0.2180068           -0.8744053           -0.6563985
 Magnitude           :                                                    0.6563985
    Molecular point group: c2v
  Basis Set: CC-PVDZ
    Blend: CC-PVDZ
  Basis Set: (CC-PVDZ AUX)
    Blend: CC-PVDZ-JKFIT + DEF2-UNIVERSAL-JKFIT
  Basis Set: CC-PVDZ
    Blend: CC-PVDZ
  Basis Set: (CC-PVDZ AUX)
    Blend: CC-PVDZ-JKFIT + DEF2-UNIVERSAL-JKFIT
  @DF-UKS Final Energy:  -303.81663286516067
    Total Energy =                       -303.8166328651606705
  Basis Set: CC-PVDZ
    Blend: CC-PVDZ
  Basis Set: (CC-PVDZ AUX)
    Blend: CC-PVDZ-JKFIT + DEF2-UNIVERSAL-JKFIT
  Basis Set: CC-PVDZ
    Blend: CC-PVDZ
  @DF-UKS Final Energy:  -303.94725897932983
    Total Energy =                       -303.9472589793298312
  @DF-UKS Final Energy:  -304.06661041524347
    Total Energy =                       -304.0666104152435310
  @DF-UKS Final Energy:  -304.12667561300901
    Total Energy =                       -304.1266756130090698
  @DF-UKS Final Energy:  -304.13593666324789
    Total Energy =                       -304.1359366632478896
  @DF-UKS Final Energy:  -304.13909620716464
    Total Energy =                       -304.1390962071646413
  @DF-UKS Final Energy:  -304.13946464091327
    Total Energy =                       -304.1394646409132179
  @DF-UKS Final Energy:  -304.13951334048448
    Total Energy =                       -304.1395133404844842
  Basis Set: (CC-PVDZ AUX)
    Blend: CC-PVDZ-JKFIT + DEF2-UNIVERSAL-JKFIT
  Basis Set: CC-PVDZ
    Blend: CC-PVDZ
  Basis Set: (CC-PVDZ AUX)
    Blend: CC-PVDZ-JKFIT + DEF2-UNIVERSAL-JKFIT
  @DF-UKS Final Energy:  -304.13952022176170
    Total Energy =                       -304.1395202217616998
  Basis Set: CC-PVDZ
    Blend: CC-PVDZ
  Basis Set: (CC-PVDZ AUX)
    Blend: CC-PVDZ-JKFIT + DEF2-UNIVERSAL-JKFIT
  Charge       = -1
  Multiplicity = 2
  Basis Set: CC-PVDZ
    Blend: CC-PVDZ
  Basis Set: (CC-PVDZ AUX)
    Blend: CC-PVDZ-JKFIT + DEF2-UNIVERSAL-JKFIT

    Orbital Energies [Eh]
    ---------------------

    Alpha Occupied:

       1A1   -65.908781     2A1    -5.051639     3A1    -3.849048
       1B1    -3.412979     4A1    -3.411492     1B2    -3.406219
       5A1    -0.236444     6A1    -0.035846     2B1     0.017595
       2B2     0.040202

    Alpha Virtual:

       7A1     0.090045     3B1     0.170620     3B2     0.184233
       8A1     0.245297     4B1     0.364885     9A1     0.368222
       4B2     0.375955    10A1     0.376434    11A1     0.520534
       5B1     0.523900     5B2     0.540441     1A2     0.565579
      12A1     0.565873     6B1     0.587910     6B2     0.605523
      13A1     0.657380     2A2     0.727068    14A1     0.727490
      15A1     0.884562     7B1     0.910394     7B2     0.926208
      16A1     1.116925

    Beta Occupied:

       1A1   -65.905844     2A1    -5.048325     3A1    -3.850431
       4A1    -3.407396     1B1    -3.405301     1B2    -3.403491
       5A1    -0.198917     6A1    -0.024793     2B2     0.048690

    Beta Virtual:

       7A1     0.085955     2B1     0.101443     3B2     0.181581
       3B1     0.191583     8A1     0.247782     9A1     0.359985
       4B2     0.371010     4B1     0.378647    10A1     0.391590
      11A1     0.532583     5B2     0.544830     5B1     0.550033
       1A2     0.594012    12A1     0.596260     6B2     0.612794
       6B1     0.617649    13A1     0.666440     2A2     0.734296
      14A1     0.736549    15A1     0.891897     7B2     0.922610
       7B1     0.926514    16A1     1.126749

    Final Occupation by Irrep:
             A1    A2    B1    B2
    DOCC [     6,    0,    1,    2 ]
    SOCC [     0,    0,    1,    0 ]
    NA   [     6,    0,    2,    2 ]
    NB   [     6,    0,    1,    2 ]

  @DF-UKS Final Energy:  -304.13952132527788

   => Energetics <=

    Nuclear Repulsion Energy =             14.3541852515806170
    One-Electron Energy =                -452.8138081523425171
    Two-Electron Energy =                 153.5437616661911591
    DFT Exchange-Correlation Energy =     -19.2236600907071065
    Empirical Dispersion Energy =           0.0000000000000000
    VV10 Nonlocal Energy =                  0.0000000000000000
    Total Energy =                       -304.1395213252778831

  UHF NO Occupations:
  HONO-2 :    2 B2 1.9917171
  HONO-1 :    6 A1 1.9390086
  HONO-0 :    2 B1 1.0000000
  LUNO+0 :    7 A1 0.0609914
  LUNO+1 :    3 B2 0.0082829
  LUNO+2 :    8 A1 0.0005367
  LUNO+3 :    9 A1 0.0000001

Computation Completed

Properties will be evaluated at   0.000000,   0.000000,   0.000000 [a0]

Properties computed using the SCF density matrix

 Multipole Moments:

 ------------------------------------------------------------------------------------
     Multipole            Electronic (a.u.)      Nuclear  (a.u.)        Total (a.u.)
 ------------------------------------------------------------------------------------

 L = 1.  Multiply by 2.5417464519 to convert [e a0] to [Debye]
 Dipole X            :          0.0000000            0.0000000            0.0000000
 Dipole Y            :          0.0000000            0.0000000            0.0000000
 Dipole Z            :          0.9743097           -1.5043266           -0.5300169
 Magnitude           :                                                    0.5300169

 ------------------------------------------------------------------------------------

*** tstop() called on Joses-MacBook-Pro-2.local at Thu Jul 17 09:44:36 2025
Module time:
	user time   =       4.85 seconds =       0.08 minutes
	system time =       3.29 seconds =       0.05 minutes
	total time  =          0 seconds =       0.00 minutes
Total time:
	user time   =      69.83 seconds =       1.16 minutes
	system time =      64.87 seconds =       1.08 minutes
	total time  =         13 seconds =       0.22 minutes

*** tstart() called on Joses-MacBook-Pro-2.local
*** at Thu Jul 17 09:44:36 2025

         ------------------------------------------------------------
                                   SCF GRAD
                          Rob Parrish, Justin Turney,
                       Andy Simmonett, and Alex Sokolov
         ------------------------------------------------------------

  ==> Geometry <==

    Molecular point group: c2v
    Full point group: C_inf_v

    Geometry (in Angstrom), charge = -1, multiplicity = 2:

       Center              X                  Y                   Z               Mass
    ------------   -----------------  -----------------  -----------------  -----------------
         BE           0.000000000000     0.000000000000     1.561481122659     9.012183065000
         SI           0.000000000000     0.000000000000    -0.502998558920    27.976926534650

  Nuclear repulsion =   14.354185251580617

  ==> Basis Set <==

  Basis Set: CC-PVDZ
    Blend: CC-PVDZ
    Number of shells: 14
    Number of basis functions: 32
    Number of Cartesian functions: 34
    Spherical Harmonics?: true
    Max angular momentum: 2

  ==> DFJKGrad: Density-Fitted SCF Gradients <==

    Gradient:                    1
    J tasked:                  Yes
    K tasked:                  Yes
    wK tasked:                  No
    OpenMP threads:              1
    Integrals threads:           1
    Memory [MiB]:              375
    Schwarz Cutoff:          1E-12
    Fitting Condition:       1E-10

   => Auxiliary Basis Set <=

  Basis Set: (CC-PVDZ AUX)
    Blend: CC-PVDZ-JKFIT + DEF2-UNIVERSAL-JKFIT
    Number of shells: 53
    Number of basis functions: 163
    Number of Cartesian functions: 190
    Spherical Harmonics?: true
    Max angular momentum: 3

  ==> DFT Potential <==

   => LibXC <=

    Version 6.2.2
    S. Lehtola, C. Steigemann, M. J.T. Oliveira, and M. A.L. Marques.,  SoftwareX 7, 1â€“5 (2018) (10.1016/j.softx.2017.11.002)

   => Composite Functional: B3LYP <=

    B3LYP Hyb-GGA Exchange-Correlation Functional

    P. J. Stephens, F. J. Devlin, C. F. Chabalowski, and M. J. Frisch.,  J. Phys. Chem. 98, 11623 (1994) (10.1021/j100096a001)

    Deriv               =              1
    GGA                 =           TRUE
    Meta                =          FALSE

    Exchange Hybrid     =           TRUE
    MP2 Hybrid          =          FALSE

   => Exchange Functionals <=

    0.0800   Slater exchange
    0.7200         Becke 88

   => Exact (HF) Exchange <=

    0.2000               HF

   => Correlation Functionals <=

    0.1900   Vosko, Wilk & Nusair (VWN5_RPA)
    0.8100   Lee, Yang & Parr

   => LibXC Density Thresholds  <==

    XC_HYB_GGA_XC_B3LYP:  1.00E-15

   => Molecular Quadrature <=

    Radial Scheme          =       TREUTLER
    Pruning Scheme         =           NONE
    Nuclear Scheme         =       TREUTLER

    Blocking Scheme        =         OCTREE
    BS radius alpha        =              1
    Pruning alpha          =              1
    Radial Points          =             75
    Spherical Points       =            302
    Total Points           =          42482
    Total Blocks           =            392
    Max Points             =            255
    Max Functions          =             32
    Weights Tolerance      =       1.00E-15

  -Total Gradient:
     Atom            X                  Y                   Z
    ------   -----------------  -----------------  -----------------
       1        0.000000000000     0.000000000000    -0.000121883627
       2        0.000000000000     0.000000000000     0.000111112832

*** tstop() called on Joses-MacBook-Pro-2.local at Thu Jul 17 09:44:37 2025
Module time:
	user time   =       0.89 seconds =       0.01 minutes
	system time =       1.41 seconds =       0.02 minutes
	total time  =          1 seconds =       0.02 minutes
Total time:
	user time   =      70.72 seconds =       1.18 minutes
	system time =      66.29 seconds =       1.10 minutes
	total time  =         14 seconds =       0.23 minutes

    			-----------------------------------------

    			 OPTKING 3.0: for geometry optimizations

    			     By R.A. King, Bethel University

    			        with contributions from

    			    A.V. Copan, J. Cayton, A. Heide

    			-----------------------------------------

	                            ===> Fragment 1 <==

	 Z (Atomic Numbers)          Masses                          Geom
	       4.000000             9.012183          0.00000000  0.00000000  2.95077167
	      14.000000            27.976927          0.00000000  0.00000000 -0.95052952

	 - Coordinate -           - BOHR/RAD -       - ANG/DEG -
	 R(1,2)           =         3.901301           2.064480

	        --- Internal Coordinate Step in ANG or DEG, aJ/ANG or AJ/DEG ---
	-------------------------------------------------------------------------------
	           Coordinate      Previous         Force          Change          New
	           ----------      --------        ------          ------        ------
	               R(1,2)       2.06448        0.00096        0.00055       2.06503
	-------------------------------------------------------------------------------

	                                 ==> Convergence Check <==

	Measures of convergence in internal coordinates in au.

	Criteria marked as inactive (o), active & met (*), and active & unmet ( ).

	----------------------------------------------------------------------------------------------
	   Step    Total Energy     Delta E     Max Force     RMS Force      Max Disp      RMS Disp
	----------------------------------------------------------------------------------------------
	  Convergence Criteria     1.00e-06 *    3.00e-04 *             o    1.20e-03 *             o
	----------------------------------------------------------------------------------------------
	    11    -304.13952133   -1.10e-06      1.16e-04 *    1.16e-04 o    1.04e-03 *    1.04e-03 o  ~
	----------------------------------------------------------------------------------------------

Next Geometry in Ang
	Fragment 1 (Ang)

	   Be   0.0000000000   0.0000000000   1.5617556073
	   Si   0.0000000000   0.0000000000  -0.5032730435

    Final optimized geometry and variables:
    Molecular point group: c2v
    Full point group: C_inf_v

    Geometry (in Angstrom), charge = -1, multiplicity = 2:

    BE           0.000000000000     0.000000000000     1.561481122659
    SI           0.000000000000     0.000000000000    -0.502998558920

    Psi4 stopped on: Thursday, 17 July 2025 09:44AM
    Psi4 wall time for execution: 0:00:13.78

*** Psi4 exiting successfully. Buy a developer a beer!
