                               Psi4 1.9.1 release

  ==> Input File <==

--------------------------------------------------------------------------
molecule {
-1 2
Si   0.00000        0.60000        0.00000
Si   0.00000       -0.60000        0.00000
}

set {
basis              cc-pvdz
reference          uks
maxiter            500
geom_maxiter       500
DAMPING_PERCENTAGE 1
guess              SAP
}

optimize('b3lyp')
--------------------------------------------------------------------------

    Molecular point group: d2h
  Charge       = -1
  Multiplicity = 2
  Basis Set: CC-PVDZ
    Blend: CC-PVDZ
  Basis Set: (CC-PVDZ AUX)
    Blend: CC-PVDZ-JKFIT
  @DF-UKS Final Energy:  -577.83228959464714
    Total Energy =                       -577.8322895946471363
 Dipole X            :          0.0000000            0.0000000            0.0000000
 Dipole Y            :          0.0000000            0.0000000            0.0000000
 Dipole Z            :          0.0000000            0.0000000            0.0000000
 Magnitude           :                                                    0.0000000
    Molecular point group: d2h
  Basis Set: CC-PVDZ
    Blend: CC-PVDZ
  Basis Set: (CC-PVDZ AUX)
    Blend: CC-PVDZ-JKFIT
  Basis Set: CC-PVDZ
    Blend: CC-PVDZ
  Basis Set: (CC-PVDZ AUX)
    Blend: CC-PVDZ-JKFIT
  @DF-UKS Final Energy:  -577.85383239989937
    Total Energy =                       -577.8538323998993746
  Basis Set: CC-PVDZ
    Blend: CC-PVDZ
  Basis Set: (CC-PVDZ AUX)
    Blend: CC-PVDZ-JKFIT
  Basis Set: CC-PVDZ
    Blend: CC-PVDZ
  @DF-UKS Final Energy:  -577.89520628287744
    Total Energy =                       -577.8952062828774388
  @DF-UKS Final Energy:  -578.04286980484756
    Total Energy =                       -578.0428698048475553
  @DF-UKS Final Energy:  -578.60811044143657
    Total Energy =                       -578.6081104414365655
  @DF-UKS Final Energy:  -578.81711871400159
    Total Energy =                       -578.8171187140017082
  @DF-UKS Final Energy:  -578.90640447202907
    Total Energy =                       -578.9064044720290667
  @DF-UKS Final Energy:  -578.93928715375932
    Total Energy =                       -578.9392871537593237
  @DF-UKS Final Energy:  -578.94913067919128
    Total Energy =                       -578.9491306791912848
  @DF-UKS Final Energy:  -578.95077135719396
    Total Energy =                       -578.9507713571939576
  @DF-UKS Final Energy:  -578.95108433677626
    Total Energy =                       -578.9510843367761481
  @DF-UKS Final Energy:  -578.95115942142036
    Total Energy =                       -578.9511594214202432
  Basis Set: (CC-PVDZ AUX)
    Blend: CC-PVDZ-JKFIT
  Basis Set: CC-PVDZ
    Blend: CC-PVDZ
  Basis Set: (CC-PVDZ AUX)
    Blend: CC-PVDZ-JKFIT
  @DF-UKS Final Energy:  -578.95116599786479
    Total Energy =                       -578.9511659978647913
  Basis Set: CC-PVDZ
    Blend: CC-PVDZ
  Basis Set: (CC-PVDZ AUX)
    Blend: CC-PVDZ-JKFIT
  Charge       = -1
  Multiplicity = 2
  Basis Set: CC-PVDZ
    Blend: CC-PVDZ
  Basis Set: (CC-PVDZ AUX)
    Blend: CC-PVDZ-JKFIT

    Orbital Energies [Eh]
    ---------------------

    Alpha Occupied:

       1Ag   -65.912289     1B2u  -65.912289     2Ag    -5.057485
       2B2u   -5.057295     3Ag    -3.419584     3B2u   -3.417788
       1B3u   -3.414204     1B1u   -3.414204     1B1g   -3.414037
       1B3g   -3.414037     4Ag    -0.298935     4B2u   -0.145888
       5Ag    -0.018206     2B1u    0.011669     2B3u    0.011669

    Alpha Virtual:

       2B1g    0.150977     2B3g    0.150977     5B2u    0.255276
       6Ag     0.389351     7Ag     0.451466     3B1u    0.461146
       3B3u    0.461146     6B2u    0.497682     8Ag     0.546513
       1B2g    0.546514     4B1u    0.555323     4B3u    0.555323
       3B1g    0.555539     3B3g    0.555539     7B2u    0.661262
       1Au     0.661263     8B2u    0.666336     9Ag     0.800838
       4B1g    0.844348     4B3g    0.844348     9B2u    1.132149

    Beta Occupied:

       1B2u  -65.910475     1Ag   -65.910474     2Ag    -5.055468
       2B2u   -5.055316     1B3u   -3.413139     1B1u   -3.413139
       1B1g   -3.412984     1B3g   -3.412984     3Ag    -3.412744
       3B2u   -3.411014     4Ag    -0.274719     4B2u   -0.115537
       2B1u    0.016378     2B3u    0.016378

    Beta Virtual:

       5Ag     0.067584     2B1g    0.158766     2B3g    0.158766
       5B2u    0.270537     6Ag     0.406928     7Ag     0.470155
       3B1u    0.474552     3B3u    0.474552     6B2u    0.526055
       8Ag     0.549020     1B2g    0.549021     3B1g    0.558381
       3B3g    0.558381     4B1u    0.571257     4B3u    0.571257
       7B2u    0.663058     1Au     0.663059     8B2u    0.670963
       9Ag     0.821412     4B1g    0.862406     4B3g    0.862406
       9B2u    1.153146

    Final Occupation by Irrep:
             Ag   B1g   B2g   B3g    Au   B1u   B2u   B3u
    DOCC [     4,    1,    0,    1,    0,    2,    4,    2 ]
    SOCC [     1,    0,    0,    0,    0,    0,    0,    0 ]
    NA   [     5,    1,    0,    1,    0,    2,    4,    2 ]
    NB   [     4,    1,    0,    1,    0,    2,    4,    2 ]

  @DF-UKS Final Energy:  -578.95116664185775

   => Energetics <=

    Nuclear Repulsion Energy =             48.9196989567256963
    One-Electron Energy =                -906.0327034966998099
    Two-Electron Energy =                 311.9435154639236316
    DFT Exchange-Correlation Energy =     -33.7816775658072288
    Empirical Dispersion Energy =           0.0000000000000000
    VV10 Nonlocal Energy =                  0.0000000000000000
    Total Energy =                       -578.9511666418577533

  UHF NO Occupations:
  HONO-2 :    4 Ag 1.9993132
  HONO-1 :    4B2u 1.9978400
  HONO-0 :    5 Ag 1.0000000
  LUNO+0 :    5B2u 0.0021600
  LUNO+1 :    6 Ag 0.0006868
  LUNO+2 :    3B1u 0.0000286
  LUNO+3 :    3B3u 0.0000286

Computation Completed

Properties will be evaluated at   0.000000,   0.000000,   0.000000 [a0]

Properties computed using the SCF density matrix

 Multipole Moments:

 ------------------------------------------------------------------------------------
     Multipole            Electronic (a.u.)      Nuclear  (a.u.)        Total (a.u.)
 ------------------------------------------------------------------------------------

 L = 1.  Multiply by 2.5417464519 to convert [e a0] to [Debye]
 Dipole X            :          0.0000000            0.0000000            0.0000000
 Dipole Y            :          0.0000000            0.0000000            0.0000000
 Dipole Z            :          0.0000000            0.0000000            0.0000000
 Magnitude           :                                                    0.0000000

 ------------------------------------------------------------------------------------

*** tstop() called on Joses-MacBook-Pro-2.local at Thu Jul 17 11:46:58 2025
Module time:
	user time   =      18.72 seconds =       0.31 minutes
	system time =       2.17 seconds =       0.04 minutes
	total time  =          3 seconds =       0.05 minutes
Total time:
	user time   =     249.84 seconds =       4.16 minutes
	system time =      44.76 seconds =       0.75 minutes
	total time  =         31 seconds =       0.52 minutes

*** tstart() called on Joses-MacBook-Pro-2.local
*** at Thu Jul 17 11:46:58 2025

         ------------------------------------------------------------
                                   SCF GRAD
                          Rob Parrish, Justin Turney,
                       Andy Simmonett, and Alex Sokolov
         ------------------------------------------------------------

  ==> Geometry <==

    Molecular point group: d2h
    Full point group: D_inf_h

    Geometry (in Angstrom), charge = -1, multiplicity = 2:

       Center              X                  Y                   Z               Mass
    ------------   -----------------  -----------------  -----------------  -----------------
         SI          -0.000000000000     1.060091696221     0.000000000000    27.976926534650
         SI           0.000000000000    -1.060091696221     0.000000000000    27.976926534650

  Nuclear repulsion =   48.919698956725696

  ==> Basis Set <==

  Basis Set: CC-PVDZ
    Blend: CC-PVDZ
    Number of shells: 16
    Number of basis functions: 36
    Number of Cartesian functions: 38
    Spherical Harmonics?: true
    Max angular momentum: 2

  ==> DFJKGrad: Density-Fitted SCF Gradients <==

    Gradient:                    1
    J tasked:                  Yes
    K tasked:                  Yes
    wK tasked:                  No
    OpenMP threads:              1
    Integrals threads:           1
    Memory [MiB]:              375
    Schwarz Cutoff:          1E-12
    Fitting Condition:       1E-10

   => Auxiliary Basis Set <=

  Basis Set: (CC-PVDZ AUX)
    Blend: CC-PVDZ-JKFIT
    Number of shells: 72
    Number of basis functions: 224
    Number of Cartesian functions: 260
    Spherical Harmonics?: true
    Max angular momentum: 3

  ==> DFT Potential <==

   => LibXC <=

    Version 6.2.2
    S. Lehtola, C. Steigemann, M. J.T. Oliveira, and M. A.L. Marques.,  SoftwareX 7, 1â€“5 (2018) (10.1016/j.softx.2017.11.002)

   => Composite Functional: B3LYP <=

    B3LYP Hyb-GGA Exchange-Correlation Functional

    P. J. Stephens, F. J. Devlin, C. F. Chabalowski, and M. J. Frisch.,  J. Phys. Chem. 98, 11623 (1994) (10.1021/j100096a001)

    Deriv               =              1
    GGA                 =           TRUE
    Meta                =          FALSE

    Exchange Hybrid     =           TRUE
    MP2 Hybrid          =          FALSE

   => Exchange Functionals <=

    0.0800   Slater exchange
    0.7200         Becke 88

   => Exact (HF) Exchange <=

    0.2000               HF

   => Correlation Functionals <=

    0.1900   Vosko, Wilk & Nusair (VWN5_RPA)
    0.8100   Lee, Yang & Parr

   => LibXC Density Thresholds  <==

    XC_HYB_GGA_XC_B3LYP:  1.00E-15

   => Molecular Quadrature <=

    Radial Scheme          =       TREUTLER
    Pruning Scheme         =           NONE
    Nuclear Scheme         =       TREUTLER

    Blocking Scheme        =         OCTREE
    BS radius alpha        =              1
    Pruning alpha          =              1
    Radial Points          =             75
    Spherical Points       =            302
    Total Points           =          41290
    Total Blocks           =            386
    Max Points             =            251
    Max Functions          =             36
    Weights Tolerance      =       1.00E-15

  -Total Gradient:
     Atom            X                  Y                   Z
    ------   -----------------  -----------------  -----------------
       1        0.000000000000    -0.000071001674     0.000000000000
       2       -0.000000000000     0.000071001674     0.000000000000

*** tstop() called on Joses-MacBook-Pro-2.local at Thu Jul 17 11:46:58 2025
Module time:
	user time   =       3.60 seconds =       0.06 minutes
	system time =       1.00 seconds =       0.02 minutes
	total time  =          0 seconds =       0.00 minutes
Total time:
	user time   =     253.45 seconds =       4.22 minutes
	system time =      45.76 seconds =       0.76 minutes
	total time  =         31 seconds =       0.52 minutes

    			-----------------------------------------

    			 OPTKING 3.0: for geometry optimizations

    			     By R.A. King, Bethel University

    			        with contributions from

    			    A.V. Copan, J. Cayton, A. Heide

    			-----------------------------------------

	                            ===> Fragment 1 <==

	 Z (Atomic Numbers)          Masses                          Geom
	      14.000000            27.976927         -0.00000000  2.00328297  0.00000000
	      14.000000            27.976927          0.00000000 -2.00328297  0.00000000

	 - Coordinate -           - BOHR/RAD -       - ANG/DEG -
	 R(1,2)           =         4.006566           2.120183

	        --- Internal Coordinate Step in ANG or DEG, aJ/ANG or AJ/DEG ---
	-------------------------------------------------------------------------------
	           Coordinate      Previous         Force          Change          New
	           ----------      --------        ------          ------        ------
	               R(1,2)       2.12018        0.00058        0.00019       2.12037
	-------------------------------------------------------------------------------

	                                 ==> Convergence Check <==

	Measures of convergence in internal coordinates in au.

	Criteria marked as inactive (o), active & met (*), and active & unmet ( ).

	----------------------------------------------------------------------------------------------
	   Step    Total Energy     Delta E     Max Force     RMS Force      Max Disp      RMS Disp
	----------------------------------------------------------------------------------------------
	  Convergence Criteria     1.00e-06 *    3.00e-04 *             o    1.20e-03 *             o
	----------------------------------------------------------------------------------------------
	    14    -578.95116664   -6.44e-07 *    7.10e-05 *    7.10e-05 o    3.59e-04 *    3.59e-04 o  ~
	----------------------------------------------------------------------------------------------

Next Geometry in Ang
	Fragment 1 (Ang)

	   Si  -0.0000000000   1.0601865967   0.0000000000
	   Si   0.0000000000  -1.0601865967   0.0000000000

    Final optimized geometry and variables:
    Molecular point group: d2h
    Full point group: D_inf_h

    Geometry (in Angstrom), charge = -1, multiplicity = 2:

    SI          -0.000000000000     1.060091696221     0.000000000000
    SI           0.000000000000    -1.060091696221     0.000000000000

    Psi4 stopped on: Thursday, 17 July 2025 11:46AM
    Psi4 wall time for execution: 0:00:32.57

*** Psi4 exiting successfully. Buy a developer a beer!
