                               Psi4 1.9.1 release

  ==> Input File <==

--------------------------------------------------------------------------
molecule {
-1 2
Li   0.00000        0.60000        0.00000
Al   0.00000       -0.60000        0.00000
}

set {
basis              cc-pvdz
reference          uks
maxiter            500
geom_maxiter       500
DAMPING_PERCENTAGE 1
guess              SAP
}

optimize('b3lyp')
--------------------------------------------------------------------------

    Molecular point group: c2v
  Charge       = -1
  Multiplicity = 2
  Basis Set: CC-PVDZ
    Blend: CC-PVDZ
  Basis Set: (CC-PVDZ AUX)
    Blend: CC-PVDZ-JKFIT + DEF2-UNIVERSAL-JKFIT
  @DF-UKS Final Energy:  -249.55031862777960
    Total Energy =                       -249.5503186277796033
 Dipole X            :          0.0000000            0.0000000            0.0000000
 Dipole Y            :          0.0000000            0.0000000            0.0000000
 Dipole Z            :          0.1670401           -0.6845814           -0.5175413
 Magnitude           :                                                    0.5175413
    Molecular point group: c2v
  Basis Set: CC-PVDZ
    Blend: CC-PVDZ
  Basis Set: (CC-PVDZ AUX)
    Blend: CC-PVDZ-JKFIT + DEF2-UNIVERSAL-JKFIT
  Basis Set: CC-PVDZ
    Blend: CC-PVDZ
  Basis Set: (CC-PVDZ AUX)
    Blend: CC-PVDZ-JKFIT + DEF2-UNIVERSAL-JKFIT
  @DF-UKS Final Energy:  -249.60928783721607
    Total Energy =                       -249.6092878372160726
  Basis Set: CC-PVDZ
    Blend: CC-PVDZ
  Basis Set: (CC-PVDZ AUX)
    Blend: CC-PVDZ-JKFIT + DEF2-UNIVERSAL-JKFIT
  Basis Set: CC-PVDZ
    Blend: CC-PVDZ
  @DF-UKS Final Energy:  -249.68232980640607
    Total Energy =                       -249.6823298064060737
  @DF-UKS Final Energy:  -249.78109467886503
    Total Energy =                       -249.7810946788650313
  @DF-UKS Final Energy:  -249.83602860525235
    Total Energy =                       -249.8360286052523520
  @DF-UKS Final Energy:  -249.86055405958530
    Total Energy =                       -249.8605540595852972
  @DF-UKS Final Energy:  -249.86964513417146
    Total Energy =                       -249.8696451341714635
  @DF-UKS Final Energy:  -249.87225700344919
    Total Energy =                       -249.8722570034491639
  @DF-UKS Final Energy:  -249.87271597196280
    Total Energy =                       -249.8727159719628332
  @DF-UKS Final Energy:  -249.87274718556461
    Total Energy =                       -249.8727471855646058
  Basis Set: (CC-PVDZ AUX)
    Blend: CC-PVDZ-JKFIT + DEF2-UNIVERSAL-JKFIT
  Basis Set: CC-PVDZ
    Blend: CC-PVDZ
  Basis Set: (CC-PVDZ AUX)
    Blend: CC-PVDZ-JKFIT + DEF2-UNIVERSAL-JKFIT
  @DF-UKS Final Energy:  -249.87274945229976
    Total Energy =                       -249.8727494522997858
  Basis Set: CC-PVDZ
    Blend: CC-PVDZ
  Basis Set: (CC-PVDZ AUX)
    Blend: CC-PVDZ-JKFIT + DEF2-UNIVERSAL-JKFIT
  Charge       = -1
  Multiplicity = 2
  Basis Set: CC-PVDZ
    Blend: CC-PVDZ
  Basis Set: (CC-PVDZ AUX)
    Blend: CC-PVDZ-JKFIT + DEF2-UNIVERSAL-JKFIT

    Orbital Energies [Eh]
    ---------------------

    Alpha Occupied:

       1A1   -55.877992     2A1    -3.958169     3A1    -2.513823
       1B2    -2.510970     1B1    -2.507334     4A1    -1.898377
       5A1    -0.149769     2B2     0.028288     2B1     0.043373

    Alpha Virtual:

       6A1     0.047065     7A1     0.086894     3B2     0.122901
       3B1     0.125936     8A1     0.135788     4B2     0.194802
       4B1     0.199387     9A1     0.201347    10A1     0.304547
      11A1     0.350849     1A2     0.351437     5B2     0.361216
      12A1     0.363502     5B1     0.369079     6B2     0.416732
       6B1     0.428760    13A1     0.429054     2A2     0.479901
      14A1     0.480637    15A1     0.603661     7B2     0.608565
       7B1     0.618314    16A1     0.919023

    Beta Occupied:

       1A1   -55.876710     2A1    -3.956618     3A1    -2.513115
       1B2    -2.506359     1B1    -2.505982     4A1    -1.898147
       5A1    -0.129258     2B1     0.048711

    Beta Virtual:

       6A1     0.051996     7A1     0.089327     2B2     0.090311
       3B1     0.128385     8A1     0.139098     3B2     0.141446
       4B1     0.197403     9A1     0.200150     4B2     0.210157
      10A1     0.311011    11A1     0.362588     1A2     0.363062
       5B1     0.369729    12A1     0.371598     5B2     0.379888
       6B1     0.432456    13A1     0.437528     6B2     0.439273
       2A2     0.500856    14A1     0.503479    15A1     0.609844
       7B1     0.619551     7B2     0.627994    16A1     0.921937

    Final Occupation by Irrep:
             A1    A2    B1    B2
    DOCC [     5,    0,    2,    1 ]
    SOCC [     0,    0,    0,    1 ]
    NA   [     5,    0,    2,    2 ]
    NB   [     5,    0,    2,    1 ]

  @DF-UKS Final Energy:  -249.87274962682778

   => Energetics <=

    Nuclear Repulsion Energy =              8.7031116485220110
    One-Electron Energy =                -366.6249393675446981
    Two-Electron Energy =                 124.6291328010621555
    DFT Exchange-Correlation Energy =     -16.5800547088672445
    Empirical Dispersion Energy =           0.0000000000000000
    VV10 Nonlocal Energy =                  0.0000000000000000
    Total Energy =                       -249.8727496268277832

  UHF NO Occupations:
  HONO-2 :    5 A1 1.9988190
  HONO-1 :    2 B1 1.9938751
  HONO-0 :    2 B2 1.0000000
  LUNO+0 :    3 B1 0.0061249
  LUNO+1 :    6 A1 0.0011810
  LUNO+2 :    7 A1 0.0000001
  LUNO+3 :    3 B2 0.0000000

Computation Completed

Properties will be evaluated at   0.000000,   0.000000,   0.000000 [a0]

Properties computed using the SCF density matrix

 Multipole Moments:

 ------------------------------------------------------------------------------------
     Multipole            Electronic (a.u.)      Nuclear  (a.u.)        Total (a.u.)
 ------------------------------------------------------------------------------------

 L = 1.  Multiply by 2.5417464519 to convert [e a0] to [Debye]
 Dipole X            :          0.0000000            0.0000000            0.0000000
 Dipole Y            :          0.0000000            0.0000000            0.0000000
 Dipole Z            :          0.6518046           -1.3528044           -0.7009998
 Magnitude           :                                                    0.7009998

 ------------------------------------------------------------------------------------

*** tstop() called on Joses-MacBook-Pro-2.local at Thu Jul 17 09:33:25 2025
Module time:
	user time   =       4.67 seconds =       0.08 minutes
	system time =       3.25 seconds =       0.05 minutes
	total time  =          1 seconds =       0.02 minutes
Total time:
	user time   =      69.89 seconds =       1.16 minutes
	system time =      72.22 seconds =       1.20 minutes
	total time  =         14 seconds =       0.23 minutes

*** tstart() called on Joses-MacBook-Pro-2.local
*** at Thu Jul 17 09:33:25 2025

         ------------------------------------------------------------
                                   SCF GRAD
                          Rob Parrish, Justin Turney,
                       Andy Simmonett, and Alex Sokolov
         ------------------------------------------------------------

  ==> Geometry <==

    Molecular point group: c2v
    Full point group: C_inf_v

    Geometry (in Angstrom), charge = -1, multiplicity = 2:

       Center              X                  Y                   Z               Mass
    ------------   -----------------  -----------------  -----------------  -----------------
         LI           0.000000000000     0.000000000000     1.881959948040     7.016003436600
         AL           0.000000000000     0.000000000000    -0.489365624881    26.981538530000

  Nuclear repulsion =    8.703111648522011

  ==> Basis Set <==

  Basis Set: CC-PVDZ
    Blend: CC-PVDZ
    Number of shells: 14
    Number of basis functions: 32
    Number of Cartesian functions: 34
    Spherical Harmonics?: true
    Max angular momentum: 2

  ==> DFJKGrad: Density-Fitted SCF Gradients <==

    Gradient:                    1
    J tasked:                  Yes
    K tasked:                  Yes
    wK tasked:                  No
    OpenMP threads:              1
    Integrals threads:           1
    Memory [MiB]:              375
    Schwarz Cutoff:          1E-12
    Fitting Condition:       1E-10

   => Auxiliary Basis Set <=

  Basis Set: (CC-PVDZ AUX)
    Blend: CC-PVDZ-JKFIT + DEF2-UNIVERSAL-JKFIT
    Number of shells: 53
    Number of basis functions: 163
    Number of Cartesian functions: 190
    Spherical Harmonics?: true
    Max angular momentum: 3

  ==> DFT Potential <==

   => LibXC <=

    Version 6.2.2
    S. Lehtola, C. Steigemann, M. J.T. Oliveira, and M. A.L. Marques.,  SoftwareX 7, 1â€“5 (2018) (10.1016/j.softx.2017.11.002)

   => Composite Functional: B3LYP <=

    B3LYP Hyb-GGA Exchange-Correlation Functional

    P. J. Stephens, F. J. Devlin, C. F. Chabalowski, and M. J. Frisch.,  J. Phys. Chem. 98, 11623 (1994) (10.1021/j100096a001)

    Deriv               =              1
    GGA                 =           TRUE
    Meta                =          FALSE

    Exchange Hybrid     =           TRUE
    MP2 Hybrid          =          FALSE

   => Exchange Functionals <=

    0.0800   Slater exchange
    0.7200         Becke 88

   => Exact (HF) Exchange <=

    0.2000               HF

   => Correlation Functionals <=

    0.1900   Vosko, Wilk & Nusair (VWN5_RPA)
    0.8100   Lee, Yang & Parr

   => LibXC Density Thresholds  <==

    XC_HYB_GGA_XC_B3LYP:  1.00E-15

   => Molecular Quadrature <=

    Radial Scheme          =       TREUTLER
    Pruning Scheme         =           NONE
    Nuclear Scheme         =       TREUTLER

    Blocking Scheme        =         OCTREE
    BS radius alpha        =              1
    Pruning alpha          =              1
    Radial Points          =             75
    Spherical Points       =            302
    Total Points           =          44301
    Total Blocks           =            448
    Max Points             =            254
    Max Functions          =             32
    Weights Tolerance      =       1.00E-15

  -Total Gradient:
     Atom            X                  Y                   Z
    ------   -----------------  -----------------  -----------------
       1       -0.000000000000     0.000000000000    -0.000031747304
       2        0.000000000000     0.000000000000     0.000029764553

*** tstop() called on Joses-MacBook-Pro-2.local at Thu Jul 17 09:33:25 2025
Module time:
	user time   =       1.09 seconds =       0.02 minutes
	system time =       1.90 seconds =       0.03 minutes
	total time  =          0 seconds =       0.00 minutes
Total time:
	user time   =      70.99 seconds =       1.18 minutes
	system time =      74.12 seconds =       1.24 minutes
	total time  =         14 seconds =       0.23 minutes

    			-----------------------------------------

    			 OPTKING 3.0: for geometry optimizations

    			     By R.A. King, Bethel University

    			        with contributions from

    			    A.V. Copan, J. Cayton, A. Heide

    			-----------------------------------------

	                            ===> Fragment 1 <==

	 Z (Atomic Numbers)          Masses                          Geom
	       3.000000             7.016003          0.00000000  0.00000000  3.55638888
	      13.000000            26.981539          0.00000000  0.00000000 -0.92476701

	 - Coordinate -           - BOHR/RAD -       - ANG/DEG -
	 R(1,2)           =         4.481156           2.371326

	        --- Internal Coordinate Step in ANG or DEG, aJ/ANG or AJ/DEG ---
	-------------------------------------------------------------------------------
	           Coordinate      Previous         Force          Change          New
	           ----------      --------        ------          ------        ------
	               R(1,2)       2.37133        0.00025        0.00040       2.37173
	-------------------------------------------------------------------------------

	                                 ==> Convergence Check <==

	Measures of convergence in internal coordinates in au.

	Criteria marked as inactive (o), active & met (*), and active & unmet ( ).

	----------------------------------------------------------------------------------------------
	   Step    Total Energy     Delta E     Max Force     RMS Force      Max Disp      RMS Disp
	----------------------------------------------------------------------------------------------
	  Convergence Criteria     1.00e-06 *    3.00e-04 *             o    1.20e-03 *             o
	----------------------------------------------------------------------------------------------
	    12    -249.87274963   -1.75e-07 *    3.08e-05 *    3.08e-05 o    7.64e-04 *    7.64e-04 o  ~
	----------------------------------------------------------------------------------------------

Next Geometry in Ang
	Fragment 1 (Ang)

	   Li   0.0000000000   0.0000000000   1.8821620143
	   Al   0.0000000000   0.0000000000  -0.4895676911

    Final optimized geometry and variables:
    Molecular point group: c2v
    Full point group: C_inf_v

    Geometry (in Angstrom), charge = -1, multiplicity = 2:

    LI           0.000000000000     0.000000000000     1.881959948040
    AL           0.000000000000     0.000000000000    -0.489365624881

    Psi4 stopped on: Thursday, 17 July 2025 09:33AM
    Psi4 wall time for execution: 0:00:14.56

*** Psi4 exiting successfully. Buy a developer a beer!
