                               Psi4 1.9.1 release

  ==> Input File <==

--------------------------------------------------------------------------
molecule {
-1 2
Li   0.00000        0.60000        0.00000
Li   0.00000       -0.60000        0.00000
}

set {
basis              cc-pvdz
reference          uks
maxiter            500
geom_maxiter       500
DAMPING_PERCENTAGE 1
guess              SAP
}

optimize('b3lyp')
--------------------------------------------------------------------------

    Molecular point group: d2h
  Charge       = -1
  Multiplicity = 2
  Basis Set: CC-PVDZ
    Blend: CC-PVDZ
  Basis Set: (CC-PVDZ AUX)
    Blend: DEF2-UNIVERSAL-JKFIT
  @DF-UKS Final Energy:   -14.85700828162641
    Total Energy =                        -14.8570082816264115
 Dipole X            :          0.0000000            0.0000000            0.0000000
 Dipole Y            :          0.0000000            0.0000000            0.0000000
 Dipole Z            :          0.0000000            0.0000000            0.0000000
 Magnitude           :                                                    0.0000000
    Molecular point group: d2h
  Basis Set: CC-PVDZ
    Blend: CC-PVDZ
  Basis Set: (CC-PVDZ AUX)
    Blend: DEF2-UNIVERSAL-JKFIT
  Basis Set: CC-PVDZ
    Blend: CC-PVDZ
  Basis Set: (CC-PVDZ AUX)
    Blend: DEF2-UNIVERSAL-JKFIT
  @DF-UKS Final Energy:   -14.88355276210760
    Total Energy =                        -14.8835527621075983
  Basis Set: CC-PVDZ
    Blend: CC-PVDZ
  Basis Set: (CC-PVDZ AUX)
    Blend: DEF2-UNIVERSAL-JKFIT
  Basis Set: CC-PVDZ
    Blend: CC-PVDZ
  @DF-UKS Final Energy:   -14.93560394120694
    Total Energy =                        -14.9356039412069386
  @DF-UKS Final Energy:   -14.97123088661370
    Total Energy =                        -14.9712308866137018
  @DF-UKS Final Energy:   -14.98793352581056
    Total Energy =                        -14.9879335258105613
  @DF-UKS Final Energy:   -14.99967826579382
    Total Energy =                        -14.9996782657938219
  @DF-UKS Final Energy:   -15.00191703660595
    Total Energy =                        -15.0019170366059456
  @DF-UKS Final Energy:   -15.00409140575075
    Total Energy =                        -15.0040914057507511
  @DF-UKS Final Energy:   -15.00437168750739
    Total Energy =                        -15.0043716875073923
  @DF-UKS Final Energy:   -15.00438977084958
    Total Energy =                        -15.0043897708495759
  Basis Set: (CC-PVDZ AUX)
    Blend: DEF2-UNIVERSAL-JKFIT
  Basis Set: CC-PVDZ
    Blend: CC-PVDZ
  Basis Set: (CC-PVDZ AUX)
    Blend: DEF2-UNIVERSAL-JKFIT
  @DF-UKS Final Energy:   -15.00439098159656
    Total Energy =                        -15.0043909815965595
  Basis Set: CC-PVDZ
    Blend: CC-PVDZ
  Basis Set: (CC-PVDZ AUX)
    Blend: DEF2-UNIVERSAL-JKFIT
  Charge       = -1
  Multiplicity = 2
  Basis Set: CC-PVDZ
    Blend: CC-PVDZ
  Basis Set: (CC-PVDZ AUX)
    Blend: DEF2-UNIVERSAL-JKFIT

    Orbital Energies [Eh]
    ---------------------

    Alpha Occupied:

       1Ag    -1.855803     1B2u   -1.855415     2Ag    -0.002819
       1B1u    0.054499

    Alpha Virtual:

       2B2u    0.062893     1B3u    0.091032     3Ag     0.098741
       1B3g    0.111349     1B1g    0.123006     3B2u    0.132421
       4Ag     0.178068     2B1u    0.182717     2B3u    0.193414
       5Ag     0.215039     2B3g    0.229131     2B1g    0.238574
       4B2u    0.285753     1B2g    0.341477     6Ag     0.344365
       5B2u    0.350391     3B1u    0.373274     3B3u    0.381279
       1Au     0.420435     6B2u    0.423640     7Ag     0.477699
       3B3g    0.530859     3B1g    0.538441     7B2u    0.861847

    Beta Occupied:

       1Ag    -1.855676     1B2u   -1.855297     2Ag     0.006462

    Beta Virtual:

       2B2u    0.063340     1B3u    0.091662     1B1u    0.096821
       3Ag     0.098654     1B1g    0.121857     1B3g    0.122489
       3B2u    0.132815     4Ag     0.178817     2B3u    0.190993
       2B1u    0.195633     5Ag     0.217472     2B1g    0.234832
       2B3g    0.240588     4B2u    0.285824     5B2u    0.353114
       1B2g    0.353854     6Ag     0.354230     3B3u    0.376683
       3B1u    0.385927     1Au     0.430724     6B2u    0.431472
       7Ag     0.478481     3B1g    0.533531     3B3g    0.541327
       7B2u    0.859332

    Final Occupation by Irrep:
             Ag   B1g   B2g   B3g    Au   B1u   B2u   B3u
    DOCC [     2,    0,    0,    0,    0,    0,    1,    0 ]
    SOCC [     0,    0,    0,    0,    0,    1,    0,    0 ]
    NA   [     2,    0,    0,    0,    0,    1,    1,    0 ]
    NB   [     2,    0,    0,    0,    0,    0,    1,    0 ]

  @DF-UKS Final Energy:   -15.00439099690753

   => Energetics <=

    Nuclear Repulsion Energy =              1.7782224191849028
    One-Electron Energy =                 -23.9760402843767118
    Two-Electron Energy =                  10.2681434984302555
    DFT Exchange-Correlation Energy =      -3.0747166301459794
    Empirical Dispersion Energy =           0.0000000000000000
    VV10 Nonlocal Energy =                  0.0000000000000000
    Total Energy =                        -15.0043909969075315

  UHF NO Occupations:
  HONO-2 :    1B2u 2.0000000
  HONO-1 :    2 Ag 1.9973486
  HONO-0 :    1B1u 1.0000000
  LUNO+0 :    3 Ag 0.0026514
  LUNO+1 :    2B2u 0.0000000
  LUNO+2 :    4 Ag 0.0000000
  LUNO+3 :    5 Ag 0.0000000

Computation Completed

Properties will be evaluated at   0.000000,   0.000000,   0.000000 [a0]

Properties computed using the SCF density matrix

 Multipole Moments:

 ------------------------------------------------------------------------------------
     Multipole            Electronic (a.u.)      Nuclear  (a.u.)        Total (a.u.)
 ------------------------------------------------------------------------------------

 L = 1.  Multiply by 2.5417464519 to convert [e a0] to [Debye]
 Dipole X            :          0.0000000            0.0000000            0.0000000
 Dipole Y            :          0.0000000            0.0000000            0.0000000
 Dipole Z            :          0.0000000            0.0000000            0.0000000
 Magnitude           :                                                    0.0000000

 ------------------------------------------------------------------------------------

*** tstop() called on Joses-MacBook-Pro-2.local at Thu Jul 17 09:27:00 2025
Module time:
	user time   =       2.09 seconds =       0.03 minutes
	system time =       3.19 seconds =       0.05 minutes
	total time  =          0 seconds =       0.00 minutes
Total time:
	user time   =      50.96 seconds =       0.85 minutes
	system time =      58.42 seconds =       0.97 minutes
	total time  =         10 seconds =       0.17 minutes

*** tstart() called on Joses-MacBook-Pro-2.local
*** at Thu Jul 17 09:27:00 2025

         ------------------------------------------------------------
                                   SCF GRAD
                          Rob Parrish, Justin Turney,
                       Andy Simmonett, and Alex Sokolov
         ------------------------------------------------------------

  ==> Geometry <==

    Molecular point group: d2h
    Full point group: D_inf_h

    Geometry (in Angstrom), charge = -1, multiplicity = 2:

       Center              X                  Y                   Z               Mass
    ------------   -----------------  -----------------  -----------------  -----------------
         LI          -0.000000000000     1.339144879923     0.000000000000     7.016003436600
         LI           0.000000000000    -1.339144879923     0.000000000000     7.016003436600

  Nuclear repulsion =    1.778222419184903

  ==> Basis Set <==

  Basis Set: CC-PVDZ
    Blend: CC-PVDZ
    Number of shells: 12
    Number of basis functions: 28
    Number of Cartesian functions: 30
    Spherical Harmonics?: true
    Max angular momentum: 2

  ==> DFJKGrad: Density-Fitted SCF Gradients <==

    Gradient:                    1
    J tasked:                  Yes
    K tasked:                  Yes
    wK tasked:                  No
    OpenMP threads:              1
    Integrals threads:           1
    Memory [MiB]:              375
    Schwarz Cutoff:          1E-12
    Fitting Condition:       1E-10

   => Auxiliary Basis Set <=

  Basis Set: (CC-PVDZ AUX)
    Blend: DEF2-UNIVERSAL-JKFIT
    Number of shells: 34
    Number of basis functions: 102
    Number of Cartesian functions: 120
    Spherical Harmonics?: true
    Max angular momentum: 3

  ==> DFT Potential <==

   => LibXC <=

    Version 6.2.2
    S. Lehtola, C. Steigemann, M. J.T. Oliveira, and M. A.L. Marques.,  SoftwareX 7, 1â€“5 (2018) (10.1016/j.softx.2017.11.002)

   => Composite Functional: B3LYP <=

    B3LYP Hyb-GGA Exchange-Correlation Functional

    P. J. Stephens, F. J. Devlin, C. F. Chabalowski, and M. J. Frisch.,  J. Phys. Chem. 98, 11623 (1994) (10.1021/j100096a001)

    Deriv               =              1
    GGA                 =           TRUE
    Meta                =          FALSE

    Exchange Hybrid     =           TRUE
    MP2 Hybrid          =          FALSE

   => Exchange Functionals <=

    0.0800   Slater exchange
    0.7200         Becke 88

   => Exact (HF) Exchange <=

    0.2000               HF

   => Correlation Functionals <=

    0.1900   Vosko, Wilk & Nusair (VWN5_RPA)
    0.8100   Lee, Yang & Parr

   => LibXC Density Thresholds  <==

    XC_HYB_GGA_XC_B3LYP:  1.00E-15

   => Molecular Quadrature <=

    Radial Scheme          =       TREUTLER
    Pruning Scheme         =           NONE
    Nuclear Scheme         =       TREUTLER

    Blocking Scheme        =         OCTREE
    BS radius alpha        =              1
    Pruning alpha          =              1
    Radial Points          =             75
    Spherical Points       =            302
    Total Points           =          44050
    Total Blocks           =            448
    Max Points             =            254
    Max Functions          =             28
    Weights Tolerance      =       1.00E-15

  -Total Gradient:
     Atom            X                  Y                   Z
    ------   -----------------  -----------------  -----------------
       1        0.000000000000    -0.000002019426    -0.000000000000
       2       -0.000000000000     0.000002019426    -0.000000000000

*** tstop() called on Joses-MacBook-Pro-2.local at Thu Jul 17 09:27:00 2025
Module time:
	user time   =       0.67 seconds =       0.01 minutes
	system time =       1.37 seconds =       0.02 minutes
	total time  =          0 seconds =       0.00 minutes
Total time:
	user time   =      51.63 seconds =       0.86 minutes
	system time =      59.79 seconds =       1.00 minutes
	total time  =         10 seconds =       0.17 minutes

    			-----------------------------------------

    			 OPTKING 3.0: for geometry optimizations

    			     By R.A. King, Bethel University

    			        with contributions from

    			    A.V. Copan, J. Cayton, A. Heide

    			-----------------------------------------

	                            ===> Fragment 1 <==

	 Z (Atomic Numbers)          Masses                          Geom
	       3.000000             7.016003         -0.00000000  2.53061707  0.00000000
	       3.000000             7.016003          0.00000000 -2.53061707  0.00000000

	 - Coordinate -           - BOHR/RAD -       - ANG/DEG -
	 R(1,2)           =         5.061234           2.678290

	        --- Internal Coordinate Step in ANG or DEG, aJ/ANG or AJ/DEG ---
	-------------------------------------------------------------------------------
	           Coordinate      Previous         Force          Change          New
	           ----------      --------        ------          ------        ------
	               R(1,2)       2.67829        0.00002        0.00007       2.67836
	-------------------------------------------------------------------------------

	                                 ==> Convergence Check <==

	Measures of convergence in internal coordinates in au.

	Criteria marked as inactive (o), active & met (*), and active & unmet ( ).

	----------------------------------------------------------------------------------------------
	   Step    Total Energy     Delta E     Max Force     RMS Force      Max Disp      RMS Disp
	----------------------------------------------------------------------------------------------
	  Convergence Criteria     1.00e-06 *    3.00e-04 *             o    1.20e-03 *             o
	----------------------------------------------------------------------------------------------
	    12     -15.00439100   -1.53e-08 *    2.02e-06 *    2.02e-06 o    1.30e-04 *    1.30e-04 o  ~
	----------------------------------------------------------------------------------------------

Next Geometry in Ang
	Fragment 1 (Ang)

	   Li  -0.0000000000   1.3391792598   0.0000000000
	   Li   0.0000000000  -1.3391792598   0.0000000000

    Final optimized geometry and variables:
    Molecular point group: d2h
    Full point group: D_inf_h

    Geometry (in Angstrom), charge = -1, multiplicity = 2:

    LI          -0.000000000000     1.339144879923     0.000000000000
    LI           0.000000000000    -1.339144879923     0.000000000000

    Psi4 stopped on: Thursday, 17 July 2025 09:27AM
    Psi4 wall time for execution: 0:00:11.15

*** Psi4 exiting successfully. Buy a developer a beer!
