                               Psi4 1.9.1 release

  ==> Input File <==

--------------------------------------------------------------------------
molecule {
-1 2
B   0.00000        0.60000        0.00000
B   0.00000       -0.60000        0.00000
}

set {
basis              cc-pvdz
reference          uks
maxiter            500
geom_maxiter       500
DAMPING_PERCENTAGE 1
guess              SAP
}

optimize('b3lyp')
--------------------------------------------------------------------------

    Molecular point group: d2h
  Charge       = -1
  Multiplicity = 2
  Basis Set: CC-PVDZ
    Blend: CC-PVDZ
  Basis Set: (CC-PVDZ AUX)
    Blend: CC-PVDZ-JKFIT
  @DF-UKS Final Energy:   -49.33256090244944
    Total Energy =                        -49.3325609024494369
 Dipole X            :          0.0000000            0.0000000            0.0000000
 Dipole Y            :          0.0000000            0.0000000            0.0000000
 Dipole Z            :          0.0000000            0.0000000            0.0000000
 Magnitude           :                                                    0.0000000
    Molecular point group: d2h
  Basis Set: CC-PVDZ
    Blend: CC-PVDZ
  Basis Set: (CC-PVDZ AUX)
    Blend: CC-PVDZ-JKFIT
  Basis Set: CC-PVDZ
    Blend: CC-PVDZ
  Basis Set: (CC-PVDZ AUX)
    Blend: CC-PVDZ-JKFIT
  @DF-UKS Final Energy:   -49.43640760902518
    Total Energy =                        -49.4364076090251814
  Basis Set: CC-PVDZ
    Blend: CC-PVDZ
  Basis Set: (CC-PVDZ AUX)
    Blend: CC-PVDZ-JKFIT
  Basis Set: CC-PVDZ
    Blend: CC-PVDZ
  @DF-UKS Final Energy:   -49.44972303928457
    Total Energy =                        -49.4497230392845708
  @DF-UKS Final Energy:   -49.45447455930729
    Total Energy =                        -49.4544745593072932
  @DF-UKS Final Energy:   -49.45496818824719
    Total Energy =                        -49.4549681882471930
  @DF-UKS Final Energy:   -49.45502745839140
    Total Energy =                        -49.4550274583913989
  Basis Set: (CC-PVDZ AUX)
    Blend: CC-PVDZ-JKFIT
  Basis Set: CC-PVDZ
    Blend: CC-PVDZ
  Basis Set: (CC-PVDZ AUX)
    Blend: CC-PVDZ-JKFIT
  @DF-UKS Final Energy:   -49.45503503427424
    Total Energy =                        -49.4550350342742391
  Basis Set: CC-PVDZ
    Blend: CC-PVDZ
  Basis Set: (CC-PVDZ AUX)
    Blend: CC-PVDZ-JKFIT
  Charge       = -1
  Multiplicity = 2
  Basis Set: CC-PVDZ
    Blend: CC-PVDZ
  Basis Set: (CC-PVDZ AUX)
    Blend: CC-PVDZ-JKFIT

    Orbital Energies [Eh]
    ---------------------

    Alpha Occupied:

       1Ag    -6.548608     1B2u   -6.547954     2Ag    -0.255362
       2B2u   -0.032378     1B1u    0.020794     1B3u    0.047146

    Alpha Virtual:

       3Ag     0.095379     1B3g    0.230205     1B1g    0.249442
       3B2u    0.346863     4Ag     0.471818     2B1u    0.490517
       2B3u    0.507382     2B3g    0.565087     2B1g    0.580720
       5Ag     0.581598     4B2u    0.681956     1B2g    0.862665
       6Ag     0.862936     5B2u    0.915766     3B1u    0.934270
       3B3u    0.957245     1Au     1.094062     6B2u    1.094443
       7Ag     1.358180     3B3g    1.374656     3B1g    1.393555
       7B2u    1.555200

    Beta Occupied:

       1Ag    -6.544672     1B2u   -6.544069     2Ag    -0.225807
       2B2u   -0.017830     1B3u    0.053943

    Beta Virtual:

       3Ag     0.100910     1B1u    0.123967     1B1g    0.253373
       1B3g    0.268129     3B2u    0.351803     4Ag     0.476929
       2B3u    0.510274     2B1u    0.522083     2B1g    0.583741
       5Ag     0.594296     2B3g    0.595757     4B2u    0.692522
       1B2g    0.890521     6Ag     0.893644     5B2u    0.930097
       3B3u    0.960147     3B1u    0.968022     1Au     1.117277
       6B2u    1.120390     7Ag     1.370486     3B1g    1.395265
       3B3g    1.400561     7B2u    1.560277

    Final Occupation by Irrep:
             Ag   B1g   B2g   B3g    Au   B1u   B2u   B3u
    DOCC [     2,    0,    0,    0,    0,    0,    2,    1 ]
    SOCC [     0,    0,    0,    0,    0,    1,    0,    0 ]
    NA   [     2,    0,    0,    0,    0,    1,    2,    1 ]
    NB   [     2,    0,    0,    0,    0,    0,    2,    1 ]

  @DF-UKS Final Energy:   -49.45503611641156

   => Energetics <=

    Nuclear Repulsion Energy =              8.3896270691651829
    One-Electron Energy =                 -84.3595888467968962
    Two-Electron Energy =                  33.0696697646149431
    DFT Exchange-Correlation Energy =      -6.5547441033947953
    Empirical Dispersion Energy =           0.0000000000000000
    VV10 Nonlocal Energy =                  0.0000000000000000
    Total Energy =                        -49.4550361164115628

  UHF NO Occupations:
  HONO-2 :    2 Ag 1.9995401
  HONO-1 :    2B2u 1.9993352
  HONO-0 :    1B1u 1.0000000
  LUNO+0 :    3B2u 0.0006648
  LUNO+1 :    3 Ag 0.0004599
  LUNO+2 :    2B3u 0.0000116
  LUNO+3 :    4B2u 0.0000000

Computation Completed

Properties will be evaluated at   0.000000,   0.000000,   0.000000 [a0]

Properties computed using the SCF density matrix

 Multipole Moments:

 ------------------------------------------------------------------------------------
     Multipole            Electronic (a.u.)      Nuclear  (a.u.)        Total (a.u.)
 ------------------------------------------------------------------------------------

 L = 1.  Multiply by 2.5417464519 to convert [e a0] to [Debye]
 Dipole X            :          0.0000000            0.0000000            0.0000000
 Dipole Y            :          0.0000000            0.0000000            0.0000000
 Dipole Z            :          0.0000000            0.0000000            0.0000000
 Magnitude           :                                                    0.0000000

 ------------------------------------------------------------------------------------

*** tstop() called on Joses-MacBook-Pro-2.local at Thu Jul 17 09:48:57 2025
Module time:
	user time   =       4.15 seconds =       0.07 minutes
	system time =       2.23 seconds =       0.04 minutes
	total time  =          1 seconds =       0.02 minutes
Total time:
	user time   =      36.51 seconds =       0.61 minutes
	system time =      38.58 seconds =       0.64 minutes
	total time  =          8 seconds =       0.13 minutes

*** tstart() called on Joses-MacBook-Pro-2.local
*** at Thu Jul 17 09:48:57 2025

         ------------------------------------------------------------
                                   SCF GRAD
                          Rob Parrish, Justin Turney,
                       Andy Simmonett, and Alex Sokolov
         ------------------------------------------------------------

  ==> Geometry <==

    Molecular point group: d2h
    Full point group: D_inf_h

    Geometry (in Angstrom), charge = -1, multiplicity = 2:

       Center              X                  Y                   Z               Mass
    ------------   -----------------  -----------------  -----------------  -----------------
         B           -0.000000000000     0.788439709995     0.000000000000    11.009305360000
         B            0.000000000000    -0.788439709995     0.000000000000    11.009305360000

  Nuclear repulsion =    8.389627069165183

  ==> Basis Set <==

  Basis Set: CC-PVDZ
    Blend: CC-PVDZ
    Number of shells: 12
    Number of basis functions: 28
    Number of Cartesian functions: 30
    Spherical Harmonics?: true
    Max angular momentum: 2

  ==> DFJKGrad: Density-Fitted SCF Gradients <==

    Gradient:                    1
    J tasked:                  Yes
    K tasked:                  Yes
    wK tasked:                  No
    OpenMP threads:              1
    Integrals threads:           1
    Memory [MiB]:              375
    Schwarz Cutoff:          1E-12
    Fitting Condition:       1E-10

   => Auxiliary Basis Set <=

  Basis Set: (CC-PVDZ AUX)
    Blend: CC-PVDZ-JKFIT
    Number of shells: 48
    Number of basis functions: 140
    Number of Cartesian functions: 162
    Spherical Harmonics?: true
    Max angular momentum: 3

  ==> DFT Potential <==

   => LibXC <=

    Version 6.2.2
    S. Lehtola, C. Steigemann, M. J.T. Oliveira, and M. A.L. Marques.,  SoftwareX 7, 1â€“5 (2018) (10.1016/j.softx.2017.11.002)

   => Composite Functional: B3LYP <=

    B3LYP Hyb-GGA Exchange-Correlation Functional

    P. J. Stephens, F. J. Devlin, C. F. Chabalowski, and M. J. Frisch.,  J. Phys. Chem. 98, 11623 (1994) (10.1021/j100096a001)

    Deriv               =              1
    GGA                 =           TRUE
    Meta                =          FALSE

    Exchange Hybrid     =           TRUE
    MP2 Hybrid          =          FALSE

   => Exchange Functionals <=

    0.0800   Slater exchange
    0.7200         Becke 88

   => Exact (HF) Exchange <=

    0.2000               HF

   => Correlation Functionals <=

    0.1900   Vosko, Wilk & Nusair (VWN5_RPA)
    0.8100   Lee, Yang & Parr

   => LibXC Density Thresholds  <==

    XC_HYB_GGA_XC_B3LYP:  1.00E-15

   => Molecular Quadrature <=

    Radial Scheme          =       TREUTLER
    Pruning Scheme         =           NONE
    Nuclear Scheme         =       TREUTLER

    Blocking Scheme        =         OCTREE
    BS radius alpha        =              1
    Pruning alpha          =              1
    Radial Points          =             75
    Spherical Points       =            302
    Total Points           =          42516
    Total Blocks           =            394
    Max Points             =            245
    Max Functions          =             28
    Weights Tolerance      =       1.00E-15

  -Total Gradient:
     Atom            X                  Y                   Z
    ------   -----------------  -----------------  -----------------
       1        0.000000000000    -0.000170549233    -0.000000000000
       2       -0.000000000000     0.000170549233     0.000000000000

*** tstop() called on Joses-MacBook-Pro-2.local at Thu Jul 17 09:48:57 2025
Module time:
	user time   =       0.77 seconds =       0.01 minutes
	system time =       1.15 seconds =       0.02 minutes
	total time  =          0 seconds =       0.00 minutes
Total time:
	user time   =      37.28 seconds =       0.62 minutes
	system time =      39.73 seconds =       0.66 minutes
	total time  =          8 seconds =       0.13 minutes

    			-----------------------------------------

    			 OPTKING 3.0: for geometry optimizations

    			     By R.A. King, Bethel University

    			        with contributions from

    			    A.V. Copan, J. Cayton, A. Heide

    			-----------------------------------------

	                            ===> Fragment 1 <==

	 Z (Atomic Numbers)          Masses                          Geom
	       5.000000            11.009305         -0.00000000  1.48993512  0.00000000
	       5.000000            11.009305          0.00000000 -1.48993512  0.00000000

	 - Coordinate -           - BOHR/RAD -       - ANG/DEG -
	 R(1,2)           =         2.979870           1.576879

	        --- Internal Coordinate Step in ANG or DEG, aJ/ANG or AJ/DEG ---
	-------------------------------------------------------------------------------
	           Coordinate      Previous         Force          Change          New
	           ----------      --------        ------          ------        ------
	               R(1,2)       1.57688        0.00141        0.00034       1.57721
	-------------------------------------------------------------------------------

	                                 ==> Convergence Check <==

	Measures of convergence in internal coordinates in au.

	Criteria marked as inactive (o), active & met (*), and active & unmet ( ).

	----------------------------------------------------------------------------------------------
	   Step    Total Energy     Delta E     Max Force     RMS Force      Max Disp      RMS Disp
	----------------------------------------------------------------------------------------------
	  Convergence Criteria     1.00e-06 *    3.00e-04 *             o    1.20e-03 *             o
	----------------------------------------------------------------------------------------------
	     8     -49.45503612   -1.08e-06      1.71e-04 *    1.71e-04 o    6.34e-04 *    6.34e-04 o  ~
	----------------------------------------------------------------------------------------------

Next Geometry in Ang
	Fragment 1 (Ang)

	    B  -0.0000000000   0.7886073798   0.0000000000
	    B   0.0000000000  -0.7886073798   0.0000000000

    Final optimized geometry and variables:
    Molecular point group: d2h
    Full point group: D_inf_h

    Geometry (in Angstrom), charge = -1, multiplicity = 2:

    B           -0.000000000000     0.788439709995     0.000000000000
    B            0.000000000000    -0.788439709995     0.000000000000

    Psi4 stopped on: Thursday, 17 July 2025 09:48AM
    Psi4 wall time for execution: 0:00:08.26

*** Psi4 exiting successfully. Buy a developer a beer!
