                               Psi4 1.9.1 release

  ==> Input File <==

--------------------------------------------------------------------------
molecule {
-1 2
N   0.00000        0.60000        0.00000
F   0.00000       -0.60000        0.00000
}

set {
basis              cc-pvdz
reference          uks
maxiter            500
geom_maxiter       500
DAMPING_PERCENTAGE 1
guess              SAP
}

optimize('b3lyp')
--------------------------------------------------------------------------

    Molecular point group: c2v
  Charge       = -1
  Multiplicity = 2
  Basis Set: CC-PVDZ
    Blend: CC-PVDZ
  Basis Set: (CC-PVDZ AUX)
    Blend: CC-PVDZ-JKFIT
  @DF-UKS Final Energy:  -154.34806139600394
    Total Energy =                       -154.3480613960039420
 Dipole X            :          0.0000000            0.0000000            0.0000000
 Dipole Y            :          0.0000000            0.0000000            0.0000000
 Dipole Z            :         -1.6684788            0.4783305           -1.1901483
 Magnitude           :                                                    1.1901483
    Molecular point group: c2v
  Basis Set: CC-PVDZ
    Blend: CC-PVDZ
  Basis Set: (CC-PVDZ AUX)
    Blend: CC-PVDZ-JKFIT
  Basis Set: CC-PVDZ
    Blend: CC-PVDZ
  Basis Set: (CC-PVDZ AUX)
    Blend: CC-PVDZ-JKFIT
  @DF-UKS Final Energy:  -154.39774191892215
    Total Energy =                       -154.3977419189221507
  Basis Set: CC-PVDZ
    Blend: CC-PVDZ
  Basis Set: (CC-PVDZ AUX)
    Blend: CC-PVDZ-JKFIT
  Basis Set: CC-PVDZ
    Blend: CC-PVDZ
  @DF-UKS Final Energy:  -154.40847798843768
    Total Energy =                       -154.4084779884376815
  @DF-UKS Final Energy:  -154.41161547416451
    Total Energy =                       -154.4116154741644777
  @DF-UKS Final Energy:  -154.41267035953092
    Total Energy =                       -154.4126703595309209
  @DF-UKS Final Energy:  -154.41319642944816
    Total Energy =                       -154.4131964294481634
  @DF-UKS Final Energy:  -154.41328054691655
    Total Energy =                       -154.4132805469165532
  Basis Set: (CC-PVDZ AUX)
    Blend: CC-PVDZ-JKFIT
  Basis Set: CC-PVDZ
    Blend: CC-PVDZ
  Basis Set: (CC-PVDZ AUX)
    Blend: CC-PVDZ-JKFIT
  @DF-UKS Final Energy:  -154.41329652644160
    Total Energy =                       -154.4132965264415986
  Basis Set: CC-PVDZ
    Blend: CC-PVDZ
  Basis Set: (CC-PVDZ AUX)
    Blend: CC-PVDZ-JKFIT
  Charge       = -1
  Multiplicity = 2
  Basis Set: CC-PVDZ
    Blend: CC-PVDZ
  Basis Set: (CC-PVDZ AUX)
    Blend: CC-PVDZ-JKFIT

    Orbital Energies [Eh]
    ---------------------

    Alpha Occupied:

       1A1   -24.345424     2A1   -14.004564     3A1    -0.823021
       4A1    -0.363424     1B1    -0.091397     5A1    -0.082195
       1B2    -0.076954     2B1     0.086697     2B2     0.141339

    Alpha Virtual:

       6A1     0.364619     3B1     1.024997     7A1     1.036701
       3B2     1.066948     8A1     1.200964     4B1     1.469331
       4B2     1.480222     9A1     1.546288    10A1     2.094284
       1A2     2.116756    11A1     2.133191     5B1     2.140013
       5B2     2.182725    12A1     2.627903    13A1     3.913726
       2A2     3.913753     6B1     3.971997     6B2     3.980906
      14A1     4.347054

    Beta Occupied:

       1A1   -24.343310     2A1   -13.987018     3A1    -0.816716
       4A1    -0.313758     1B2    -0.074101     1B1    -0.066864
       5A1    -0.066561     2B2     0.159882

    Beta Virtual:

       2B1     0.277611     6A1     0.385709     7A1     1.050021
       3B2     1.080134     3B1     1.110836     8A1     1.231714
       4B2     1.481644     4B1     1.482548     9A1     1.549285
      10A1     2.125408     1A2     2.179350    11A1     2.188357
       5B2     2.191237     5B1     2.203287    12A1     2.640897
       2A2     3.920389    13A1     3.920436     6B1     3.979488
       6B2     3.980642    14A1     4.352057

    Final Occupation by Irrep:
             A1    A2    B1    B2
    DOCC [     5,    0,    1,    2 ]
    SOCC [     0,    0,    1,    0 ]
    NA   [     5,    0,    2,    2 ]
    NB   [     5,    0,    1,    2 ]

  @DF-UKS Final Energy:  -154.41329769389026

   => Energetics <=

    Nuclear Repulsion Energy =             21.8307416701799113
    One-Electron Energy =                -263.2196336570796120
    Two-Electron Energy =                 101.1805516390193986
    DFT Exchange-Correlation Energy =     -14.2049573460099534
    Empirical Dispersion Energy =           0.0000000000000000
    VV10 Nonlocal Energy =                  0.0000000000000000
    Total Energy =                       -154.4132976938902573

  UHF NO Occupations:
  HONO-2 :    4 A1 1.9998493
  HONO-1 :    5 A1 1.9992322
  HONO-0 :    2 B1 1.0000000
  LUNO+0 :    6 A1 0.0007678
  LUNO+1 :    7 A1 0.0001507
  LUNO+2 :    3 B1 0.0001157
  LUNO+3 :    3 B2 0.0000613

Computation Completed

Properties will be evaluated at   0.000000,   0.000000,   0.000000 [a0]

Properties computed using the SCF density matrix

 Multipole Moments:

 ------------------------------------------------------------------------------------
     Multipole            Electronic (a.u.)      Nuclear  (a.u.)        Total (a.u.)
 ------------------------------------------------------------------------------------

 L = 1.  Multiply by 2.5417464519 to convert [e a0] to [Debye]
 Dipole X            :          0.0000000            0.0000000            0.0000000
 Dipole Y            :          0.0000000            0.0000000            0.0000000
 Dipole Z            :         -1.3315456            0.6087235           -0.7228221
 Magnitude           :                                                    0.7228221

 ------------------------------------------------------------------------------------

*** tstop() called on Joses-MacBook-Pro-2.local at Thu Jul 17 10:26:46 2025
Module time:
	user time   =       3.46 seconds =       0.06 minutes
	system time =       2.95 seconds =       0.05 minutes
	total time  =          1 seconds =       0.02 minutes
Total time:
	user time   =      41.85 seconds =       0.70 minutes
	system time =      41.26 seconds =       0.69 minutes
	total time  =          8 seconds =       0.13 minutes

*** tstart() called on Joses-MacBook-Pro-2.local
*** at Thu Jul 17 10:26:46 2025

         ------------------------------------------------------------
                                   SCF GRAD
                          Rob Parrish, Justin Turney,
                       Andy Simmonett, and Alex Sokolov
         ------------------------------------------------------------

  ==> Geometry <==

    Molecular point group: c2v
    Full point group: C_inf_v

    Geometry (in Angstrom), charge = -1, multiplicity = 2:

       Center              X                  Y                   Z               Mass
    ------------   -----------------  -----------------  -----------------  -----------------
         N            0.000000000000     0.000000000000     0.879137714879    14.003074004430
         F            0.000000000000     0.000000000000    -0.647982379155    18.998403162730

  Nuclear repulsion =   21.830741670179911

  ==> Basis Set <==

  Basis Set: CC-PVDZ
    Blend: CC-PVDZ
    Number of shells: 12
    Number of basis functions: 28
    Number of Cartesian functions: 30
    Spherical Harmonics?: true
    Max angular momentum: 2

  ==> DFJKGrad: Density-Fitted SCF Gradients <==

    Gradient:                    1
    J tasked:                  Yes
    K tasked:                  Yes
    wK tasked:                  No
    OpenMP threads:              1
    Integrals threads:           1
    Memory [MiB]:              375
    Schwarz Cutoff:          1E-12
    Fitting Condition:       1E-10

   => Auxiliary Basis Set <=

  Basis Set: (CC-PVDZ AUX)
    Blend: CC-PVDZ-JKFIT
    Number of shells: 48
    Number of basis functions: 140
    Number of Cartesian functions: 162
    Spherical Harmonics?: true
    Max angular momentum: 3

  ==> DFT Potential <==

   => LibXC <=

    Version 6.2.2
    S. Lehtola, C. Steigemann, M. J.T. Oliveira, and M. A.L. Marques.,  SoftwareX 7, 1â€“5 (2018) (10.1016/j.softx.2017.11.002)

   => Composite Functional: B3LYP <=

    B3LYP Hyb-GGA Exchange-Correlation Functional

    P. J. Stephens, F. J. Devlin, C. F. Chabalowski, and M. J. Frisch.,  J. Phys. Chem. 98, 11623 (1994) (10.1021/j100096a001)

    Deriv               =              1
    GGA                 =           TRUE
    Meta                =          FALSE

    Exchange Hybrid     =           TRUE
    MP2 Hybrid          =          FALSE

   => Exchange Functionals <=

    0.0800   Slater exchange
    0.7200         Becke 88

   => Exact (HF) Exchange <=

    0.2000               HF

   => Correlation Functionals <=

    0.1900   Vosko, Wilk & Nusair (VWN5_RPA)
    0.8100   Lee, Yang & Parr

   => LibXC Density Thresholds  <==

    XC_HYB_GGA_XC_B3LYP:  1.00E-15

   => Molecular Quadrature <=

    Radial Scheme          =       TREUTLER
    Pruning Scheme         =           NONE
    Nuclear Scheme         =       TREUTLER

    Blocking Scheme        =         OCTREE
    BS radius alpha        =              1
    Pruning alpha          =              1
    Radial Points          =             75
    Spherical Points       =            302
    Total Points           =          42540
    Total Blocks           =            375
    Max Points             =            255
    Max Functions          =             28
    Weights Tolerance      =       1.00E-15

  -Total Gradient:
     Atom            X                  Y                   Z
    ------   -----------------  -----------------  -----------------
       1        0.000000000000     0.000000000000    -0.000109703417
       2        0.000000000000    -0.000000000000     0.000121372918

*** tstop() called on Joses-MacBook-Pro-2.local at Thu Jul 17 10:26:46 2025
Module time:
	user time   =       0.66 seconds =       0.01 minutes
	system time =       1.05 seconds =       0.02 minutes
	total time  =          0 seconds =       0.00 minutes
Total time:
	user time   =      42.53 seconds =       0.71 minutes
	system time =      42.31 seconds =       0.71 minutes
	total time  =          8 seconds =       0.13 minutes

    			-----------------------------------------

    			 OPTKING 3.0: for geometry optimizations

    			     By R.A. King, Bethel University

    			        with contributions from

    			    A.V. Copan, J. Cayton, A. Heide

    			-----------------------------------------

	                            ===> Fragment 1 <==

	 Z (Atomic Numbers)          Masses                          Geom
	       7.000000            14.003074          0.00000000  0.00000000  1.66132951
	       9.000000            18.998403          0.00000000  0.00000000 -1.22450923

	 - Coordinate -           - BOHR/RAD -       - ANG/DEG -
	 R(1,2)           =         2.885839           1.527120

	        --- Internal Coordinate Step in ANG or DEG, aJ/ANG or AJ/DEG ---
	-------------------------------------------------------------------------------
	           Coordinate      Previous         Force          Change          New
	           ----------      --------        ------          ------        ------
	               R(1,2)       1.52712        0.00095        0.00032       1.52744
	-------------------------------------------------------------------------------

	                                 ==> Convergence Check <==

	Measures of convergence in internal coordinates in au.

	Criteria marked as inactive (o), active & met (*), and active & unmet ( ).

	----------------------------------------------------------------------------------------------
	   Step    Total Energy     Delta E     Max Force     RMS Force      Max Disp      RMS Disp
	----------------------------------------------------------------------------------------------
	  Convergence Criteria     1.00e-06 *    3.00e-04 *             o    1.20e-03 *             o
	----------------------------------------------------------------------------------------------
	     9    -154.41329769   -1.17e-06      1.16e-04 *    1.16e-04 o    5.98e-04 *    5.98e-04 o  ~
	----------------------------------------------------------------------------------------------

Next Geometry in Ang
	Fragment 1 (Ang)

	    N   0.0000000000   0.0000000000   0.8792960463
	    F   0.0000000000   0.0000000000  -0.6481407105

    Final optimized geometry and variables:
    Molecular point group: c2v
    Full point group: C_inf_v

    Geometry (in Angstrom), charge = -1, multiplicity = 2:

    N            0.000000000000     0.000000000000     0.879137714879
    F            0.000000000000     0.000000000000    -0.647982379155

    Psi4 stopped on: Thursday, 17 July 2025 10:26AM
    Psi4 wall time for execution: 0:00:08.78

*** Psi4 exiting successfully. Buy a developer a beer!
