                               Psi4 1.9.1 release

  ==> Input File <==

--------------------------------------------------------------------------
molecule {
-1 2
Be   0.00000        0.60000        0.00000
C   0.00000       -0.60000        0.00000
}

set {
basis              cc-pvdz
reference          uks
maxiter            500
geom_maxiter       500
DAMPING_PERCENTAGE 1
guess              SAP
}

optimize('b3lyp')
--------------------------------------------------------------------------

    Molecular point group: c2v
  Charge       = -1
  Multiplicity = 2
  Basis Set: CC-PVDZ
    Blend: CC-PVDZ
  Basis Set: (CC-PVDZ AUX)
    Blend: CC-PVDZ-JKFIT + DEF2-UNIVERSAL-JKFIT
  @DF-UKS Final Energy:   -52.49258716283528
    Total Energy =                        -52.4925871628352780
 Dipole X            :          0.0000000            0.0000000            0.0000000
 Dipole Y            :          0.0000000            0.0000000            0.0000000
 Dipole Z            :          1.2185731           -0.6554193            0.5631538
 Magnitude           :                                                    0.5631538
    Molecular point group: c2v
  Basis Set: CC-PVDZ
    Blend: CC-PVDZ
  Basis Set: (CC-PVDZ AUX)
    Blend: CC-PVDZ-JKFIT + DEF2-UNIVERSAL-JKFIT
  Basis Set: CC-PVDZ
    Blend: CC-PVDZ
  Basis Set: (CC-PVDZ AUX)
    Blend: CC-PVDZ-JKFIT + DEF2-UNIVERSAL-JKFIT
  @DF-UKS Final Energy:   -52.55971685047915
    Total Energy =                        -52.5597168504791483
  Basis Set: CC-PVDZ
    Blend: CC-PVDZ
  Basis Set: (CC-PVDZ AUX)
    Blend: CC-PVDZ-JKFIT + DEF2-UNIVERSAL-JKFIT
  Basis Set: CC-PVDZ
    Blend: CC-PVDZ
  @DF-UKS Final Energy:   -52.56827810373338
    Total Energy =                        -52.5682781037333768
  @DF-UKS Final Energy:   -52.57007714983418
    Total Energy =                        -52.5700771498341766
  @DF-UKS Final Energy:   -52.57051497889599
    Total Energy =                        -52.5705149788959858
  @DF-UKS Final Energy:   -52.57066163572213
    Total Energy =                        -52.5706616357221250
  Basis Set: (CC-PVDZ AUX)
    Blend: CC-PVDZ-JKFIT + DEF2-UNIVERSAL-JKFIT
  Basis Set: CC-PVDZ
    Blend: CC-PVDZ
  Basis Set: (CC-PVDZ AUX)
    Blend: CC-PVDZ-JKFIT + DEF2-UNIVERSAL-JKFIT
  @DF-UKS Final Energy:   -52.57067287079233
    Total Energy =                        -52.5706728707923290
  Basis Set: CC-PVDZ
    Blend: CC-PVDZ
  Basis Set: (CC-PVDZ AUX)
    Blend: CC-PVDZ-JKFIT + DEF2-UNIVERSAL-JKFIT
  Charge       = -1
  Multiplicity = 2
  Basis Set: CC-PVDZ
    Blend: CC-PVDZ
  Basis Set: (CC-PVDZ AUX)
    Blend: CC-PVDZ-JKFIT + DEF2-UNIVERSAL-JKFIT

    Orbital Energies [Eh]
    ---------------------

    Alpha Occupied:

       1A1    -9.952989     2A1    -3.816021     3A1    -0.296062
       4A1    -0.023948     1B1     0.046158     1B2     0.046158

    Alpha Virtual:

       5A1     0.080038     2B1     0.232288     2B2     0.232288
       6A1     0.274956     7A1     0.372676     3B2     0.408443
       3B1     0.408443     8A1     0.644855     1A2     0.709718
       9A1     0.709718    10A1     0.732549     4B2     0.771732
       4B1     0.771732     5B2     0.852430     5B1     0.852430
      11A1     1.105698    12A1     1.338742    13A1     1.513763
       2A2     1.513763     6B2     1.748093     6B1     1.748093
      14A1     2.079222

    Beta Occupied:

       1A1    -9.942186     2A1    -3.808129     3A1    -0.258792
       1B1     0.060988     1B2     0.060988

    Beta Virtual:

       4A1     0.071761     5A1     0.144069     2B1     0.244360
       2B2     0.244360     6A1     0.281197     7A1     0.383701
       3B2     0.421614     3B1     0.421614     8A1     0.678824
       1A2     0.719998     9A1     0.719999    10A1     0.761805
       4B2     0.784408     4B1     0.784408     5B2     0.870137
       5B1     0.870137    11A1     1.147739    12A1     1.357999
      13A1     1.526714     2A2     1.526715     6B2     1.788841
       6B1     1.788841    14A1     2.122818

    Final Occupation by Irrep:
             A1    A2    B1    B2
    DOCC [     3,    0,    1,    1 ]
    SOCC [     1,    0,    0,    0 ]
    NA   [     4,    0,    1,    1 ]
    NB   [     3,    0,    1,    1 ]

  @DF-UKS Final Energy:   -52.57067382711886

   => Energetics <=

    Nuclear Repulsion Energy =              8.5188028712612045
    One-Electron Energy =                 -89.4399521746398420
    Two-Electron Energy =                  35.0758237123368986
    DFT Exchange-Correlation Energy =      -6.7253482360771191
    Empirical Dispersion Energy =           0.0000000000000000
    VV10 Nonlocal Energy =                  0.0000000000000000
    Total Energy =                        -52.5706738271188598

  UHF NO Occupations:
  HONO-2 :    1 B1 1.9989807
  HONO-1 :    3 A1 1.9985051
  HONO-0 :    4 A1 1.0000000
  LUNO+0 :    5 A1 0.0014949
  LUNO+1 :    2 B1 0.0010193
  LUNO+2 :    2 B2 0.0010193
  LUNO+3 :    6 A1 0.0000001

Computation Completed

Properties will be evaluated at   0.000000,   0.000000,   0.000000 [a0]

Properties computed using the SCF density matrix

 Multipole Moments:

 ------------------------------------------------------------------------------------
     Multipole            Electronic (a.u.)      Nuclear  (a.u.)        Total (a.u.)
 ------------------------------------------------------------------------------------

 L = 1.  Multiply by 2.5417464519 to convert [e a0] to [Debye]
 Dipole X            :          0.0000000            0.0000000            0.0000000
 Dipole Y            :          0.0000000            0.0000000            0.0000000
 Dipole Z            :          1.3246500           -0.8142763            0.5103737
 Magnitude           :                                                    0.5103737

 ------------------------------------------------------------------------------------

*** tstop() called on Joses-MacBook-Pro-2.local at Thu Jul 17 09:39:44 2025
Module time:
	user time   =       4.15 seconds =       0.07 minutes
	system time =       3.56 seconds =       0.06 minutes
	total time  =          1 seconds =       0.02 minutes
Total time:
	user time   =      43.14 seconds =       0.72 minutes
	system time =      43.64 seconds =       0.73 minutes
	total time  =          9 seconds =       0.15 minutes

*** tstart() called on Joses-MacBook-Pro-2.local
*** at Thu Jul 17 09:39:44 2025

         ------------------------------------------------------------
                                   SCF GRAD
                          Rob Parrish, Justin Turney,
                       Andy Simmonett, and Alex Sokolov
         ------------------------------------------------------------

  ==> Geometry <==

    Molecular point group: c2v
    Full point group: C_inf_v

    Geometry (in Angstrom), charge = -1, multiplicity = 2:

       Center              X                  Y                   Z               Mass
    ------------   -----------------  -----------------  -----------------  -----------------
         BE           0.000000000000     0.000000000000     0.851420055781     9.012183065000
         C            0.000000000000     0.000000000000    -0.639429450659    12.000000000000

  Nuclear repulsion =    8.518802871261205

  ==> Basis Set <==

  Basis Set: CC-PVDZ
    Blend: CC-PVDZ
    Number of shells: 12
    Number of basis functions: 28
    Number of Cartesian functions: 30
    Spherical Harmonics?: true
    Max angular momentum: 2

  ==> DFJKGrad: Density-Fitted SCF Gradients <==

    Gradient:                    1
    J tasked:                  Yes
    K tasked:                  Yes
    wK tasked:                  No
    OpenMP threads:              1
    Integrals threads:           1
    Memory [MiB]:              375
    Schwarz Cutoff:          1E-12
    Fitting Condition:       1E-10

   => Auxiliary Basis Set <=

  Basis Set: (CC-PVDZ AUX)
    Blend: CC-PVDZ-JKFIT + DEF2-UNIVERSAL-JKFIT
    Number of shells: 41
    Number of basis functions: 121
    Number of Cartesian functions: 141
    Spherical Harmonics?: true
    Max angular momentum: 3

  ==> DFT Potential <==

   => LibXC <=

    Version 6.2.2
    S. Lehtola, C. Steigemann, M. J.T. Oliveira, and M. A.L. Marques.,  SoftwareX 7, 1â€“5 (2018) (10.1016/j.softx.2017.11.002)

   => Composite Functional: B3LYP <=

    B3LYP Hyb-GGA Exchange-Correlation Functional

    P. J. Stephens, F. J. Devlin, C. F. Chabalowski, and M. J. Frisch.,  J. Phys. Chem. 98, 11623 (1994) (10.1021/j100096a001)

    Deriv               =              1
    GGA                 =           TRUE
    Meta                =          FALSE

    Exchange Hybrid     =           TRUE
    MP2 Hybrid          =          FALSE

   => Exchange Functionals <=

    0.0800   Slater exchange
    0.7200         Becke 88

   => Exact (HF) Exchange <=

    0.2000               HF

   => Correlation Functionals <=

    0.1900   Vosko, Wilk & Nusair (VWN5_RPA)
    0.8100   Lee, Yang & Parr

   => LibXC Density Thresholds  <==

    XC_HYB_GGA_XC_B3LYP:  1.00E-15

   => Molecular Quadrature <=

    Radial Scheme          =       TREUTLER
    Pruning Scheme         =           NONE
    Nuclear Scheme         =       TREUTLER

    Blocking Scheme        =         OCTREE
    BS radius alpha        =              1
    Pruning alpha          =              1
    Radial Points          =             75
    Spherical Points       =            302
    Total Points           =          43350
    Total Blocks           =            404
    Max Points             =            254
    Max Functions          =             28
    Weights Tolerance      =       1.00E-15

  -Total Gradient:
     Atom            X                  Y                   Z
    ------   -----------------  -----------------  -----------------
       1        0.000000000000    -0.000000000000    -0.000112306837
       2        0.000000000000    -0.000000000000     0.000124588145

*** tstop() called on Joses-MacBook-Pro-2.local at Thu Jul 17 09:39:44 2025
Module time:
	user time   =       0.51 seconds =       0.01 minutes
	system time =       1.27 seconds =       0.02 minutes
	total time  =          0 seconds =       0.00 minutes
Total time:
	user time   =      43.66 seconds =       0.73 minutes
	system time =      44.91 seconds =       0.75 minutes
	total time  =          9 seconds =       0.15 minutes

    			-----------------------------------------

    			 OPTKING 3.0: for geometry optimizations

    			     By R.A. King, Bethel University

    			        with contributions from

    			    A.V. Copan, J. Cayton, A. Heide

    			-----------------------------------------

	                            ===> Fragment 1 <==

	 Z (Atomic Numbers)          Masses                          Geom
	       4.000000             9.012183          0.00000000  0.00000000  1.60895072
	       6.000000            12.000000          0.00000000  0.00000000 -1.20834654

	 - Coordinate -           - BOHR/RAD -       - ANG/DEG -
	 R(1,2)           =         2.817297           1.490850

	        --- Internal Coordinate Step in ANG or DEG, aJ/ANG or AJ/DEG ---
	-------------------------------------------------------------------------------
	           Coordinate      Previous         Force          Change          New
	           ----------      --------        ------          ------        ------
	               R(1,2)       1.49085        0.00098        0.00019       1.49104
	-------------------------------------------------------------------------------

	                                 ==> Convergence Check <==

	Measures of convergence in internal coordinates in au.

	Criteria marked as inactive (o), active & met (*), and active & unmet ( ).

	----------------------------------------------------------------------------------------------
	   Step    Total Energy     Delta E     Max Force     RMS Force      Max Disp      RMS Disp
	----------------------------------------------------------------------------------------------
	  Convergence Criteria     1.00e-06 *    3.00e-04 *             o    1.20e-03 *             o
	----------------------------------------------------------------------------------------------
	     8     -52.57067383   -9.56e-07 *    1.18e-04 *    1.18e-04 o    3.57e-04 *    3.57e-04 o  ~
	----------------------------------------------------------------------------------------------

Next Geometry in Ang
	Fragment 1 (Ang)

	   Be   0.0000000000   0.0000000000   0.8515144630
	    C   0.0000000000   0.0000000000  -0.6395238578

    Final optimized geometry and variables:
    Molecular point group: c2v
    Full point group: C_inf_v

    Geometry (in Angstrom), charge = -1, multiplicity = 2:

    BE           0.000000000000     0.000000000000     0.851420055781
    C            0.000000000000     0.000000000000    -0.639429450659

    Psi4 stopped on: Thursday, 17 July 2025 09:39AM
    Psi4 wall time for execution: 0:00:08.97

*** Psi4 exiting successfully. Buy a developer a beer!
