                               Psi4 1.9.1 release

  ==> Input File <==

--------------------------------------------------------------------------
molecule {
-1 2
Li   0.00000        0.60000        0.00000
B   0.00000       -0.60000        0.00000
}

set {
basis              cc-pvdz
reference          uks
maxiter            500
geom_maxiter       500
DAMPING_PERCENTAGE 1
guess              SAP
}

optimize('b3lyp')
--------------------------------------------------------------------------

    Molecular point group: c2v
  Charge       = -1
  Multiplicity = 2
  Basis Set: CC-PVDZ
    Blend: CC-PVDZ
  Basis Set: (CC-PVDZ AUX)
    Blend: CC-PVDZ-JKFIT + DEF2-UNIVERSAL-JKFIT
  @DF-UKS Final Energy:   -32.01472401768071
    Total Energy =                        -32.0147240176807060
 Dipole X            :          0.0000000            0.0000000            0.0000000
 Dipole Y            :          0.0000000            0.0000000            0.0000000
 Dipole Z            :          0.8038328           -0.2581643            0.5456685
 Magnitude           :                                                    0.5456685
    Molecular point group: c2v
  Basis Set: CC-PVDZ
    Blend: CC-PVDZ
  Basis Set: (CC-PVDZ AUX)
    Blend: CC-PVDZ-JKFIT + DEF2-UNIVERSAL-JKFIT
  Basis Set: CC-PVDZ
    Blend: CC-PVDZ
  Basis Set: (CC-PVDZ AUX)
    Blend: CC-PVDZ-JKFIT + DEF2-UNIVERSAL-JKFIT
  @DF-UKS Final Energy:   -32.08749130831837
    Total Energy =                        -32.0874913083183699
  Basis Set: CC-PVDZ
    Blend: CC-PVDZ
  Basis Set: (CC-PVDZ AUX)
    Blend: CC-PVDZ-JKFIT + DEF2-UNIVERSAL-JKFIT
  Basis Set: CC-PVDZ
    Blend: CC-PVDZ
  @DF-UKS Final Energy:   -32.14379359770188
    Total Energy =                        -32.1437935977018796
  @DF-UKS Final Energy:   -32.16208468773807
    Total Energy =                        -32.1620846877380728
  @DF-UKS Final Energy:   -32.16834092927807
    Total Energy =                        -32.1683409292780667
  @DF-UKS Final Energy:   -32.16981656314839
    Total Energy =                        -32.1698165631483946
  @DF-UKS Final Energy:   -32.16998877624482
    Total Energy =                        -32.1699887762448213
  @DF-UKS Final Energy:   -32.17001112809176
    Total Energy =                        -32.1700111280917582
  Basis Set: (CC-PVDZ AUX)
    Blend: CC-PVDZ-JKFIT + DEF2-UNIVERSAL-JKFIT
  Basis Set: CC-PVDZ
    Blend: CC-PVDZ
  Basis Set: (CC-PVDZ AUX)
    Blend: CC-PVDZ-JKFIT + DEF2-UNIVERSAL-JKFIT
  @DF-UKS Final Energy:   -32.17001419276271
    Total Energy =                        -32.1700141927627143
  Basis Set: CC-PVDZ
    Blend: CC-PVDZ
  Basis Set: (CC-PVDZ AUX)
    Blend: CC-PVDZ-JKFIT + DEF2-UNIVERSAL-JKFIT
  Charge       = -1
  Multiplicity = 2
  Basis Set: CC-PVDZ
    Blend: CC-PVDZ
  Basis Set: (CC-PVDZ AUX)
    Blend: CC-PVDZ-JKFIT + DEF2-UNIVERSAL-JKFIT

    Orbital Energies [Eh]
    ---------------------

    Alpha Occupied:

       1A1    -6.607618     2A1    -1.867688     3A1    -0.189838
       1B2     0.022244     1B1     0.039059

    Alpha Virtual:

       4A1     0.065684     5A1     0.098984     2B2     0.131949
       2B1     0.132418     6A1     0.149223     7A1     0.213148
       3B2     0.228373     3B1     0.232061     8A1     0.373895
       1A2     0.385659     9A1     0.387434     4B2     0.450924
       4B1     0.455249     5B2     0.507472     5B1     0.521123
      10A1     0.538373    11A1     0.744256    12A1     0.829895
       2A2     0.934110    13A1     0.934680     6B2     1.057933
       6B1     1.070199    14A1     1.484660

    Beta Occupied:

       1A1    -6.598938     2A1    -1.867733     3A1    -0.145052
       1B1     0.058804

    Beta Virtual:

       4A1     0.067666     1B2     0.103631     5A1     0.107036
       2B1     0.146631     6A1     0.153058     2B2     0.165246
       7A1     0.212004     3B1     0.230173     3B2     0.246187
       8A1     0.377099     1A2     0.390269     9A1     0.398449
       4B1     0.454084     4B2     0.466197     5B1     0.543048
      10A1     0.548528     5B2     0.553244    11A1     0.759967
      12A1     0.844819     2A2     0.982773    13A1     0.984438
       6B1     1.086335     6B2     1.095111    14A1     1.492915

    Final Occupation by Irrep:
             A1    A2    B1    B2
    DOCC [     3,    0,    1,    0 ]
    SOCC [     0,    0,    0,    1 ]
    NA   [     3,    0,    1,    1 ]
    NB   [     3,    0,    1,    0 ]

  @DF-UKS Final Energy:   -32.17001465396167

   => Energetics <=

    Nuclear Repulsion Energy =              4.0578614320737891
    One-Electron Energy =                 -51.8375196475426634
    Two-Electron Energy =                  20.3950226647790629
    DFT Exchange-Correlation Energy =      -4.7853791032718602
    Empirical Dispersion Energy =           0.0000000000000000
    VV10 Nonlocal Energy =                  0.0000000000000000
    Total Energy =                        -32.1700146539616654

  UHF NO Occupations:
  HONO-2 :    3 A1 1.9988171
  HONO-1 :    1 B1 1.9376374
  HONO-0 :    1 B2 1.0000000
  LUNO+0 :    2 B1 0.0623626
  LUNO+1 :    4 A1 0.0011829
  LUNO+2 :    5 A1 0.0000001
  LUNO+3 :    6 A1 0.0000001

Computation Completed

Properties will be evaluated at   0.000000,   0.000000,   0.000000 [a0]

Properties computed using the SCF density matrix

 Multipole Moments:

 ------------------------------------------------------------------------------------
     Multipole            Electronic (a.u.)      Nuclear  (a.u.)        Total (a.u.)
 ------------------------------------------------------------------------------------

 L = 1.  Multiply by 2.5417464519 to convert [e a0] to [Debye]
 Dipole X            :          0.0000000            0.0000000            0.0000000
 Dipole Y            :          0.0000000            0.0000000            0.0000000
 Dipole Z            :          0.6895605           -0.4208333            0.2687272
 Magnitude           :                                                    0.2687272

 ------------------------------------------------------------------------------------

*** tstop() called on Joses-MacBook-Pro-2.local at Thu Jul 17 09:28:05 2025
Module time:
	user time   =       4.20 seconds =       0.07 minutes
	system time =       3.12 seconds =       0.05 minutes
	total time  =          1 seconds =       0.02 minutes
Total time:
	user time   =      59.66 seconds =       0.99 minutes
	system time =      51.75 seconds =       0.86 minutes
	total time  =         11 seconds =       0.18 minutes

*** tstart() called on Joses-MacBook-Pro-2.local
*** at Thu Jul 17 09:28:05 2025

         ------------------------------------------------------------
                                   SCF GRAD
                          Rob Parrish, Justin Turney,
                       Andy Simmonett, and Alex Sokolov
         ------------------------------------------------------------

  ==> Geometry <==

    Molecular point group: c2v
    Full point group: C_inf_v

    Geometry (in Angstrom), charge = -1, multiplicity = 2:

       Center              X                  Y                   Z               Mass
    ------------   -----------------  -----------------  -----------------  -----------------
         LI           0.000000000000     0.000000000000     1.194737191947     7.016003436600
         B            0.000000000000     0.000000000000    -0.761381392416    11.009305360000

  Nuclear repulsion =    4.057861432073789

  ==> Basis Set <==

  Basis Set: CC-PVDZ
    Blend: CC-PVDZ
    Number of shells: 12
    Number of basis functions: 28
    Number of Cartesian functions: 30
    Spherical Harmonics?: true
    Max angular momentum: 2

  ==> DFJKGrad: Density-Fitted SCF Gradients <==

    Gradient:                    1
    J tasked:                  Yes
    K tasked:                  Yes
    wK tasked:                  No
    OpenMP threads:              1
    Integrals threads:           1
    Memory [MiB]:              375
    Schwarz Cutoff:          1E-12
    Fitting Condition:       1E-10

   => Auxiliary Basis Set <=

  Basis Set: (CC-PVDZ AUX)
    Blend: CC-PVDZ-JKFIT + DEF2-UNIVERSAL-JKFIT
    Number of shells: 41
    Number of basis functions: 121
    Number of Cartesian functions: 141
    Spherical Harmonics?: true
    Max angular momentum: 3

  ==> DFT Potential <==

   => LibXC <=

    Version 6.2.2
    S. Lehtola, C. Steigemann, M. J.T. Oliveira, and M. A.L. Marques.,  SoftwareX 7, 1â€“5 (2018) (10.1016/j.softx.2017.11.002)

   => Composite Functional: B3LYP <=

    B3LYP Hyb-GGA Exchange-Correlation Functional

    P. J. Stephens, F. J. Devlin, C. F. Chabalowski, and M. J. Frisch.,  J. Phys. Chem. 98, 11623 (1994) (10.1021/j100096a001)

    Deriv               =              1
    GGA                 =           TRUE
    Meta                =          FALSE

    Exchange Hybrid     =           TRUE
    MP2 Hybrid          =          FALSE

   => Exchange Functionals <=

    0.0800   Slater exchange
    0.7200         Becke 88

   => Exact (HF) Exchange <=

    0.2000               HF

   => Correlation Functionals <=

    0.1900   Vosko, Wilk & Nusair (VWN5_RPA)
    0.8100   Lee, Yang & Parr

   => LibXC Density Thresholds  <==

    XC_HYB_GGA_XC_B3LYP:  1.00E-15

   => Molecular Quadrature <=

    Radial Scheme          =       TREUTLER
    Pruning Scheme         =           NONE
    Nuclear Scheme         =       TREUTLER

    Blocking Scheme        =         OCTREE
    BS radius alpha        =              1
    Pruning alpha          =              1
    Radial Points          =             75
    Spherical Points       =            302
    Total Points           =          44329
    Total Blocks           =            433
    Max Points             =            255
    Max Functions          =             28
    Weights Tolerance      =       1.00E-15

  -Total Gradient:
     Atom            X                  Y                   Z
    ------   -----------------  -----------------  -----------------
       1        0.000000000000     0.000000000000    -0.000041088015
       2        0.000000000000     0.000000000000     0.000058841576

*** tstop() called on Joses-MacBook-Pro-2.local at Thu Jul 17 09:28:05 2025
Module time:
	user time   =       0.47 seconds =       0.01 minutes
	system time =       1.21 seconds =       0.02 minutes
	total time  =          0 seconds =       0.00 minutes
Total time:
	user time   =      60.13 seconds =       1.00 minutes
	system time =      52.96 seconds =       0.88 minutes
	total time  =         11 seconds =       0.18 minutes

    			-----------------------------------------

    			 OPTKING 3.0: for geometry optimizations

    			     By R.A. King, Bethel University

    			        with contributions from

    			    A.V. Copan, J. Cayton, A. Heide

    			-----------------------------------------

	                            ===> Fragment 1 <==

	 Z (Atomic Numbers)          Masses                          Geom
	       3.000000             7.016003          0.00000000  0.00000000  2.25772608
	       5.000000            11.009305          0.00000000  0.00000000 -1.43880231

	 - Coordinate -           - BOHR/RAD -       - ANG/DEG -
	 R(1,2)           =         3.696528           1.956119

	        --- Internal Coordinate Step in ANG or DEG, aJ/ANG or AJ/DEG ---
	-------------------------------------------------------------------------------
	           Coordinate      Previous         Force          Change          New
	           ----------      --------        ------          ------        ------
	               R(1,2)       1.95612        0.00041        0.00044       1.95656
	-------------------------------------------------------------------------------

	                                 ==> Convergence Check <==

	Measures of convergence in internal coordinates in au.

	Criteria marked as inactive (o), active & met (*), and active & unmet ( ).

	----------------------------------------------------------------------------------------------
	   Step    Total Energy     Delta E     Max Force     RMS Force      Max Disp      RMS Disp
	----------------------------------------------------------------------------------------------
	  Convergence Criteria     1.00e-06 *    3.00e-04 *             o    1.20e-03 *             o
	----------------------------------------------------------------------------------------------
	    10     -32.17001465   -4.61e-07 *    5.00e-05 *    5.00e-05 o    8.31e-04 *    8.31e-04 o  ~
	----------------------------------------------------------------------------------------------

Next Geometry in Ang
	Fragment 1 (Ang)

	   Li   0.0000000000   0.0000000000   1.1949570089
	    B   0.0000000000   0.0000000000  -0.7616012093

    Final optimized geometry and variables:
    Molecular point group: c2v
    Full point group: C_inf_v

    Geometry (in Angstrom), charge = -1, multiplicity = 2:

    LI           0.000000000000     0.000000000000     1.194737191947
    B            0.000000000000     0.000000000000    -0.761381392416

    Psi4 stopped on: Thursday, 17 July 2025 09:28AM
    Psi4 wall time for execution: 0:00:11.61

*** Psi4 exiting successfully. Buy a developer a beer!
