                               Psi4 1.9.1 release

  ==> Input File <==

--------------------------------------------------------------------------
molecule {
-1 2
Mg   0.00000        0.60000        0.00000
S   0.00000       -0.60000        0.00000
}

set {
basis              cc-pvdz
reference          uks
maxiter            500
geom_maxiter       500
DAMPING_PERCENTAGE 1
guess              SAP
}

optimize('b3lyp')
--------------------------------------------------------------------------

    Molecular point group: c2v
  Charge       = -1
  Multiplicity = 2
  Basis Set: CC-PVDZ
    Blend: CC-PVDZ
  Basis Set: (CC-PVDZ AUX)
    Blend: CC-PVDZ-JKFIT + DEF2-UNIVERSAL-JKFIT
  @DF-UKS Final Energy:  -597.26112302999570
    Total Energy =                       -597.2611230299958152
 Dipole X            :          0.0000000            0.0000000            0.0000000
 Dipole Y            :          0.0000000            0.0000000            0.0000000
 Dipole Z            :         -1.1553916           -0.0038828           -1.1592744
 Magnitude           :                                                    1.1592744
    Molecular point group: c2v
  Basis Set: CC-PVDZ
    Blend: CC-PVDZ
  Basis Set: (CC-PVDZ AUX)
    Blend: CC-PVDZ-JKFIT + DEF2-UNIVERSAL-JKFIT
  Basis Set: CC-PVDZ
    Blend: CC-PVDZ
  Basis Set: (CC-PVDZ AUX)
    Blend: CC-PVDZ-JKFIT + DEF2-UNIVERSAL-JKFIT
  @DF-UKS Final Energy:  -597.28008473740374
    Total Energy =                       -597.2800847374037403
  Basis Set: CC-PVDZ
    Blend: CC-PVDZ
  Basis Set: (CC-PVDZ AUX)
    Blend: CC-PVDZ-JKFIT + DEF2-UNIVERSAL-JKFIT
  Basis Set: CC-PVDZ
    Blend: CC-PVDZ
  @DF-UKS Final Energy:  -597.31658153419710
    Total Energy =                       -597.3165815341970983
  @DF-UKS Final Energy:  -597.44775366117199
    Total Energy =                       -597.4477536611721007
  @DF-UKS Final Energy:  -597.97661084700030
    Total Energy =                       -597.9766108470003019
  @DF-UKS Final Energy:  -598.19418143297787
    Total Energy =                       -598.1941814329778708
  @DF-UKS Final Energy:  -598.29556590006962
    Total Energy =                       -598.2955659000696187
  @DF-UKS Final Energy:  -598.33677185295221
    Total Energy =                       -598.3367718529522108
  @DF-UKS Final Energy:  -598.35217523681922
    Total Energy =                       -598.3521752368192210
  @DF-UKS Final Energy:  -598.35637476246814
    Total Energy =                       -598.3563747624681355
  @DF-UKS Final Energy:  -598.35697246276754
    Total Energy =                       -598.3569724627676578
  @DF-UKS Final Energy:  -598.35706923530597
    Total Energy =                       -598.3570692353059712
  @DF-UKS Final Energy:  -598.35708599392717
    Total Energy =                       -598.3570859939270576
  Basis Set: (CC-PVDZ AUX)
    Blend: CC-PVDZ-JKFIT + DEF2-UNIVERSAL-JKFIT
  Basis Set: CC-PVDZ
    Blend: CC-PVDZ
  Basis Set: (CC-PVDZ AUX)
    Blend: CC-PVDZ-JKFIT + DEF2-UNIVERSAL-JKFIT
  @DF-UKS Final Energy:  -598.35708934178933
    Total Energy =                       -598.3570893417894467
  Basis Set: CC-PVDZ
    Blend: CC-PVDZ
  Basis Set: (CC-PVDZ AUX)
    Blend: CC-PVDZ-JKFIT + DEF2-UNIVERSAL-JKFIT
  Charge       = -1
  Multiplicity = 2
  Basis Set: CC-PVDZ
    Blend: CC-PVDZ
  Basis Set: (CC-PVDZ AUX)
    Blend: CC-PVDZ-JKFIT + DEF2-UNIVERSAL-JKFIT

    Orbital Energies [Eh]
    ---------------------

    Alpha Occupied:

       1A1   -88.600880     2A1   -46.630849     3A1    -7.660632
       4A1    -5.624529     1B2    -5.619286     1B1    -5.619286
       5A1    -2.916881     2B1    -1.660864     2B2    -1.660864
       6A1    -1.659502     7A1    -0.403164     8A1    -0.073230
       3B2    -0.009683     3B1    -0.009683     9A1     0.002151

    Alpha Virtual:

       4B1     0.137964     4B2     0.137964    10A1     0.185558
      11A1     0.245775     5B1     0.315921     5B2     0.315921
      12A1     0.392025     1A2     0.493667    13A1     0.493667
       6B1     0.502376     6B2     0.502376    14A1     0.556818
       7B2     0.769428     7B1     0.769428    15A1     0.837066
       2A2     0.889010    16A1     0.889010    17A1     0.890085
       8B2     0.994729     8B1     0.994729    18A1     1.328500

    Beta Occupied:

       1A1   -88.599343     2A1   -46.629617     3A1    -7.659079
       4A1    -5.619315     1B2    -5.618405     1B1    -5.618405
       5A1    -2.914901     2B1    -1.659765     2B2    -1.659765
       6A1    -1.656004     7A1    -0.390588     8A1    -0.049008
       3B2    -0.006669     3B1    -0.006669

    Beta Virtual:

       9A1     0.071387     4B2     0.149165     4B1     0.149165
      10A1     0.192825    11A1     0.260851     5B1     0.323271
       5B2     0.323271    12A1     0.409973     1A2     0.502153
      13A1     0.502154     6B1     0.520098     6B2     0.520098
      14A1     0.570818     7B2     0.772784     7B1     0.772784
      15A1     0.849494     2A2     0.890789    16A1     0.890789
      17A1     0.901809     8B2     1.006889     8B1     1.006889
      18A1     1.338577

    Final Occupation by Irrep:
             A1    A2    B1    B2
    DOCC [     8,    0,    3,    3 ]
    SOCC [     1,    0,    0,    0 ]
    NA   [     9,    0,    3,    3 ]
    NB   [     8,    0,    3,    3 ]

  @DF-UKS Final Energy:  -598.35708953572043

   => Energetics <=

    Nuclear Repulsion Energy =             45.5002879582010280
    One-Electron Energy =                -927.1461764474157690
    Two-Electron Energy =                 317.4498017786631294
    DFT Exchange-Correlation Energy =     -34.1610028251688647
    Empirical Dispersion Energy =           0.0000000000000000
    VV10 Nonlocal Energy =                  0.0000000000000000
    Total Energy =                       -598.3570895357204336

  UHF NO Occupations:
  HONO-2 :    7 A1 1.9999183
  HONO-1 :    8 A1 1.9981973
  HONO-0 :    9 A1 1.0000000
  LUNO+0 :   10 A1 0.0018027
  LUNO+1 :   11 A1 0.0000817
  LUNO+2 :    4 B1 0.0000607
  LUNO+3 :    4 B2 0.0000607

Computation Completed

Properties will be evaluated at   0.000000,   0.000000,   0.000000 [a0]

Properties computed using the SCF density matrix

 Multipole Moments:

 ------------------------------------------------------------------------------------
     Multipole            Electronic (a.u.)      Nuclear  (a.u.)        Total (a.u.)
 ------------------------------------------------------------------------------------

 L = 1.  Multiply by 2.5417464519 to convert [e a0] to [Debye]
 Dipole X            :          0.0000000            0.0000000            0.0000000
 Dipole Y            :          0.0000000            0.0000000            0.0000000
 Dipole Z            :          0.2233415           -0.0072253            0.2161162
 Magnitude           :                                                    0.2161162

 ------------------------------------------------------------------------------------

*** tstop() called on Joses-MacBook-Pro-2.local at Thu Jul 17 11:28:05 2025
Module time:
	user time   =       7.05 seconds =       0.12 minutes
	system time =       2.76 seconds =       0.05 minutes
	total time  =          1 seconds =       0.02 minutes
Total time:
	user time   =     181.89 seconds =       3.03 minutes
	system time =      59.34 seconds =       0.99 minutes
	total time  =         23 seconds =       0.38 minutes

*** tstart() called on Joses-MacBook-Pro-2.local
*** at Thu Jul 17 11:28:05 2025

         ------------------------------------------------------------
                                   SCF GRAD
                          Rob Parrish, Justin Turney,
                       Andy Simmonett, and Alex Sokolov
         ------------------------------------------------------------

  ==> Geometry <==

    Molecular point group: c2v
    Full point group: C_inf_v

    Geometry (in Angstrom), charge = -1, multiplicity = 2:

       Center              X                  Y                   Z               Mass
    ------------   -----------------  -----------------  -----------------  -----------------
         MG           0.000000000000     0.000000000000     1.275861958524    23.985041697000
         S            0.000000000000     0.000000000000    -0.957135435734    31.972071174400

  Nuclear repulsion =   45.500287958201028

  ==> Basis Set <==

  Basis Set: CC-PVDZ
    Blend: CC-PVDZ
    Number of shells: 16
    Number of basis functions: 36
    Number of Cartesian functions: 38
    Spherical Harmonics?: true
    Max angular momentum: 2

  ==> DFJKGrad: Density-Fitted SCF Gradients <==

    Gradient:                    1
    J tasked:                  Yes
    K tasked:                  Yes
    wK tasked:                  No
    OpenMP threads:              1
    Integrals threads:           1
    Memory [MiB]:              375
    Schwarz Cutoff:          1E-12
    Fitting Condition:       1E-10

   => Auxiliary Basis Set <=

  Basis Set: (CC-PVDZ AUX)
    Blend: CC-PVDZ-JKFIT + DEF2-UNIVERSAL-JKFIT
    Number of shells: 70
    Number of basis functions: 224
    Number of Cartesian functions: 267
    Spherical Harmonics?: true
    Max angular momentum: 4

  ==> DFT Potential <==

   => LibXC <=

    Version 6.2.2
    S. Lehtola, C. Steigemann, M. J.T. Oliveira, and M. A.L. Marques.,  SoftwareX 7, 1â€“5 (2018) (10.1016/j.softx.2017.11.002)

   => Composite Functional: B3LYP <=

    B3LYP Hyb-GGA Exchange-Correlation Functional

    P. J. Stephens, F. J. Devlin, C. F. Chabalowski, and M. J. Frisch.,  J. Phys. Chem. 98, 11623 (1994) (10.1021/j100096a001)

    Deriv               =              1
    GGA                 =           TRUE
    Meta                =          FALSE

    Exchange Hybrid     =           TRUE
    MP2 Hybrid          =          FALSE

   => Exchange Functionals <=

    0.0800   Slater exchange
    0.7200         Becke 88

   => Exact (HF) Exchange <=

    0.2000               HF

   => Correlation Functionals <=

    0.1900   Vosko, Wilk & Nusair (VWN5_RPA)
    0.8100   Lee, Yang & Parr

   => LibXC Density Thresholds  <==

    XC_HYB_GGA_XC_B3LYP:  1.00E-15

   => Molecular Quadrature <=

    Radial Scheme          =       TREUTLER
    Pruning Scheme         =           NONE
    Nuclear Scheme         =       TREUTLER

    Blocking Scheme        =         OCTREE
    BS radius alpha        =              1
    Pruning alpha          =              1
    Radial Points          =             75
    Spherical Points       =            302
    Total Points           =          43003
    Total Blocks           =            420
    Max Points             =            252
    Max Functions          =             36
    Weights Tolerance      =       1.00E-15

  -Total Gradient:
     Atom            X                  Y                   Z
    ------   -----------------  -----------------  -----------------
       1       -0.000000000000    -0.000000000000     0.000000315796
       2        0.000000000000    -0.000000000000     0.000056417660

*** tstop() called on Joses-MacBook-Pro-2.local at Thu Jul 17 11:28:06 2025
Module time:
	user time   =       2.20 seconds =       0.04 minutes
	system time =       1.64 seconds =       0.03 minutes
	total time  =          1 seconds =       0.02 minutes
Total time:
	user time   =     184.09 seconds =       3.07 minutes
	system time =      60.98 seconds =       1.02 minutes
	total time  =         24 seconds =       0.40 minutes

    			-----------------------------------------

    			 OPTKING 3.0: for geometry optimizations

    			     By R.A. King, Bethel University

    			        with contributions from

    			    A.V. Copan, J. Cayton, A. Heide

    			-----------------------------------------

	                            ===> Fragment 1 <==

	 Z (Atomic Numbers)          Masses                          Geom
	      12.000000            23.985042          0.00000000  0.00000000  2.41102968
	      16.000000            31.972071          0.00000000  0.00000000 -1.80872384

	 - Coordinate -           - BOHR/RAD -       - ANG/DEG -
	 R(1,2)           =         4.219754           2.232997

	        --- Internal Coordinate Step in ANG or DEG, aJ/ANG or AJ/DEG ---
	-------------------------------------------------------------------------------
	           Coordinate      Previous         Force          Change          New
	           ----------      --------        ------          ------        ------
	               R(1,2)       2.23300        0.00023        0.00012       2.23312
	-------------------------------------------------------------------------------

	                                 ==> Convergence Check <==

	Measures of convergence in internal coordinates in au.

	Criteria marked as inactive (o), active & met (*), and active & unmet ( ).

	----------------------------------------------------------------------------------------------
	   Step    Total Energy     Delta E     Max Force     RMS Force      Max Disp      RMS Disp
	----------------------------------------------------------------------------------------------
	  Convergence Criteria     1.00e-06 *    3.00e-04 *             o    1.20e-03 *             o
	----------------------------------------------------------------------------------------------
	    15    -598.35708954   -1.94e-07 *    2.81e-05 *    2.81e-05 o    2.34e-04 *    2.34e-04 o  ~
	----------------------------------------------------------------------------------------------

Next Geometry in Ang
	Fragment 1 (Ang)

	   Mg   0.0000000000   0.0000000000   1.2759238468
	    S   0.0000000000   0.0000000000  -0.9571973240

    Final optimized geometry and variables:
    Molecular point group: c2v
    Full point group: C_inf_v

    Geometry (in Angstrom), charge = -1, multiplicity = 2:

    MG           0.000000000000     0.000000000000     1.275861958524
    S            0.000000000000     0.000000000000    -0.957135435734

    Psi4 stopped on: Thursday, 17 July 2025 11:28AM
    Psi4 wall time for execution: 0:00:24.00

*** Psi4 exiting successfully. Buy a developer a beer!
