                               Psi4 1.9.1 release

  ==> Input File <==

--------------------------------------------------------------------------
molecule {
-1 2
O   0.00000        0.60000        0.00000
Mg   0.00000       -0.60000        0.00000
}

set {
basis              cc-pvdz
reference          uks
maxiter            500
geom_maxiter       500
DAMPING_PERCENTAGE 1
guess              SAP
}

optimize('b3lyp')
--------------------------------------------------------------------------

    Molecular point group: c2v
  Charge       = -1
  Multiplicity = 2
  Basis Set: CC-PVDZ
    Blend: CC-PVDZ
  Basis Set: (CC-PVDZ AUX)
    Blend: CC-PVDZ-JKFIT + DEF2-UNIVERSAL-JKFIT
  @DF-UKS Final Energy:  -274.88549625872929
    Total Energy =                       -274.8854962587292903
 Dipole X            :          0.0000000            0.0000000            0.0000000
 Dipole Y            :          0.0000000            0.0000000            0.0000000
 Dipole Z            :          1.0288856           -0.0033262            1.0255594
 Magnitude           :                                                    1.0255594
    Molecular point group: c2v
  Basis Set: CC-PVDZ
    Blend: CC-PVDZ
  Basis Set: (CC-PVDZ AUX)
    Blend: CC-PVDZ-JKFIT + DEF2-UNIVERSAL-JKFIT
  Basis Set: CC-PVDZ
    Blend: CC-PVDZ
  Basis Set: (CC-PVDZ AUX)
    Blend: CC-PVDZ-JKFIT + DEF2-UNIVERSAL-JKFIT
  @DF-UKS Final Energy:  -275.11575288491895
    Total Energy =                       -275.1157528849189475
  Basis Set: CC-PVDZ
    Blend: CC-PVDZ
  Basis Set: (CC-PVDZ AUX)
    Blend: CC-PVDZ-JKFIT + DEF2-UNIVERSAL-JKFIT
  Basis Set: CC-PVDZ
    Blend: CC-PVDZ
  @DF-UKS Final Energy:  -275.23149507082729
    Total Energy =                       -275.2314950708272931
  @DF-UKS Final Energy:  -275.27444077842631
    Total Energy =                       -275.2744407784263103
  @DF-UKS Final Energy:  -275.28719530579173
    Total Energy =                       -275.2871953057917267
  @DF-UKS Final Energy:  -275.29331713841674
    Total Energy =                       -275.2933171384167395
  @DF-UKS Final Energy:  -275.29491593718353
    Total Energy =                       -275.2949159371835322
  @DF-UKS Final Energy:  -275.29550311979602
    Total Energy =                       -275.2955031197960238
  @DF-UKS Final Energy:  -275.29560289778107
    Total Energy =                       -275.2956028977810661
  Basis Set: (CC-PVDZ AUX)
    Blend: CC-PVDZ-JKFIT + DEF2-UNIVERSAL-JKFIT
  Basis Set: CC-PVDZ
    Blend: CC-PVDZ
  Basis Set: (CC-PVDZ AUX)
    Blend: CC-PVDZ-JKFIT + DEF2-UNIVERSAL-JKFIT
  @DF-UKS Final Energy:  -275.29562289909791
    Total Energy =                       -275.2956228990979071
  Basis Set: CC-PVDZ
    Blend: CC-PVDZ
  Basis Set: (CC-PVDZ AUX)
    Blend: CC-PVDZ-JKFIT + DEF2-UNIVERSAL-JKFIT
  Charge       = -1
  Multiplicity = 2
  Basis Set: CC-PVDZ
    Blend: CC-PVDZ
  Basis Set: (CC-PVDZ AUX)
    Blend: CC-PVDZ-JKFIT + DEF2-UNIVERSAL-JKFIT

    Orbital Energies [Eh]
    ---------------------

    Alpha Occupied:

       1A1   -46.579161     2A1   -18.852347     3A1    -2.869258
       1B2    -1.613400     1B1    -1.613400     4A1    -1.611967
       5A1    -0.603373     6A1    -0.073617     2B2    -0.014278
       2B1    -0.014278     7A1     0.015662

    Alpha Virtual:

       3B2     0.154467     3B1     0.154467     8A1     0.198052
       9A1     0.270196     4B2     0.347016     4B1     0.347016
      10A1     0.430285    11A1     0.526963     1A2     0.526963
       5B2     0.590867     5B1     0.590867    12A1     0.756135
       6B1     1.294694     6B2     1.294694    13A1     1.296669
      14A1     2.130869    15A1     2.912382     2A2     2.912382
       7B2     2.939268     7B1     2.939268    16A1     2.959198

    Beta Occupied:

       1A1   -46.578390     2A1   -18.840221     3A1    -2.868104
       1B2    -1.612965     1B1    -1.612965     4A1    -1.608655
       5A1    -0.566776     6A1    -0.008972     2B2    -0.000560
       2B1    -0.000560

    Beta Virtual:

       7A1     0.090687     3B2     0.164317     3B1     0.164317
       8A1     0.202971     9A1     0.283817     4B2     0.353472
       4B1     0.353472    10A1     0.448229    11A1     0.530889
       1A2     0.530889     5B2     0.600078     5B1     0.600078
      12A1     0.770439     6B1     1.304976     6B2     1.304976
      13A1     1.337873    14A1     2.153049     2A2     2.921965
      15A1     2.921966     7B2     2.976601     7B1     2.976601
      16A1     3.003065

    Final Occupation by Irrep:
             A1    A2    B1    B2
    DOCC [     6,    0,    2,    2 ]
    SOCC [     1,    0,    0,    0 ]
    NA   [     7,    0,    2,    2 ]
    NB   [     6,    0,    2,    2 ]

  @DF-UKS Final Energy:  -275.29562490485887

   => Energetics <=

    Nuclear Repulsion Energy =             28.2126808380395744
    One-Electron Energy =                -444.8980798113244646
    Two-Electron Energy =                 161.7771349648591581
    DFT Exchange-Correlation Energy =     -20.3873608964331190
    Empirical Dispersion Energy =           0.0000000000000000
    VV10 Nonlocal Energy =                  0.0000000000000000
    Total Energy =                       -275.2956249048588688

  UHF NO Occupations:
  HONO-2 :    2 B1 1.9993981
  HONO-1 :    6 A1 1.9962777
  HONO-0 :    7 A1 1.0000000
  LUNO+0 :    8 A1 0.0037223
  LUNO+1 :    3 B1 0.0006019
  LUNO+2 :    3 B2 0.0006019
  LUNO+3 :    9 A1 0.0000822

Computation Completed

Properties will be evaluated at   0.000000,   0.000000,   0.000000 [a0]

Properties computed using the SCF density matrix

 Multipole Moments:

 ------------------------------------------------------------------------------------
     Multipole            Electronic (a.u.)      Nuclear  (a.u.)        Total (a.u.)
 ------------------------------------------------------------------------------------

 L = 1.  Multiply by 2.5417464519 to convert [e a0] to [Debye]
 Dipole X            :          0.0000000            0.0000000            0.0000000
 Dipole Y            :          0.0000000            0.0000000            0.0000000
 Dipole Z            :         -0.0075932           -0.0049911           -0.0125842
 Magnitude           :                                                    0.0125842

 ------------------------------------------------------------------------------------

*** tstop() called on Joses-MacBook-Pro-2.local at Thu Jul 17 10:40:57 2025
Module time:
	user time   =       4.47 seconds =       0.07 minutes
	system time =       3.91 seconds =       0.07 minutes
	total time  =          0 seconds =       0.00 minutes
Total time:
	user time   =      71.66 seconds =       1.19 minutes
	system time =      65.50 seconds =       1.09 minutes
	total time  =         14 seconds =       0.23 minutes

*** tstart() called on Joses-MacBook-Pro-2.local
*** at Thu Jul 17 10:40:57 2025

         ------------------------------------------------------------
                                   SCF GRAD
                          Rob Parrish, Justin Turney,
                       Andy Simmonett, and Alex Sokolov
         ------------------------------------------------------------

  ==> Geometry <==

    Molecular point group: c2v
    Full point group: C_inf_v

    Geometry (in Angstrom), charge = -1, multiplicity = 2:

       Center              X                  Y                   Z               Mass
    ------------   -----------------  -----------------  -----------------  -----------------
         O            0.000000000000     0.000000000000     1.080254719869    15.994914619570
         MG           0.000000000000     0.000000000000    -0.720389909259    23.985041697000

  Nuclear repulsion =   28.212680838039574

  ==> Basis Set <==

  Basis Set: CC-PVDZ
    Blend: CC-PVDZ
    Number of shells: 14
    Number of basis functions: 32
    Number of Cartesian functions: 34
    Spherical Harmonics?: true
    Max angular momentum: 2

  ==> DFJKGrad: Density-Fitted SCF Gradients <==

    Gradient:                    1
    J tasked:                  Yes
    K tasked:                  Yes
    wK tasked:                  No
    OpenMP threads:              1
    Integrals threads:           1
    Memory [MiB]:              375
    Schwarz Cutoff:          1E-12
    Fitting Condition:       1E-10

   => Auxiliary Basis Set <=

  Basis Set: (CC-PVDZ AUX)
    Blend: CC-PVDZ-JKFIT + DEF2-UNIVERSAL-JKFIT
    Number of shells: 58
    Number of basis functions: 182
    Number of Cartesian functions: 218
    Spherical Harmonics?: true
    Max angular momentum: 4

  ==> DFT Potential <==

   => LibXC <=

    Version 6.2.2
    S. Lehtola, C. Steigemann, M. J.T. Oliveira, and M. A.L. Marques.,  SoftwareX 7, 1â€“5 (2018) (10.1016/j.softx.2017.11.002)

   => Composite Functional: B3LYP <=

    B3LYP Hyb-GGA Exchange-Correlation Functional

    P. J. Stephens, F. J. Devlin, C. F. Chabalowski, and M. J. Frisch.,  J. Phys. Chem. 98, 11623 (1994) (10.1021/j100096a001)

    Deriv               =              1
    GGA                 =           TRUE
    Meta                =          FALSE

    Exchange Hybrid     =           TRUE
    MP2 Hybrid          =          FALSE

   => Exchange Functionals <=

    0.0800   Slater exchange
    0.7200         Becke 88

   => Exact (HF) Exchange <=

    0.2000               HF

   => Correlation Functionals <=

    0.1900   Vosko, Wilk & Nusair (VWN5_RPA)
    0.8100   Lee, Yang & Parr

   => LibXC Density Thresholds  <==

    XC_HYB_GGA_XC_B3LYP:  1.00E-15

   => Molecular Quadrature <=

    Radial Scheme          =       TREUTLER
    Pruning Scheme         =           NONE
    Nuclear Scheme         =       TREUTLER

    Blocking Scheme        =         OCTREE
    BS radius alpha        =              1
    Pruning alpha          =              1
    Radial Points          =             75
    Spherical Points       =            302
    Total Points           =          43425
    Total Blocks           =            409
    Max Points             =            255
    Max Functions          =             32
    Weights Tolerance      =       1.00E-15

  -Total Gradient:
     Atom            X                  Y                   Z
    ------   -----------------  -----------------  -----------------
       1        0.000000000000    -0.000000000000    -0.000217271632
       2        0.000000000000    -0.000000000000     0.000149236703

*** tstop() called on Joses-MacBook-Pro-2.local at Thu Jul 17 10:40:58 2025
Module time:
	user time   =       1.12 seconds =       0.02 minutes
	system time =       1.84 seconds =       0.03 minutes
	total time  =          1 seconds =       0.02 minutes
Total time:
	user time   =      72.79 seconds =       1.21 minutes
	system time =      67.34 seconds =       1.12 minutes
	total time  =         15 seconds =       0.25 minutes

    			-----------------------------------------

    			 OPTKING 3.0: for geometry optimizations

    			     By R.A. King, Bethel University

    			        with contributions from

    			    A.V. Copan, J. Cayton, A. Heide

    			-----------------------------------------

	                            ===> Fragment 1 <==

	 Z (Atomic Numbers)          Masses                          Geom
	       8.000000            15.994915          0.00000000  0.00000000  2.04138557
	      12.000000            23.985042          0.00000000  0.00000000 -1.36133963

	 - Coordinate -           - BOHR/RAD -       - ANG/DEG -
	 R(1,2)           =         3.402725           1.800645

	        --- Internal Coordinate Step in ANG or DEG, aJ/ANG or AJ/DEG ---
	-------------------------------------------------------------------------------
	           Coordinate      Previous         Force          Change          New
	           ----------      --------        ------          ------        ------
	               R(1,2)       1.80064        0.00151        0.00046       1.80110
	-------------------------------------------------------------------------------

	                                 ==> Convergence Check <==

	Measures of convergence in internal coordinates in au.

	Criteria marked as inactive (o), active & met (*), and active & unmet ( ).

	----------------------------------------------------------------------------------------------
	   Step    Total Energy     Delta E     Max Force     RMS Force      Max Disp      RMS Disp
	----------------------------------------------------------------------------------------------
	  Convergence Criteria     1.00e-06 *    3.00e-04 *             o    1.20e-03 *             o
	----------------------------------------------------------------------------------------------
	    11    -275.29562490   -2.01e-06      1.83e-04 *    1.83e-04 o    8.66e-04 *    8.66e-04 o  ~
	----------------------------------------------------------------------------------------------

Next Geometry in Ang
	Fragment 1 (Ang)

	    O   0.0000000000   0.0000000000   1.0804839428
	   Mg   0.0000000000   0.0000000000  -0.7206191322

    Final optimized geometry and variables:
    Molecular point group: c2v
    Full point group: C_inf_v

    Geometry (in Angstrom), charge = -1, multiplicity = 2:

    O            0.000000000000     0.000000000000     1.080254719869
    MG           0.000000000000     0.000000000000    -0.720389909259

    Psi4 stopped on: Thursday, 17 July 2025 10:40AM
    Psi4 wall time for execution: 0:00:15.09

*** Psi4 exiting successfully. Buy a developer a beer!
