                               Psi4 1.9.1 release

  ==> Input File <==

--------------------------------------------------------------------------
molecule {
-1 2
Mg   0.00000        0.60000        0.00000
Si   0.00000       -0.60000        0.00000
}

set {
basis              cc-pvdz
reference          uks
maxiter            500
geom_maxiter       500
DAMPING_PERCENTAGE 1
guess              SAP
}

optimize('b3lyp')
--------------------------------------------------------------------------

    Molecular point group: c2v
  Charge       = -1
  Multiplicity = 2
  Basis Set: CC-PVDZ
    Blend: CC-PVDZ
  Basis Set: (CC-PVDZ AUX)
    Blend: CC-PVDZ-JKFIT + DEF2-UNIVERSAL-JKFIT
  @DF-UKS Final Energy:  -488.60976404224647
    Total Energy =                       -488.6097640422464679
 Dipole X            :          0.0000000            0.0000000            0.0000000
 Dipole Y            :          0.0000000            0.0000000            0.0000000
 Dipole Z            :          0.0321849           -0.0029443            0.0292406
 Magnitude           :                                                    0.0292406
    Molecular point group: c2v
  Basis Set: CC-PVDZ
    Blend: CC-PVDZ
  Basis Set: (CC-PVDZ AUX)
    Blend: CC-PVDZ-JKFIT + DEF2-UNIVERSAL-JKFIT
  Basis Set: CC-PVDZ
    Blend: CC-PVDZ
  Basis Set: (CC-PVDZ AUX)
    Blend: CC-PVDZ-JKFIT + DEF2-UNIVERSAL-JKFIT
  @DF-UKS Final Energy:  -488.62027914938682
    Total Energy =                       -488.6202791493868176
  Basis Set: CC-PVDZ
    Blend: CC-PVDZ
  Basis Set: (CC-PVDZ AUX)
    Blend: CC-PVDZ-JKFIT + DEF2-UNIVERSAL-JKFIT
  Basis Set: CC-PVDZ
    Blend: CC-PVDZ
  @DF-UKS Final Energy:  -488.64062487212624
    Total Energy =                       -488.6406248721262386
  @DF-UKS Final Energy:  -488.71491512947762
    Total Energy =                       -488.7149151294776175
  @DF-UKS Final Energy:  -489.05725518238478
    Total Energy =                       -489.0572551823847789
  @DF-UKS Final Energy:  -489.25729890098097
    Total Energy =                       -489.2572989009809703
  @DF-UKS Final Energy:  -489.42219201845120
    Total Energy =                       -489.4221920184511987
  @DF-UKS Final Energy:  -489.49769034238659
    Total Energy =                       -489.4976903423865906
  @DF-UKS Final Energy:  -489.51897966599665
    Total Energy =                       -489.5189796659966532
  @DF-UKS Final Energy:  -489.52754291949157
    Total Energy =                       -489.5275429194915660
  @DF-UKS Final Energy:  -489.52974808614198
    Total Energy =                       -489.5297480861419785
  @DF-UKS Final Energy:  -489.53005958806813
    Total Energy =                       -489.5300595880681271
  @DF-UKS Final Energy:  -489.53010910213965
    Total Energy =                       -489.5301091021396473
  Basis Set: (CC-PVDZ AUX)
    Blend: CC-PVDZ-JKFIT + DEF2-UNIVERSAL-JKFIT
  Basis Set: CC-PVDZ
    Blend: CC-PVDZ
  Basis Set: (CC-PVDZ AUX)
    Blend: CC-PVDZ-JKFIT + DEF2-UNIVERSAL-JKFIT
  @DF-UKS Final Energy:  -489.53011867483042
    Total Energy =                       -489.5301186748304190
  Basis Set: CC-PVDZ
    Blend: CC-PVDZ
  Basis Set: (CC-PVDZ AUX)
    Blend: CC-PVDZ-JKFIT + DEF2-UNIVERSAL-JKFIT
  Charge       = -1
  Multiplicity = 2
  Basis Set: CC-PVDZ
    Blend: CC-PVDZ
  Basis Set: (CC-PVDZ AUX)
    Blend: CC-PVDZ-JKFIT + DEF2-UNIVERSAL-JKFIT

    Orbital Energies [Eh]
    ---------------------

    Alpha Occupied:

       1A1   -65.931066     2A1   -46.647878     3A1    -5.073086
       4A1    -3.433966     1B1    -3.433878     1B2    -3.426956
       5A1    -2.930302     6A1    -1.674640     2B1    -1.674624
       2B2    -1.672361     7A1    -0.237480     8A1    -0.038545
       3B1     0.010424     3B2     0.033291

    Alpha Virtual:

       9A1     0.069587     4B1     0.134181     4B2     0.143419
      10A1     0.178595    11A1     0.245486     5B1     0.303846
       5B2     0.311529    12A1     0.345951    13A1     0.440769
       6B1     0.450135     6B2     0.462790     1A2     0.478596
      14A1     0.478856     7B1     0.520611     7B2     0.538853
      15A1     0.562563     2A2     0.593961    16A1     0.595468
      17A1     0.691476     8B1     0.722356     8B2     0.738784
      18A1     0.971860

    Beta Occupied:

       1A1   -65.928298     2A1   -46.647980     3A1    -5.069953
       4A1    -3.431165     1B1    -3.425717     1B2    -3.424295
       5A1    -2.930538     6A1    -1.674864     2B1    -1.674126
       2B2    -1.672911     7A1    -0.203475     8A1    -0.033390
       3B2     0.044315

    Beta Virtual:

       9A1     0.076517     3B1     0.090688     4B2     0.143267
       4B1     0.153046    10A1     0.181845    11A1     0.243704
       5B2     0.308249     5B1     0.310323    12A1     0.354474
      13A1     0.446107     6B2     0.463865     6B1     0.467979
       1A2     0.482407    14A1     0.483293     7B2     0.546909
       7B1     0.551896    15A1     0.577662     2A2     0.625791
      16A1     0.628063    17A1     0.701719     8B2     0.745062
       8B1     0.748655    18A1     0.982872

    Final Occupation by Irrep:
             A1    A2    B1    B2
    DOCC [     8,    0,    2,    3 ]
    SOCC [     0,    0,    1,    0 ]
    NA   [     8,    0,    3,    3 ]
    NB   [     8,    0,    2,    3 ]

  @DF-UKS Final Energy:  -489.53011926669870

   => Energetics <=

    Nuclear Repulsion Energy =             35.7594997814803293
    One-Electron Energy =                -756.8282449070745770
    Two-Electron Energy =                 261.7468527799831577
    DFT Exchange-Correlation Energy =     -30.2082269210876362
    Empirical Dispersion Energy =           0.0000000000000000
    VV10 Nonlocal Energy =                  0.0000000000000000
    Total Energy =                       -489.5301192666987049

  UHF NO Occupations:
  HONO-2 :    3 B2 1.9913221
  HONO-1 :    8 A1 1.9812206
  HONO-0 :    3 B1 1.0000000
  LUNO+0 :    9 A1 0.0187794
  LUNO+1 :    4 B2 0.0086779
  LUNO+2 :   10 A1 0.0007439
  LUNO+3 :    4 B1 0.0000001

Computation Completed

Properties will be evaluated at   0.000000,   0.000000,   0.000000 [a0]

Properties computed using the SCF density matrix

 Multipole Moments:

 ------------------------------------------------------------------------------------
     Multipole            Electronic (a.u.)      Nuclear  (a.u.)        Total (a.u.)
 ------------------------------------------------------------------------------------

 L = 1.  Multiply by 2.5417464519 to convert [e a0] to [Debye]
 Dipole X            :          0.0000000            0.0000000            0.0000000
 Dipole Y            :          0.0000000            0.0000000            0.0000000
 Dipole Z            :          0.2817360           -0.0060998            0.2756362
 Magnitude           :                                                    0.2756362

 ------------------------------------------------------------------------------------

*** tstop() called on Joses-MacBook-Pro-2.local at Thu Jul 17 11:25:14 2025
Module time:
	user time   =      30.82 seconds =       0.51 minutes
	system time =       3.99 seconds =       0.07 minutes
	total time  =          4 seconds =       0.07 minutes
Total time:
	user time   =     266.63 seconds =       4.44 minutes
	system time =      72.11 seconds =       1.20 minutes
	total time  =         33 seconds =       0.55 minutes

*** tstart() called on Joses-MacBook-Pro-2.local
*** at Thu Jul 17 11:25:14 2025

         ------------------------------------------------------------
                                   SCF GRAD
                          Rob Parrish, Justin Turney,
                       Andy Simmonett, and Alex Sokolov
         ------------------------------------------------------------

  ==> Geometry <==

    Molecular point group: c2v
    Full point group: C_inf_v

    Geometry (in Angstrom), charge = -1, multiplicity = 2:

       Center              X                  Y                   Z               Mass
    ------------   -----------------  -----------------  -----------------  -----------------
         MG           0.000000000000     0.000000000000     1.338546271830    23.985041697000
         SI           0.000000000000     0.000000000000    -1.147555936977    27.976926534650

  Nuclear repulsion =   35.759499781480329

  ==> Basis Set <==

  Basis Set: CC-PVDZ
    Blend: CC-PVDZ
    Number of shells: 16
    Number of basis functions: 36
    Number of Cartesian functions: 38
    Spherical Harmonics?: true
    Max angular momentum: 2

  ==> DFJKGrad: Density-Fitted SCF Gradients <==

    Gradient:                    1
    J tasked:                  Yes
    K tasked:                  Yes
    wK tasked:                  No
    OpenMP threads:              1
    Integrals threads:           1
    Memory [MiB]:              375
    Schwarz Cutoff:          1E-12
    Fitting Condition:       1E-10

   => Auxiliary Basis Set <=

  Basis Set: (CC-PVDZ AUX)
    Blend: CC-PVDZ-JKFIT + DEF2-UNIVERSAL-JKFIT
    Number of shells: 70
    Number of basis functions: 224
    Number of Cartesian functions: 267
    Spherical Harmonics?: true
    Max angular momentum: 4

  ==> DFT Potential <==

   => LibXC <=

    Version 6.2.2
    S. Lehtola, C. Steigemann, M. J.T. Oliveira, and M. A.L. Marques.,  SoftwareX 7, 1â€“5 (2018) (10.1016/j.softx.2017.11.002)

   => Composite Functional: B3LYP <=

    B3LYP Hyb-GGA Exchange-Correlation Functional

    P. J. Stephens, F. J. Devlin, C. F. Chabalowski, and M. J. Frisch.,  J. Phys. Chem. 98, 11623 (1994) (10.1021/j100096a001)

    Deriv               =              1
    GGA                 =           TRUE
    Meta                =          FALSE

    Exchange Hybrid     =           TRUE
    MP2 Hybrid          =          FALSE

   => Exchange Functionals <=

    0.0800   Slater exchange
    0.7200         Becke 88

   => Exact (HF) Exchange <=

    0.2000               HF

   => Correlation Functionals <=

    0.1900   Vosko, Wilk & Nusair (VWN5_RPA)
    0.8100   Lee, Yang & Parr

   => LibXC Density Thresholds  <==

    XC_HYB_GGA_XC_B3LYP:  1.00E-15

   => Molecular Quadrature <=

    Radial Scheme          =       TREUTLER
    Pruning Scheme         =           NONE
    Nuclear Scheme         =       TREUTLER

    Blocking Scheme        =         OCTREE
    BS radius alpha        =              1
    Pruning alpha          =              1
    Radial Points          =             75
    Spherical Points       =            302
    Total Points           =          42939
    Total Blocks           =            419
    Max Points             =            255
    Max Functions          =             36
    Weights Tolerance      =       1.00E-15

  -Total Gradient:
     Atom            X                  Y                   Z
    ------   -----------------  -----------------  -----------------
       1        0.000000000000     0.000000000000    -0.000057074647
       2        0.000000000000     0.000000000000     0.000074096506

*** tstop() called on Joses-MacBook-Pro-2.local at Thu Jul 17 11:25:14 2025
Module time:
	user time   =       5.13 seconds =       0.09 minutes
	system time =       2.34 seconds =       0.04 minutes
	total time  =          0 seconds =       0.00 minutes
Total time:
	user time   =     271.76 seconds =       4.53 minutes
	system time =      74.46 seconds =       1.24 minutes
	total time  =         33 seconds =       0.55 minutes

    			-----------------------------------------

    			 OPTKING 3.0: for geometry optimizations

    			     By R.A. King, Bethel University

    			        with contributions from

    			    A.V. Copan, J. Cayton, A. Heide

    			-----------------------------------------

	                            ===> Fragment 1 <==

	 Z (Atomic Numbers)          Masses                          Geom
	      12.000000            23.985042          0.00000000  0.00000000  2.52948586
	      14.000000            27.976927          0.00000000  0.00000000 -2.16856643

	 - Coordinate -           - BOHR/RAD -       - ANG/DEG -
	 R(1,2)           =         4.698052           2.486102

	        --- Internal Coordinate Step in ANG or DEG, aJ/ANG or AJ/DEG ---
	-------------------------------------------------------------------------------
	           Coordinate      Previous         Force          Change          New
	           ----------      --------        ------          ------        ------
	               R(1,2)       2.48610        0.00054        0.00057       2.48668
	-------------------------------------------------------------------------------

	                                 ==> Convergence Check <==

	Measures of convergence in internal coordinates in au.

	Criteria marked as inactive (o), active & met (*), and active & unmet ( ).

	----------------------------------------------------------------------------------------------
	   Step    Total Energy     Delta E     Max Force     RMS Force      Max Disp      RMS Disp
	----------------------------------------------------------------------------------------------
	  Convergence Criteria     1.00e-06 *    3.00e-04 *             o    1.20e-03 *             o
	----------------------------------------------------------------------------------------------
	    15    -489.53011927   -5.92e-07 *    6.56e-05 *    6.56e-05 o    1.09e-03 *    1.09e-03 o  ~
	----------------------------------------------------------------------------------------------

Next Geometry in Ang
	Fragment 1 (Ang)

	   Mg   0.0000000000   0.0000000000   1.3388337381
	   Si   0.0000000000   0.0000000000  -1.1478434033

    Final optimized geometry and variables:
    Molecular point group: c2v
    Full point group: C_inf_v

    Geometry (in Angstrom), charge = -1, multiplicity = 2:

    MG           0.000000000000     0.000000000000     1.338546271830
    SI           0.000000000000     0.000000000000    -1.147555936977

    Psi4 stopped on: Thursday, 17 July 2025 11:25AM
    Psi4 wall time for execution: 0:00:34.45

*** Psi4 exiting successfully. Buy a developer a beer!
