                               Psi4 1.9.1 release

  ==> Input File <==

--------------------------------------------------------------------------
molecule {
-1 2
F   0.00000        0.60000        0.00000
Al   0.00000       -0.60000        0.00000
}

set {
basis              cc-pvdz
reference          uks
maxiter            500
geom_maxiter       500
DAMPING_PERCENTAGE 1
guess              SAP
}

optimize('b3lyp')
--------------------------------------------------------------------------

    Molecular point group: c2v
  Charge       = -1
  Multiplicity = 2
  Basis Set: CC-PVDZ
    Blend: CC-PVDZ
  Basis Set: (CC-PVDZ AUX)
    Blend: CC-PVDZ-JKFIT
  @DF-UKS Final Energy:  -341.98414491440536
    Total Energy =                       -341.9841449144053627
 Dipole X            :          0.0000000            0.0000000            0.0000000
 Dipole Y            :          0.0000000            0.0000000            0.0000000
 Dipole Z            :          1.4906786           -0.2044455            1.2862332
 Magnitude           :                                                    1.2862332
    Molecular point group: c2v
  Basis Set: CC-PVDZ
    Blend: CC-PVDZ
  Basis Set: (CC-PVDZ AUX)
    Blend: CC-PVDZ-JKFIT
  Basis Set: CC-PVDZ
    Blend: CC-PVDZ
  Basis Set: (CC-PVDZ AUX)
    Blend: CC-PVDZ-JKFIT
  @DF-UKS Final Energy:  -342.18327817679454
    Total Energy =                       -342.1832781767945448
  Basis Set: CC-PVDZ
    Blend: CC-PVDZ
  Basis Set: (CC-PVDZ AUX)
    Blend: CC-PVDZ-JKFIT
  Basis Set: CC-PVDZ
    Blend: CC-PVDZ
  @DF-UKS Final Energy:  -342.26919811106677
    Total Energy =                       -342.2691981110667712
  @DF-UKS Final Energy:  -342.30077753479566
    Total Energy =                       -342.3007775347956567
  @DF-UKS Final Energy:  -342.31962360654927
    Total Energy =                       -342.3196236065492712
  @DF-UKS Final Energy:  -342.32757173956395
    Total Energy =                       -342.3275717395639504
  @DF-UKS Final Energy:  -342.32953576148356
    Total Energy =                       -342.3295357614835552
  @DF-UKS Final Energy:  -342.33018198181458
    Total Energy =                       -342.3301819818145759
  @DF-UKS Final Energy:  -342.33031265124708
    Total Energy =                       -342.3303126512470840
  Basis Set: (CC-PVDZ AUX)
    Blend: CC-PVDZ-JKFIT
  Basis Set: CC-PVDZ
    Blend: CC-PVDZ
  Basis Set: (CC-PVDZ AUX)
    Blend: CC-PVDZ-JKFIT
  @DF-UKS Final Energy:  -342.33034449024689
    Total Energy =                       -342.3303444902468868
  Basis Set: CC-PVDZ
    Blend: CC-PVDZ
  Basis Set: (CC-PVDZ AUX)
    Blend: CC-PVDZ-JKFIT
  Charge       = -1
  Multiplicity = 2
  Basis Set: CC-PVDZ
    Blend: CC-PVDZ
  Basis Set: (CC-PVDZ AUX)
    Blend: CC-PVDZ-JKFIT

    Orbital Energies [Eh]
    ---------------------

    Alpha Occupied:

       1A1   -55.819192     2A1   -24.410753     3A1    -3.899922
       1B1    -2.454621     1B2    -2.452158     4A1    -2.450836
       5A1    -0.884687     6A1    -0.204402     2B2    -0.153474
       2B1    -0.150651     7A1    -0.036539     3B2     0.100598

    Alpha Virtual:

       3B1     0.149309     8A1     0.214716     9A1     0.373636
       4B2     0.419855     4B1     0.426539     1A2     0.482714
      10A1     0.484121    11A1     0.487567     5B2     0.540897
       5B1     0.546117    12A1     0.699205     6B1     1.497625
       6B2     1.498467    13A1     1.522076    14A1     2.414207
       2A2     3.837174    15A1     3.837378     7B1     3.855342
       7B2     3.856447    16A1     3.910064

    Beta Occupied:

       1A1   -55.818083     2A1   -24.408719     3A1    -3.898584
       1B1    -2.454027     4A1    -2.450311     1B2    -2.447569
       5A1    -0.880439     6A1    -0.200737     2B1    -0.149171
       2B2    -0.141767     7A1    -0.017540

    Beta Virtual:

       3B1     0.154418     3B2     0.175807     8A1     0.220315
       9A1     0.382522     4B1     0.428266     4B2     0.447306
      10A1     0.486920     1A2     0.511492    11A1     0.513559
       5B1     0.546646     5B2     0.566301    12A1     0.707533
       6B1     1.498582     6B2     1.505961    13A1     1.523578
      14A1     2.417416     2A2     3.842230    15A1     3.842289
       7B1     3.856277     7B2     3.861779    16A1     3.912890

    Final Occupation by Irrep:
             A1    A2    B1    B2
    DOCC [     7,    0,    2,    2 ]
    SOCC [     0,    0,    0,    1 ]
    NA   [     7,    0,    2,    3 ]
    NB   [     7,    0,    2,    2 ]

  @DF-UKS Final Energy:  -342.33034817316644

   => Energetics <=

    Nuclear Repulsion Energy =             35.0991457442044421
    One-Electron Energy =                -552.2633478126840600
    Two-Electron Energy =                 198.4960949197298135
    DFT Exchange-Correlation Energy =     -23.6622410244165486
    Empirical Dispersion Energy =           0.0000000000000000
    VV10 Nonlocal Energy =                  0.0000000000000000
    Total Energy =                       -342.3303481731664419

  UHF NO Occupations:
  HONO-2 :    2 B2 1.9999696
  HONO-1 :    7 A1 1.9980286
  HONO-0 :    3 B2 1.0000000
  LUNO+0 :    8 A1 0.0019714
  LUNO+1 :    4 B2 0.0000304
  LUNO+2 :    3 B1 0.0000021
  LUNO+3 :    9 A1 0.0000017

Computation Completed

Properties will be evaluated at   0.000000,   0.000000,   0.000000 [a0]

Properties computed using the SCF density matrix

 Multipole Moments:

 ------------------------------------------------------------------------------------
     Multipole            Electronic (a.u.)      Nuclear  (a.u.)        Total (a.u.)
 ------------------------------------------------------------------------------------

 L = 1.  Multiply by 2.5417464519 to convert [e a0] to [Debye]
 Dipole X            :          0.0000000            0.0000000            0.0000000
 Dipole Y            :          0.0000000            0.0000000            0.0000000
 Dipole Z            :          1.1410178           -0.3005293            0.8404885
 Magnitude           :                                                    0.8404885

 ------------------------------------------------------------------------------------

*** tstop() called on Joses-MacBook-Pro-2.local at Thu Jul 17 10:52:30 2025
Module time:
	user time   =       2.96 seconds =       0.05 minutes
	system time =       4.20 seconds =       0.07 minutes
	total time  =          1 seconds =       0.02 minutes
Total time:
	user time   =      54.80 seconds =       0.91 minutes
	system time =      64.00 seconds =       1.07 minutes
	total time  =         12 seconds =       0.20 minutes

*** tstart() called on Joses-MacBook-Pro-2.local
*** at Thu Jul 17 10:52:30 2025

         ------------------------------------------------------------
                                   SCF GRAD
                          Rob Parrish, Justin Turney,
                       Andy Simmonett, and Alex Sokolov
         ------------------------------------------------------------

  ==> Geometry <==

    Molecular point group: c2v
    Full point group: C_inf_v

    Geometry (in Angstrom), charge = -1, multiplicity = 2:

       Center              X                  Y                   Z               Mass
    ------------   -----------------  -----------------  -----------------  -----------------
         F            0.000000000000     0.000000000000     1.035115333395    18.998403162730
         AL           0.000000000000     0.000000000000    -0.728851633197    26.981538530000

  Nuclear repulsion =   35.099145744204442

  ==> Basis Set <==

  Basis Set: CC-PVDZ
    Blend: CC-PVDZ
    Number of shells: 14
    Number of basis functions: 32
    Number of Cartesian functions: 34
    Spherical Harmonics?: true
    Max angular momentum: 2

  ==> DFJKGrad: Density-Fitted SCF Gradients <==

    Gradient:                    1
    J tasked:                  Yes
    K tasked:                  Yes
    wK tasked:                  No
    OpenMP threads:              1
    Integrals threads:           1
    Memory [MiB]:              375
    Schwarz Cutoff:          1E-12
    Fitting Condition:       1E-10

   => Auxiliary Basis Set <=

  Basis Set: (CC-PVDZ AUX)
    Blend: CC-PVDZ-JKFIT
    Number of shells: 60
    Number of basis functions: 182
    Number of Cartesian functions: 211
    Spherical Harmonics?: true
    Max angular momentum: 3

  ==> DFT Potential <==

   => LibXC <=

    Version 6.2.2
    S. Lehtola, C. Steigemann, M. J.T. Oliveira, and M. A.L. Marques.,  SoftwareX 7, 1â€“5 (2018) (10.1016/j.softx.2017.11.002)

   => Composite Functional: B3LYP <=

    B3LYP Hyb-GGA Exchange-Correlation Functional

    P. J. Stephens, F. J. Devlin, C. F. Chabalowski, and M. J. Frisch.,  J. Phys. Chem. 98, 11623 (1994) (10.1021/j100096a001)

    Deriv               =              1
    GGA                 =           TRUE
    Meta                =          FALSE

    Exchange Hybrid     =           TRUE
    MP2 Hybrid          =          FALSE

   => Exchange Functionals <=

    0.0800   Slater exchange
    0.7200         Becke 88

   => Exact (HF) Exchange <=

    0.2000               HF

   => Correlation Functionals <=

    0.1900   Vosko, Wilk & Nusair (VWN5_RPA)
    0.8100   Lee, Yang & Parr

   => LibXC Density Thresholds  <==

    XC_HYB_GGA_XC_B3LYP:  1.00E-15

   => Molecular Quadrature <=

    Radial Scheme          =       TREUTLER
    Pruning Scheme         =           NONE
    Nuclear Scheme         =       TREUTLER

    Blocking Scheme        =         OCTREE
    BS radius alpha        =              1
    Pruning alpha          =              1
    Radial Points          =             75
    Spherical Points       =            302
    Total Points           =          43422
    Total Blocks           =            404
    Max Points             =            256
    Max Functions          =             32
    Weights Tolerance      =       1.00E-15

  -Total Gradient:
     Atom            X                  Y                   Z
    ------   -----------------  -----------------  -----------------
       1        0.000000000000    -0.000000000000    -0.000298214989
       2       -0.000000000000     0.000000000000     0.000209645259

*** tstop() called on Joses-MacBook-Pro-2.local at Thu Jul 17 10:52:30 2025
Module time:
	user time   =       0.65 seconds =       0.01 minutes
	system time =       1.73 seconds =       0.03 minutes
	total time  =          0 seconds =       0.00 minutes
Total time:
	user time   =      55.45 seconds =       0.92 minutes
	system time =      65.73 seconds =       1.10 minutes
	total time  =         12 seconds =       0.20 minutes

    			-----------------------------------------

    			 OPTKING 3.0: for geometry optimizations

    			     By R.A. King, Bethel University

    			        with contributions from

    			    A.V. Copan, J. Cayton, A. Heide

    			-----------------------------------------

	                            ===> Fragment 1 <==

	 Z (Atomic Numbers)          Masses                          Geom
	       9.000000            18.998403          0.00000000  0.00000000  1.95608449
	      13.000000            26.981539          0.00000000  0.00000000 -1.37732997

	 - Coordinate -           - BOHR/RAD -       - ANG/DEG -
	 R(1,2)           =         3.333414           1.763967

	        --- Internal Coordinate Step in ANG or DEG, aJ/ANG or AJ/DEG ---
	-------------------------------------------------------------------------------
	           Coordinate      Previous         Force          Change          New
	           ----------      --------        ------          ------        ------
	               R(1,2)       1.76397        0.00209        0.00063       1.76459
	-------------------------------------------------------------------------------

	                                 ==> Convergence Check <==

	Measures of convergence in internal coordinates in au.

	Criteria marked as inactive (o), active & met (*), and active & unmet ( ).

	----------------------------------------------------------------------------------------------
	   Step    Total Energy     Delta E     Max Force     RMS Force      Max Disp      RMS Disp
	----------------------------------------------------------------------------------------------
	  Convergence Criteria     1.00e-06 *    3.00e-04 *             o    1.20e-03 *             o
	----------------------------------------------------------------------------------------------
	    11    -342.33034817   -3.68e-06      2.54e-04 *    2.54e-04 o    1.18e-03 *    1.18e-03 o  ~
	----------------------------------------------------------------------------------------------

Next Geometry in Ang
	Fragment 1 (Ang)

	    F   0.0000000000   0.0000000000   1.0354284509
	   Al   0.0000000000   0.0000000000  -0.7291647507

    Final optimized geometry and variables:
    Molecular point group: c2v
    Full point group: C_inf_v

    Geometry (in Angstrom), charge = -1, multiplicity = 2:

    F            0.000000000000     0.000000000000     1.035115333395
    AL           0.000000000000     0.000000000000    -0.728851633197

    Psi4 stopped on: Thursday, 17 July 2025 10:52AM
    Psi4 wall time for execution: 0:00:13.12

*** Psi4 exiting successfully. Buy a developer a beer!
