                               Psi4 1.9.1 release

  ==> Input File <==

--------------------------------------------------------------------------
molecule {
-1 2
B   0.00000        0.60000        0.00000
Al   0.00000       -0.60000        0.00000
}

set {
basis              cc-pvdz
reference          uks
maxiter            500
geom_maxiter       500
DAMPING_PERCENTAGE 1
guess              SAP
}

optimize('b3lyp')
--------------------------------------------------------------------------

    Molecular point group: c2v
  Charge       = -1
  Multiplicity = 2
  Basis Set: CC-PVDZ
    Blend: CC-PVDZ
  Basis Set: (CC-PVDZ AUX)
    Blend: CC-PVDZ-JKFIT
  @DF-UKS Final Energy:  -266.65661155125713
    Total Energy =                       -266.6566115512571287
 Dipole X            :          0.0000000            0.0000000            0.0000000
 Dipole Y            :          0.0000000            0.0000000            0.0000000
 Dipole Z            :         -0.1121337           -0.4902500           -0.6023837
 Magnitude           :                                                    0.6023837
    Molecular point group: c2v
  Basis Set: CC-PVDZ
    Blend: CC-PVDZ
  Basis Set: (CC-PVDZ AUX)
    Blend: CC-PVDZ-JKFIT
  Basis Set: CC-PVDZ
    Blend: CC-PVDZ
  Basis Set: (CC-PVDZ AUX)
    Blend: CC-PVDZ-JKFIT
  @DF-UKS Final Energy:  -266.81307829478379
    Total Energy =                       -266.8130782947837929
  Basis Set: CC-PVDZ
    Blend: CC-PVDZ
  Basis Set: (CC-PVDZ AUX)
    Blend: CC-PVDZ-JKFIT
  Basis Set: CC-PVDZ
    Blend: CC-PVDZ
  @DF-UKS Final Energy:  -266.94172898057877
    Total Energy =                       -266.9417289805787732
  @DF-UKS Final Energy:  -267.06874692319002
    Total Energy =                       -267.0687469231900195
  @DF-UKS Final Energy:  -267.12428163238116
    Total Energy =                       -267.1242816323811553
  @DF-UKS Final Energy:  -267.13146136085822
    Total Energy =                       -267.1314613608582249
  @DF-UKS Final Energy:  -267.13388861639049
    Total Energy =                       -267.1338886163904931
  @DF-UKS Final Energy:  -267.13412448925595
    Total Energy =                       -267.1341244892559530
  @DF-UKS Final Energy:  -267.13415031341208
    Total Energy =                       -267.1341503134120785
  Basis Set: (CC-PVDZ AUX)
    Blend: CC-PVDZ-JKFIT
  Basis Set: CC-PVDZ
    Blend: CC-PVDZ
  Basis Set: (CC-PVDZ AUX)
    Blend: CC-PVDZ-JKFIT
  @DF-UKS Final Energy:  -267.13415329822897
    Total Energy =                       -267.1341532982289664
  Basis Set: CC-PVDZ
    Blend: CC-PVDZ
  Basis Set: (CC-PVDZ AUX)
    Blend: CC-PVDZ-JKFIT
  Charge       = -1
  Multiplicity = 2
  Basis Set: CC-PVDZ
    Blend: CC-PVDZ
  Basis Set: (CC-PVDZ AUX)
    Blend: CC-PVDZ-JKFIT

    Orbital Energies [Eh]
    ---------------------

    Alpha Occupied:

       1A1   -55.838513     2A1    -6.588152     3A1    -3.920674
       1B2    -2.474969     4A1    -2.473899     1B1    -2.470137
       5A1    -0.223813     6A1    -0.057540     2B2     0.019534
       2B1     0.041326

    Alpha Virtual:

       7A1     0.082048     3B2     0.160201     3B1     0.175894
       8A1     0.229065     9A1     0.358020     4B2     0.399927
       4B1     0.413511    10A1     0.435087    11A1     0.471944
       1A2     0.474045    12A1     0.479026     5B2     0.507981
       5B1     0.520844     6B2     0.534622     6B1     0.552784
      13A1     0.758973    14A1     0.857120     2A2     0.944280
      15A1     0.944558     7B2     1.090908     7B1     1.108877
      16A1     1.295147

    Beta Occupied:

       1A1   -55.838172     2A1    -6.581865     3A1    -3.920245
       4A1    -2.474303     1B2    -2.472377     1B1    -2.470517
       5A1    -0.195947     6A1    -0.046599     2B1     0.050433

    Beta Virtual:

       7A1     0.092156     2B2     0.103799     3B1     0.180635
       3B2     0.194869     8A1     0.234161     9A1     0.358864
       4B1     0.411675     4B2     0.415671    10A1     0.443838
      11A1     0.481269     1A2     0.484656    12A1     0.486742
       5B1     0.522898     5B2     0.527531     6B1     0.558779
       6B2     0.568884    13A1     0.774585    14A1     0.868050
       2A2     0.978294    15A1     0.980763     7B1     1.118402
       7B2     1.124561    16A1     1.309750

    Final Occupation by Irrep:
             A1    A2    B1    B2
    DOCC [     6,    0,    2,    1 ]
    SOCC [     0,    0,    0,    1 ]
    NA   [     6,    0,    2,    2 ]
    NB   [     6,    0,    2,    1 ]

  @DF-UKS Final Energy:  -267.13415368078410

   => Energetics <=

    Nuclear Repulsion Energy =             17.1159408834555471
    One-Electron Energy =                -407.4594514107233749
    Two-Electron Energy =                 141.5371463126354854
    DFT Exchange-Correlation Energy =     -18.3277894661517777
    Empirical Dispersion Energy =           0.0000000000000000
    VV10 Nonlocal Energy =                  0.0000000000000000
    Total Energy =                       -267.1341536807840953

  UHF NO Occupations:
  HONO-2 :    2 B1 1.9930521
  HONO-1 :    6 A1 1.9902214
  HONO-0 :    2 B2 1.0000000
  LUNO+0 :    7 A1 0.0097786
  LUNO+1 :    3 B1 0.0069479
  LUNO+2 :    8 A1 0.0005907
  LUNO+3 :    9 A1 0.0000001

Computation Completed

Properties will be evaluated at   0.000000,   0.000000,   0.000000 [a0]

Properties computed using the SCF density matrix

 Multipole Moments:

 ------------------------------------------------------------------------------------
     Multipole            Electronic (a.u.)      Nuclear  (a.u.)        Total (a.u.)
 ------------------------------------------------------------------------------------

 L = 1.  Multiply by 2.5417464519 to convert [e a0] to [Debye]
 Dipole X            :          0.0000000            0.0000000            0.0000000
 Dipole Y            :          0.0000000            0.0000000            0.0000000
 Dipole Z            :          0.1200028           -0.8210131           -0.7010103
 Magnitude           :                                                    0.7010103

 ------------------------------------------------------------------------------------

*** tstop() called on Joses-MacBook-Pro-2.local at Thu Jul 17 09:53:28 2025
Module time:
	user time   =       3.77 seconds =       0.06 minutes
	system time =       3.89 seconds =       0.06 minutes
	total time  =          0 seconds =       0.00 minutes
Total time:
	user time   =      61.17 seconds =       1.02 minutes
	system time =      76.27 seconds =       1.27 minutes
	total time  =         13 seconds =       0.22 minutes

*** tstart() called on Joses-MacBook-Pro-2.local
*** at Thu Jul 17 09:53:28 2025

         ------------------------------------------------------------
                                   SCF GRAD
                          Rob Parrish, Justin Turney,
                       Andy Simmonett, and Alex Sokolov
         ------------------------------------------------------------

  ==> Geometry <==

    Molecular point group: c2v
    Full point group: C_inf_v

    Geometry (in Angstrom), charge = -1, multiplicity = 2:

       Center              X                  Y                   Z               Mass
    ------------   -----------------  -----------------  -----------------  -----------------
         B            0.000000000000     0.000000000000     1.427254697818    11.009305360000
         AL           0.000000000000     0.000000000000    -0.582364225720    26.981538530000

  Nuclear repulsion =   17.115940883455547

  ==> Basis Set <==

  Basis Set: CC-PVDZ
    Blend: CC-PVDZ
    Number of shells: 14
    Number of basis functions: 32
    Number of Cartesian functions: 34
    Spherical Harmonics?: true
    Max angular momentum: 2

  ==> DFJKGrad: Density-Fitted SCF Gradients <==

    Gradient:                    1
    J tasked:                  Yes
    K tasked:                  Yes
    wK tasked:                  No
    OpenMP threads:              1
    Integrals threads:           1
    Memory [MiB]:              375
    Schwarz Cutoff:          1E-12
    Fitting Condition:       1E-10

   => Auxiliary Basis Set <=

  Basis Set: (CC-PVDZ AUX)
    Blend: CC-PVDZ-JKFIT
    Number of shells: 60
    Number of basis functions: 182
    Number of Cartesian functions: 211
    Spherical Harmonics?: true
    Max angular momentum: 3

  ==> DFT Potential <==

   => LibXC <=

    Version 6.2.2
    S. Lehtola, C. Steigemann, M. J.T. Oliveira, and M. A.L. Marques.,  SoftwareX 7, 1â€“5 (2018) (10.1016/j.softx.2017.11.002)

   => Composite Functional: B3LYP <=

    B3LYP Hyb-GGA Exchange-Correlation Functional

    P. J. Stephens, F. J. Devlin, C. F. Chabalowski, and M. J. Frisch.,  J. Phys. Chem. 98, 11623 (1994) (10.1021/j100096a001)

    Deriv               =              1
    GGA                 =           TRUE
    Meta                =          FALSE

    Exchange Hybrid     =           TRUE
    MP2 Hybrid          =          FALSE

   => Exchange Functionals <=

    0.0800   Slater exchange
    0.7200         Becke 88

   => Exact (HF) Exchange <=

    0.2000               HF

   => Correlation Functionals <=

    0.1900   Vosko, Wilk & Nusair (VWN5_RPA)
    0.8100   Lee, Yang & Parr

   => LibXC Density Thresholds  <==

    XC_HYB_GGA_XC_B3LYP:  1.00E-15

   => Molecular Quadrature <=

    Radial Scheme          =       TREUTLER
    Pruning Scheme         =           NONE
    Nuclear Scheme         =       TREUTLER

    Blocking Scheme        =         OCTREE
    BS radius alpha        =              1
    Pruning alpha          =              1
    Radial Points          =             75
    Spherical Points       =            302
    Total Points           =          42968
    Total Blocks           =            399
    Max Points             =            256
    Max Functions          =             32
    Weights Tolerance      =       1.00E-15

  -Total Gradient:
     Atom            X                  Y                   Z
    ------   -----------------  -----------------  -----------------
       1       -0.000000000000    -0.000000000000    -0.000068163769
       2        0.000000000000     0.000000000000     0.000058852870

*** tstop() called on Joses-MacBook-Pro-2.local at Thu Jul 17 09:53:29 2025
Module time:
	user time   =       0.62 seconds =       0.01 minutes
	system time =       1.79 seconds =       0.03 minutes
	total time  =          1 seconds =       0.02 minutes
Total time:
	user time   =      61.80 seconds =       1.03 minutes
	system time =      78.06 seconds =       1.30 minutes
	total time  =         14 seconds =       0.23 minutes

    			-----------------------------------------

    			 OPTKING 3.0: for geometry optimizations

    			     By R.A. King, Bethel University

    			        with contributions from

    			    A.V. Copan, J. Cayton, A. Heide

    			-----------------------------------------

	                            ===> Fragment 1 <==

	 Z (Atomic Numbers)          Masses                          Geom
	       5.000000            11.009305          0.00000000  0.00000000  2.69712049
	      13.000000            26.981539          0.00000000  0.00000000 -1.10050889

	 - Coordinate -           - BOHR/RAD -       - ANG/DEG -
	 R(1,2)           =         3.797629           2.009619

	        --- Internal Coordinate Step in ANG or DEG, aJ/ANG or AJ/DEG ---
	-------------------------------------------------------------------------------
	           Coordinate      Previous         Force          Change          New
	           ----------      --------        ------          ------        ------
	               R(1,2)       2.00962        0.00052        0.00027       2.00989
	-------------------------------------------------------------------------------

	                                 ==> Convergence Check <==

	Measures of convergence in internal coordinates in au.

	Criteria marked as inactive (o), active & met (*), and active & unmet ( ).

	----------------------------------------------------------------------------------------------
	   Step    Total Energy     Delta E     Max Force     RMS Force      Max Disp      RMS Disp
	----------------------------------------------------------------------------------------------
	  Convergence Criteria     1.00e-06 *    3.00e-04 *             o    1.20e-03 *             o
	----------------------------------------------------------------------------------------------
	    11    -267.13415368   -3.83e-07 *    6.35e-05 *    6.35e-05 o    5.16e-04 *    5.16e-04 o  ~
	----------------------------------------------------------------------------------------------

Next Geometry in Ang
	Fragment 1 (Ang)

	    B   0.0000000000   0.0000000000   1.4273912509
	   Al   0.0000000000   0.0000000000  -0.5825007788

    Final optimized geometry and variables:
    Molecular point group: c2v
    Full point group: C_inf_v

    Geometry (in Angstrom), charge = -1, multiplicity = 2:

    B            0.000000000000     0.000000000000     1.427254697818
    AL           0.000000000000     0.000000000000    -0.582364225720

    Psi4 stopped on: Thursday, 17 July 2025 09:53AM
    Psi4 wall time for execution: 0:00:13.98

*** Psi4 exiting successfully. Buy a developer a beer!
