                               Psi4 1.9.1 release

  ==> Input File <==

--------------------------------------------------------------------------
molecule {
-1 2
Mg   0.00000        0.60000        0.00000
Mg   0.00000       -0.60000        0.00000
}

set {
basis              cc-pvdz
reference          uks
maxiter            500
geom_maxiter       500
DAMPING_PERCENTAGE 1
guess              SAP
}

optimize('b3lyp')
--------------------------------------------------------------------------

    Molecular point group: d2h
  Charge       = -1
  Multiplicity = 2
  Basis Set: CC-PVDZ
    Blend: CC-PVDZ
  Basis Set: (CC-PVDZ AUX)
    Blend: DEF2-UNIVERSAL-JKFIT
  @DF-UKS Final Energy:  -399.40521788249902
    Total Energy =                       -399.4052178824990165
 Dipole X            :          0.0000000            0.0000000            0.0000000
 Dipole Y            :          0.0000000            0.0000000            0.0000000
 Dipole Z            :          0.0000000            0.0000000            0.0000000
 Magnitude           :                                                    0.0000000
    Molecular point group: d2h
  Basis Set: CC-PVDZ
    Blend: CC-PVDZ
  Basis Set: (CC-PVDZ AUX)
    Blend: DEF2-UNIVERSAL-JKFIT
  Basis Set: CC-PVDZ
    Blend: CC-PVDZ
  Basis Set: (CC-PVDZ AUX)
    Blend: DEF2-UNIVERSAL-JKFIT
  @DF-UKS Final Energy:  -399.41257756232864
    Total Energy =                       -399.4125775623286358
  Basis Set: CC-PVDZ
    Blend: CC-PVDZ
  Basis Set: (CC-PVDZ AUX)
    Blend: DEF2-UNIVERSAL-JKFIT
  Basis Set: CC-PVDZ
    Blend: CC-PVDZ
  @DF-UKS Final Energy:  -399.42681910931088
    Total Energy =                       -399.4268191093108840
  @DF-UKS Final Energy:  -399.47886208903071
    Total Energy =                       -399.4788620890307698
  @DF-UKS Final Energy:  -399.72483560147367
    Total Energy =                       -399.7248356014736714
  @DF-UKS Final Energy:  -399.87446816453598
    Total Energy =                       -399.8744681645359833
  @DF-UKS Final Energy:  -399.98973717709339
    Total Energy =                       -399.9897371770933887
  @DF-UKS Final Energy:  -400.06325215981224
    Total Energy =                       -400.0632521598122366
  @DF-UKS Final Energy:  -400.10033646281465
    Total Energy =                       -400.1003364628146528
  @DF-UKS Final Energy:  -400.15495693356183
    Total Energy =                       -400.1549569335618344
  @DF-UKS Final Energy:  -400.17754822212231
    Total Energy =                       -400.1775482221223115
  @DF-UKS Final Energy:  -400.17791092912739
    Total Energy =                       -400.1779109291273357
  @DF-UKS Final Energy:  -400.18076637868387
    Total Energy =                       -400.1807663786838702
  @DF-UKS Final Energy:  -400.18135021781745
    Total Energy =                       -400.1813502178174531
  @DF-UKS Final Energy:  -400.18150127192257
    Total Energy =                       -400.1815012719225706
  @DF-UKS Final Energy:  -400.18151413987545
    Total Energy =                       -400.1815141398754463
  Basis Set: (CC-PVDZ AUX)
    Blend: DEF2-UNIVERSAL-JKFIT
  Basis Set: CC-PVDZ
    Blend: CC-PVDZ
  Basis Set: (CC-PVDZ AUX)
    Blend: DEF2-UNIVERSAL-JKFIT
  @DF-UKS Final Energy:  -400.18151529592456
    Total Energy =                       -400.1815152959246120
  Basis Set: CC-PVDZ
    Blend: CC-PVDZ
  Basis Set: (CC-PVDZ AUX)
    Blend: DEF2-UNIVERSAL-JKFIT
  Charge       = -1
  Multiplicity = 2
  Basis Set: CC-PVDZ
    Blend: CC-PVDZ
  Basis Set: (CC-PVDZ AUX)
    Blend: DEF2-UNIVERSAL-JKFIT

    Orbital Energies [Eh]
    ---------------------

    Alpha Occupied:

       1B2u  -46.655490     1Ag   -46.655489     2B2u   -2.936507
       2Ag    -2.936425     1B1u   -1.680588     1B3g   -1.680572
       3Ag    -1.679975     3B2u   -1.679762     1B3u   -1.679571
       1B1g   -1.679553     4Ag    -0.079116     4B2u   -0.018905
       2B3u    0.051582

    Alpha Virtual:

       2B1u    0.088260     5Ag     0.091158     2B1g    0.119311
       2B3g    0.126938     5B2u    0.162696     6Ag     0.230980
       7Ag     0.266047     6B2u    0.286583     3B3u    0.293174
       3B1u    0.298633     3B1g    0.315302     3B3g    0.318333
       7B2u    0.363249     4B3u    0.420855     4B1u    0.425253
       1B2g    0.459783     8Ag     0.460783     1Au     0.490785
       8B2u    0.491701     9Ag     0.503052     4B1g    0.571864
       4B3g    0.574411     9B2u    0.710296

    Beta Occupied:

       1B2u  -46.655152     1Ag   -46.655151     2B2u   -2.936050
       2Ag    -2.935967     1B1u   -1.680418     1B3g   -1.680401
       3Ag    -1.679820     3B2u   -1.679607     1B3u   -1.678050
       1B1g   -1.678033     4Ag    -0.068537     4B2u   -0.013179

    Beta Virtual:

       2B1u    0.090894     5Ag     0.093234     2B3u    0.100530
       2B3g    0.128002     2B1g    0.136661     5B2u    0.165012
       6Ag     0.238292     7Ag     0.266850     6B2u    0.289712
       3B1u    0.298611     3B3u    0.306421     3B3g    0.318045
       3B1g    0.326323     7B2u    0.365324     4B1u    0.423656
       4B3u    0.432835     8Ag     0.470676     1B2g    0.471223
       1Au     0.501150     8B2u    0.501307     9Ag     0.506260
       4B3g    0.573288     4B1g    0.582991     9B2u    0.711924

    Final Occupation by Irrep:
             Ag   B1g   B2g   B3g    Au   B1u   B2u   B3u
    DOCC [     4,    1,    0,    1,    0,    1,    4,    1 ]
    SOCC [     0,    0,    0,    0,    0,    0,    0,    1 ]
    NA   [     4,    1,    0,    1,    0,    1,    4,    2 ]
    NB   [     4,    1,    0,    1,    0,    1,    4,    1 ]

  @DF-UKS Final Energy:  -400.18151538743757

   => Energetics <=

    Nuclear Repulsion Energy =             23.3474485910712737
    One-Electron Energy =                -609.3717405531543818
    Two-Electron Energy =                 212.4948200097006179
    DFT Exchange-Correlation Energy =     -26.6520434350551021
    Empirical Dispersion Energy =           0.0000000000000000
    VV10 Nonlocal Energy =                  0.0000000000000000
    Total Energy =                       -400.1815153874375710

  UHF NO Occupations:
  HONO-2 :    4B2u 1.9992942
  HONO-1 :    4 Ag 1.9991667
  HONO-0 :    2B3u 1.0000000
  LUNO+0 :    5 Ag 0.0008333
  LUNO+1 :    5B2u 0.0007058
  LUNO+2 :    2B1g 0.0000000
  LUNO+3 :    6 Ag 0.0000000

Computation Completed

Properties will be evaluated at   0.000000,   0.000000,   0.000000 [a0]

Properties computed using the SCF density matrix

 Multipole Moments:

 ------------------------------------------------------------------------------------
     Multipole            Electronic (a.u.)      Nuclear  (a.u.)        Total (a.u.)
 ------------------------------------------------------------------------------------

 L = 1.  Multiply by 2.5417464519 to convert [e a0] to [Debye]
 Dipole X            :          0.0000000            0.0000000            0.0000000
 Dipole Y            :          0.0000000            0.0000000            0.0000000
 Dipole Z            :          0.0000000            0.0000000            0.0000000
 Magnitude           :                                                    0.0000000

 ------------------------------------------------------------------------------------

*** tstop() called on Joses-MacBook-Pro-2.local at Thu Jul 17 11:22:17 2025
Module time:
	user time   =      12.83 seconds =       0.21 minutes
	system time =       3.87 seconds =       0.06 minutes
	total time  =          1 seconds =       0.02 minutes
Total time:
	user time   =     265.57 seconds =       4.43 minutes
	system time =     126.31 seconds =       2.11 minutes
	total time  =         39 seconds =       0.65 minutes

*** tstart() called on Joses-MacBook-Pro-2.local
*** at Thu Jul 17 11:22:17 2025

         ------------------------------------------------------------
                                   SCF GRAD
                          Rob Parrish, Justin Turney,
                       Andy Simmonett, and Alex Sokolov
         ------------------------------------------------------------

  ==> Geometry <==

    Molecular point group: d2h
    Full point group: D_inf_h

    Geometry (in Angstrom), charge = -1, multiplicity = 2:

       Center              X                  Y                   Z               Mass
    ------------   -----------------  -----------------  -----------------  -----------------
         MG          -0.000000000000     1.631902476179     0.000000000000    23.985041697000
         MG           0.000000000000    -1.631902476179     0.000000000000    23.985041697000

  Nuclear repulsion =   23.347448591071274

  ==> Basis Set <==

  Basis Set: CC-PVDZ
    Blend: CC-PVDZ
    Number of shells: 16
    Number of basis functions: 36
    Number of Cartesian functions: 38
    Spherical Harmonics?: true
    Max angular momentum: 2

  ==> DFJKGrad: Density-Fitted SCF Gradients <==

    Gradient:                    1
    J tasked:                  Yes
    K tasked:                  Yes
    wK tasked:                  No
    OpenMP threads:              1
    Integrals threads:           1
    Memory [MiB]:              375
    Schwarz Cutoff:          1E-12
    Fitting Condition:       1E-10

   => Auxiliary Basis Set <=

  Basis Set: (CC-PVDZ AUX)
    Blend: DEF2-UNIVERSAL-JKFIT
    Number of shells: 68
    Number of basis functions: 224
    Number of Cartesian functions: 274
    Spherical Harmonics?: true
    Max angular momentum: 4

  ==> DFT Potential <==

   => LibXC <=

    Version 6.2.2
    S. Lehtola, C. Steigemann, M. J.T. Oliveira, and M. A.L. Marques.,  SoftwareX 7, 1â€“5 (2018) (10.1016/j.softx.2017.11.002)

   => Composite Functional: B3LYP <=

    B3LYP Hyb-GGA Exchange-Correlation Functional

    P. J. Stephens, F. J. Devlin, C. F. Chabalowski, and M. J. Frisch.,  J. Phys. Chem. 98, 11623 (1994) (10.1021/j100096a001)

    Deriv               =              1
    GGA                 =           TRUE
    Meta                =          FALSE

    Exchange Hybrid     =           TRUE
    MP2 Hybrid          =          FALSE

   => Exchange Functionals <=

    0.0800   Slater exchange
    0.7200         Becke 88

   => Exact (HF) Exchange <=

    0.2000               HF

   => Correlation Functionals <=

    0.1900   Vosko, Wilk & Nusair (VWN5_RPA)
    0.8100   Lee, Yang & Parr

   => LibXC Density Thresholds  <==

    XC_HYB_GGA_XC_B3LYP:  1.00E-15

   => Molecular Quadrature <=

    Radial Scheme          =       TREUTLER
    Pruning Scheme         =           NONE
    Nuclear Scheme         =       TREUTLER

    Blocking Scheme        =         OCTREE
    BS radius alpha        =              1
    Pruning alpha          =              1
    Radial Points          =             75
    Spherical Points       =            302
    Total Points           =          42436
    Total Blocks           =            414
    Max Points             =            252
    Max Functions          =             36
    Weights Tolerance      =       1.00E-15

  -Total Gradient:
     Atom            X                  Y                   Z
    ------   -----------------  -----------------  -----------------
       1        0.000000000000    -0.000013597259     0.000000000000
       2       -0.000000000000     0.000013597259     0.000000000000

*** tstop() called on Joses-MacBook-Pro-2.local at Thu Jul 17 11:22:18 2025
Module time:
	user time   =       3.81 seconds =       0.06 minutes
	system time =       2.58 seconds =       0.04 minutes
	total time  =          1 seconds =       0.02 minutes
Total time:
	user time   =     269.38 seconds =       4.49 minutes
	system time =     128.90 seconds =       2.15 minutes
	total time  =         40 seconds =       0.67 minutes

    			-----------------------------------------

    			 OPTKING 3.0: for geometry optimizations

    			     By R.A. King, Bethel University

    			        with contributions from

    			    A.V. Copan, J. Cayton, A. Heide

    			-----------------------------------------

	                            ===> Fragment 1 <==

	 Z (Atomic Numbers)          Masses                          Geom
	      12.000000            23.985042         -0.00000000  3.08384874  0.00000000
	      12.000000            23.985042          0.00000000 -3.08384874  0.00000000

	 - Coordinate -           - BOHR/RAD -       - ANG/DEG -
	 R(1,2)           =         6.167697           3.263805

	        --- Internal Coordinate Step in ANG or DEG, aJ/ANG or AJ/DEG ---
	-------------------------------------------------------------------------------
	           Coordinate      Previous         Force          Change          New
	           ----------      --------        ------          ------        ------
	               R(1,2)       3.26380        0.00011        0.00084       3.26464
	-------------------------------------------------------------------------------

	                                 ==> Convergence Check <==

	Measures of convergence in internal coordinates in au.

	Criteria marked as inactive (o), active & met (*), and active & unmet ( ).

	----------------------------------------------------------------------------------------------
	   Step    Total Energy     Delta E     Max Force     RMS Force      Max Disp      RMS Disp
	----------------------------------------------------------------------------------------------
	  Convergence Criteria     1.00e-06 *    3.00e-04 *             o    1.20e-03 *             o
	----------------------------------------------------------------------------------------------
	    18    -400.18151539   -9.15e-08 *    1.36e-05 *    1.36e-05 o    1.58e-03      1.58e-03 o  ~
	----------------------------------------------------------------------------------------------

Next Geometry in Ang
	Fragment 1 (Ang)

	   Mg  -0.0000000000   1.6323214621   0.0000000000
	   Mg   0.0000000000  -1.6323214621   0.0000000000

    Final optimized geometry and variables:
    Molecular point group: d2h
    Full point group: D_inf_h

    Geometry (in Angstrom), charge = -1, multiplicity = 2:

    MG          -0.000000000000     1.631902476179     0.000000000000
    MG           0.000000000000    -1.631902476179     0.000000000000

    Psi4 stopped on: Thursday, 17 July 2025 11:22AM
    Psi4 wall time for execution: 0:00:40.43

*** Psi4 exiting successfully. Buy a developer a beer!
