                               Psi4 1.9.1 release

  ==> Input File <==

--------------------------------------------------------------------------
molecule {
-1 2
Be   0.00000        0.60000        0.00000
O   0.00000       -0.60000        0.00000
}

set {
basis              cc-pvdz
reference          uks
maxiter            500
geom_maxiter       500
DAMPING_PERCENTAGE 1
guess              SAP
}

optimize('b3lyp')
--------------------------------------------------------------------------

    Molecular point group: c2v
  Charge       = -1
  Multiplicity = 2
  Basis Set: CC-PVDZ
    Blend: CC-PVDZ
  Basis Set: (CC-PVDZ AUX)
    Blend: CC-PVDZ-JKFIT + DEF2-UNIVERSAL-JKFIT
  @DF-UKS Final Energy:   -89.94642436128365
    Total Energy =                        -89.9464243612836469
 Dipole X            :          0.0000000            0.0000000            0.0000000
 Dipole Y            :          0.0000000            0.0000000            0.0000000
 Dipole Z            :          0.3264344           -0.7361317           -0.4096972
 Magnitude           :                                                    0.4096972
    Molecular point group: c2v
  Basis Set: CC-PVDZ
    Blend: CC-PVDZ
  Basis Set: (CC-PVDZ AUX)
    Blend: CC-PVDZ-JKFIT + DEF2-UNIVERSAL-JKFIT
  Basis Set: CC-PVDZ
    Blend: CC-PVDZ
  Basis Set: (CC-PVDZ AUX)
    Blend: CC-PVDZ-JKFIT + DEF2-UNIVERSAL-JKFIT
  @DF-UKS Final Energy:   -89.97491887944031
    Total Energy =                        -89.9749188794403096
  Basis Set: CC-PVDZ
    Blend: CC-PVDZ
  Basis Set: (CC-PVDZ AUX)
    Blend: CC-PVDZ-JKFIT + DEF2-UNIVERSAL-JKFIT
  Basis Set: CC-PVDZ
    Blend: CC-PVDZ
  @DF-UKS Final Energy:   -89.97764756386442
    Total Energy =                        -89.9776475638644229
  @DF-UKS Final Energy:   -89.97800507568800
    Total Energy =                        -89.9780050756880030
  @DF-UKS Final Energy:   -89.97805655031094
    Total Energy =                        -89.9780565503109528
  Basis Set: (CC-PVDZ AUX)
    Blend: CC-PVDZ-JKFIT + DEF2-UNIVERSAL-JKFIT
  Basis Set: CC-PVDZ
    Blend: CC-PVDZ
  Basis Set: (CC-PVDZ AUX)
    Blend: CC-PVDZ-JKFIT + DEF2-UNIVERSAL-JKFIT
  @DF-UKS Final Energy:   -89.97806425558518
    Total Energy =                        -89.9780642555851813
  Basis Set: CC-PVDZ
    Blend: CC-PVDZ
  Basis Set: (CC-PVDZ AUX)
    Blend: CC-PVDZ-JKFIT + DEF2-UNIVERSAL-JKFIT
  Charge       = -1
  Multiplicity = 2
  Basis Set: CC-PVDZ
    Blend: CC-PVDZ
  Basis Set: (CC-PVDZ AUX)
    Blend: CC-PVDZ-JKFIT + DEF2-UNIVERSAL-JKFIT

    Orbital Energies [Eh]
    ---------------------

    Alpha Occupied:

       1A1   -18.815304     2A1    -3.746256     3A1    -0.594750
       4A1    -0.054040     1B1    -0.010181     1B2    -0.010181
       5A1     0.023423

    Alpha Virtual:

       2B2     0.225388     2B1     0.225388     6A1     0.285362
       7A1     0.389932     3B1     0.441144     3B2     0.441144
       8A1     0.654829     1A2     0.727293     9A1     0.727293
       4B1     0.839995     4B2     0.839995    10A1     1.164081
       5B2     1.335475     5B1     1.335475    11A1     1.421732
      12A1     2.174327     2A2     2.948203    13A1     2.948208
       6B1     3.095153     6B2     3.095153    14A1     3.517829

    Beta Occupied:

       1A1   -18.815743     2A1    -3.739280     3A1    -0.595472
       4A1    -0.046352     1B1    -0.012715     1B2    -0.012715

    Beta Virtual:

       5A1     0.132918     2B2     0.241549     2B1     0.241549
       6A1     0.294282     7A1     0.440199     3B2     0.461876
       3B1     0.461876     8A1     0.705610     1A2     0.747346
       9A1     0.747346     4B2     0.877800     4B1     0.877800
      10A1     1.180368     5B2     1.334557     5B1     1.334557
      11A1     1.434890    12A1     2.177772     2A2     2.943035
      13A1     2.943039     6B2     3.097067     6B1     3.097067
      14A1     3.522598

    Final Occupation by Irrep:
             A1    A2    B1    B2
    DOCC [     4,    0,    1,    1 ]
    SOCC [     1,    0,    0,    0 ]
    NA   [     5,    0,    1,    1 ]
    NB   [     4,    0,    1,    1 ]

  @DF-UKS Final Energy:   -89.97806559857824

   => Energetics <=

    Nuclear Repulsion Energy =             12.3497632197288159
    One-Electron Energy =                -151.4373593657928154
    Two-Electron Energy =                  58.5441416711097489
    DFT Exchange-Correlation Energy =      -9.4346111236240144
    Empirical Dispersion Energy =           0.0000000000000000
    VV10 Nonlocal Energy =                  0.0000000000000000
    Total Energy =                        -89.9780655985782545

  UHF NO Occupations:
  HONO-2 :    1 B2 1.9987790
  HONO-1 :    1 B1 1.9987790
  HONO-0 :    5 A1 1.0000000
  LUNO+0 :    2 B2 0.0012210
  LUNO+1 :    2 B1 0.0012210
  LUNO+2 :    6 A1 0.0000948
  LUNO+3 :    7 A1 0.0000038

Computation Completed

Properties will be evaluated at   0.000000,   0.000000,   0.000000 [a0]

Properties computed using the SCF density matrix

 Multipole Moments:

 ------------------------------------------------------------------------------------
     Multipole            Electronic (a.u.)      Nuclear  (a.u.)        Total (a.u.)
 ------------------------------------------------------------------------------------

 L = 1.  Multiply by 2.5417464519 to convert [e a0] to [Debye]
 Dipole X            :          0.0000000            0.0000000            0.0000000
 Dipole Y            :          0.0000000            0.0000000            0.0000000
 Dipole Z            :          0.4835777           -0.8411370           -0.3575593
 Magnitude           :                                                    0.3575593

 ------------------------------------------------------------------------------------

*** tstop() called on Joses-MacBook-Pro-2.local at Thu Jul 17 09:40:37 2025
Module time:
	user time   =       3.71 seconds =       0.06 minutes
	system time =       2.87 seconds =       0.05 minutes
	total time  =          1 seconds =       0.02 minutes
Total time:
	user time   =      31.52 seconds =       0.53 minutes
	system time =      32.47 seconds =       0.54 minutes
	total time  =          6 seconds =       0.10 minutes

*** tstart() called on Joses-MacBook-Pro-2.local
*** at Thu Jul 17 09:40:37 2025

         ------------------------------------------------------------
                                   SCF GRAD
                          Rob Parrish, Justin Turney,
                       Andy Simmonett, and Alex Sokolov
         ------------------------------------------------------------

  ==> Geometry <==

    Molecular point group: c2v
    Full point group: C_inf_v

    Geometry (in Angstrom), charge = -1, multiplicity = 2:

       Center              X                  Y                   Z               Mass
    ------------   -----------------  -----------------  -----------------  -----------------
         BE           0.000000000000     0.000000000000     0.877023268075     9.012183065000
         O            0.000000000000     0.000000000000    -0.494150449199    15.994914619570

  Nuclear repulsion =   12.349763219728816

  ==> Basis Set <==

  Basis Set: CC-PVDZ
    Blend: CC-PVDZ
    Number of shells: 12
    Number of basis functions: 28
    Number of Cartesian functions: 30
    Spherical Harmonics?: true
    Max angular momentum: 2

  ==> DFJKGrad: Density-Fitted SCF Gradients <==

    Gradient:                    1
    J tasked:                  Yes
    K tasked:                  Yes
    wK tasked:                  No
    OpenMP threads:              1
    Integrals threads:           1
    Memory [MiB]:              375
    Schwarz Cutoff:          1E-12
    Fitting Condition:       1E-10

   => Auxiliary Basis Set <=

  Basis Set: (CC-PVDZ AUX)
    Blend: CC-PVDZ-JKFIT + DEF2-UNIVERSAL-JKFIT
    Number of shells: 41
    Number of basis functions: 121
    Number of Cartesian functions: 141
    Spherical Harmonics?: true
    Max angular momentum: 3

  ==> DFT Potential <==

   => LibXC <=

    Version 6.2.2
    S. Lehtola, C. Steigemann, M. J.T. Oliveira, and M. A.L. Marques.,  SoftwareX 7, 1â€“5 (2018) (10.1016/j.softx.2017.11.002)

   => Composite Functional: B3LYP <=

    B3LYP Hyb-GGA Exchange-Correlation Functional

    P. J. Stephens, F. J. Devlin, C. F. Chabalowski, and M. J. Frisch.,  J. Phys. Chem. 98, 11623 (1994) (10.1021/j100096a001)

    Deriv               =              1
    GGA                 =           TRUE
    Meta                =          FALSE

    Exchange Hybrid     =           TRUE
    MP2 Hybrid          =          FALSE

   => Exchange Functionals <=

    0.0800   Slater exchange
    0.7200         Becke 88

   => Exact (HF) Exchange <=

    0.2000               HF

   => Correlation Functionals <=

    0.1900   Vosko, Wilk & Nusair (VWN5_RPA)
    0.8100   Lee, Yang & Parr

   => LibXC Density Thresholds  <==

    XC_HYB_GGA_XC_B3LYP:  1.00E-15

   => Molecular Quadrature <=

    Radial Scheme          =       TREUTLER
    Pruning Scheme         =           NONE
    Nuclear Scheme         =       TREUTLER

    Blocking Scheme        =         OCTREE
    BS radius alpha        =              1
    Pruning alpha          =              1
    Radial Points          =             75
    Spherical Points       =            302
    Total Points           =          43540
    Total Blocks           =            402
    Max Points             =            255
    Max Functions          =             28
    Weights Tolerance      =       1.00E-15

  -Total Gradient:
     Atom            X                  Y                   Z
    ------   -----------------  -----------------  -----------------
       1        0.000000000000     0.000000000000    -0.000162402093
       2        0.000000000000     0.000000000000     0.000178735564

*** tstop() called on Joses-MacBook-Pro-2.local at Thu Jul 17 09:40:37 2025
Module time:
	user time   =       0.57 seconds =       0.01 minutes
	system time =       1.12 seconds =       0.02 minutes
	total time  =          0 seconds =       0.00 minutes
Total time:
	user time   =      32.09 seconds =       0.53 minutes
	system time =      33.60 seconds =       0.56 minutes
	total time  =          6 seconds =       0.10 minutes

    			-----------------------------------------

    			 OPTKING 3.0: for geometry optimizations

    			     By R.A. King, Bethel University

    			        with contributions from

    			    A.V. Copan, J. Cayton, A. Heide

    			-----------------------------------------

	                            ===> Fragment 1 <==

	 Z (Atomic Numbers)          Masses                          Geom
	       4.000000             9.012183          0.00000000  0.00000000  1.65733378
	       8.000000            15.994915          0.00000000  0.00000000 -0.93380901

	 - Coordinate -           - BOHR/RAD -       - ANG/DEG -
	 R(1,2)           =         2.591143           1.371174

	        --- Internal Coordinate Step in ANG or DEG, aJ/ANG or AJ/DEG ---
	-------------------------------------------------------------------------------
	           Coordinate      Previous         Force          Change          New
	           ----------      --------        ------          ------        ------
	               R(1,2)       1.37117        0.00141        0.00020       1.37137
	-------------------------------------------------------------------------------

	                                 ==> Convergence Check <==

	Measures of convergence in internal coordinates in au.

	Criteria marked as inactive (o), active & met (*), and active & unmet ( ).

	----------------------------------------------------------------------------------------------
	   Step    Total Energy     Delta E     Max Force     RMS Force      Max Disp      RMS Disp
	----------------------------------------------------------------------------------------------
	  Convergence Criteria     1.00e-06 *    3.00e-04 *             o    1.20e-03 *             o
	----------------------------------------------------------------------------------------------
	     7     -89.97806560   -1.34e-06      1.71e-04 *    1.71e-04 o    3.70e-04 *    3.70e-04 o  ~
	----------------------------------------------------------------------------------------------

Next Geometry in Ang
	Fragment 1 (Ang)

	   Be   0.0000000000   0.0000000000   0.8771212884
	    O   0.0000000000   0.0000000000  -0.4942484696

    Final optimized geometry and variables:
    Molecular point group: c2v
    Full point group: C_inf_v

    Geometry (in Angstrom), charge = -1, multiplicity = 2:

    BE           0.000000000000     0.000000000000     0.877023268075
    O            0.000000000000     0.000000000000    -0.494150449199

    Psi4 stopped on: Thursday, 17 July 2025 09:40AM
    Psi4 wall time for execution: 0:00:06.79

*** Psi4 exiting successfully. Buy a developer a beer!
