                               Psi4 1.9.1 release

  ==> Input File <==

--------------------------------------------------------------------------
molecule {
-1 2
He   0.00000        0.60000        0.00000
C   0.00000       -0.60000        0.00000
}

set {
basis              cc-pvdz
reference          uks
maxiter            500
geom_maxiter       500
DAMPING_PERCENTAGE 1
guess              SAP
}

optimize('b3lyp')
--------------------------------------------------------------------------

    Molecular point group: c2v
  Charge       = -1
  Multiplicity = 2
  Basis Set: CC-PVDZ
    Blend: CC-PVDZ
  Basis Set: (CC-PVDZ AUX)
    Blend: CC-PVDZ-JKFIT + DEF2-UNIVERSAL-JKFIT
  @DF-UKS Final Energy:   -40.63990342353652
    Total Energy =                        -40.6399034235365235
 Dipole X            :          0.0000000            0.0000000            0.0000000
 Dipole Y            :          0.0000000            0.0000000            0.0000000
 Dipole Z            :          1.3651803           -0.0022134            1.3629669
 Magnitude           :                                                    1.3629669
    Molecular point group: c2v
  Basis Set: CC-PVDZ
    Blend: CC-PVDZ
  Basis Set: (CC-PVDZ AUX)
    Blend: CC-PVDZ-JKFIT + DEF2-UNIVERSAL-JKFIT
  Basis Set: CC-PVDZ
    Blend: CC-PVDZ
  Basis Set: (CC-PVDZ AUX)
    Blend: CC-PVDZ-JKFIT + DEF2-UNIVERSAL-JKFIT
  @DF-UKS Final Energy:   -40.66339037809768
    Total Energy =                        -40.6633903780976880
  Basis Set: CC-PVDZ
    Blend: CC-PVDZ
  Basis Set: (CC-PVDZ AUX)
    Blend: CC-PVDZ-JKFIT + DEF2-UNIVERSAL-JKFIT
  Basis Set: CC-PVDZ
    Blend: CC-PVDZ
  @DF-UKS Final Energy:   -40.68206151978671
    Total Energy =                        -40.6820615197867141
  @DF-UKS Final Energy:   -40.69185576500125
    Total Energy =                        -40.6918557650012431
  @DF-UKS Final Energy:   -40.69615418448019
    Total Energy =                        -40.6961541844801857
  @DF-UKS Final Energy:   -40.69811645147765
    Total Energy =                        -40.6981164514776523
  @DF-UKS Final Energy:   -40.69904196905605
    Total Energy =                        -40.6990419690560401
  @DF-UKS Final Energy:   -40.69948318466544
    Total Energy =                        -40.6994831846654392
  @DF-UKS Final Energy:   -40.69968541081469
    Total Energy =                        -40.6996854108146948
  @DF-UKS Final Energy:   -40.69977057985938
    Total Energy =                        -40.6997705798593756
  @DF-UKS Final Energy:   -40.69980207387197
    Total Energy =                        -40.6998020738719717
  @DF-UKS Final Energy:   -40.69980987405957
    Total Energy =                        -40.6998098740595680
  Basis Set: (CC-PVDZ AUX)
    Blend: CC-PVDZ-JKFIT + DEF2-UNIVERSAL-JKFIT
  Basis Set: CC-PVDZ
    Blend: CC-PVDZ
  Basis Set: (CC-PVDZ AUX)
    Blend: CC-PVDZ-JKFIT + DEF2-UNIVERSAL-JKFIT
  @DF-UKS Final Energy:   -40.69981254358731
    Total Energy =                        -40.6998125435873064
  Basis Set: CC-PVDZ
    Blend: CC-PVDZ
  Basis Set: (CC-PVDZ AUX)
    Blend: CC-PVDZ-JKFIT + DEF2-UNIVERSAL-JKFIT
  Charge       = -1
  Multiplicity = 2
  Basis Set: CC-PVDZ
    Blend: CC-PVDZ
  Basis Set: (CC-PVDZ AUX)
    Blend: CC-PVDZ-JKFIT + DEF2-UNIVERSAL-JKFIT

    Orbital Energies [Eh]
    ---------------------

    Alpha Occupied:

       1A1    -9.868041     2A1    -0.491144     3A1    -0.164841
       1B1     0.128033     1B2     0.175563

    Alpha Virtual:

       4A1     0.227508     2B1     0.793645     5A1     0.816531
       2B2     0.829604     6A1     0.895677     7A1     1.310719
       3B1     1.503628     8A1     1.511634     1A2     1.534818
       3B2     1.541970     9A1     1.555794     4B1     2.347591
       4B2     2.347759    10A1     2.355553

    Beta Occupied:

       1A1    -9.856946     2A1    -0.491168     3A1    -0.114165
       1B2     0.189100

    Beta Virtual:

       4A1     0.241911     1B1     0.285380     5A1     0.826504
       2B2     0.839553     2B1     0.867762     6A1     0.923763
       7A1     1.311718     3B2     1.547336     8A1     1.551597
       3B1     1.565538     1A2     1.585867     9A1     1.594369
       4B1     2.347596     4B2     2.347759    10A1     2.355593

    Final Occupation by Irrep:
             A1    A2    B1    B2
    DOCC [     3,    0,    0,    1 ]
    SOCC [     0,    0,    1,    0 ]
    NA   [     3,    0,    1,    1 ]
    NB   [     3,    0,    0,    1 ]

  @DF-UKS Final Energy:   -40.69981310879815

   => Energetics <=

    Nuclear Repulsion Energy =              2.0830456633970620
    One-Electron Energy =                 -61.2252421167607750
    Two-Electron Energy =                  23.7676401685455971
    DFT Exchange-Correlation Energy =      -5.3252568239800455
    Empirical Dispersion Energy =           0.0000000000000000
    VV10 Nonlocal Energy =                  0.0000000000000000
    Total Energy =                        -40.6998131087981605

  UHF NO Occupations:
  HONO-2 :    1 B2 1.9999466
  HONO-1 :    3 A1 1.9992863
  HONO-0 :    1 B1 1.0000000
  LUNO+0 :    4 A1 0.0007137
  LUNO+1 :    2 B2 0.0000534
  LUNO+2 :    5 A1 0.0000000
  LUNO+3 :    6 A1 0.0000000

Computation Completed

Properties will be evaluated at   0.000000,   0.000000,   0.000000 [a0]

Properties computed using the SCF density matrix

 Multipole Moments:

 ------------------------------------------------------------------------------------
     Multipole            Electronic (a.u.)      Nuclear  (a.u.)        Total (a.u.)
 ------------------------------------------------------------------------------------

 L = 1.  Multiply by 2.5417464519 to convert [e a0] to [Debye]
 Dipole X            :          0.0000000            0.0000000            0.0000000
 Dipole Y            :          0.0000000            0.0000000            0.0000000
 Dipole Z            :          1.4444903           -0.0056229            1.4388674
 Magnitude           :                                                    1.4388674

 ------------------------------------------------------------------------------------

*** tstop() called on Joses-MacBook-Pro-2.local at Thu Jul 17 09:18:56 2025
Module time:
	user time   =       0.68 seconds =       0.01 minutes
	system time =       3.17 seconds =       0.05 minutes
	total time  =          1 seconds =       0.02 minutes
Total time:
	user time   =      18.92 seconds =       0.32 minutes
	system time =      56.46 seconds =       0.94 minutes
	total time  =          9 seconds =       0.15 minutes

*** tstart() called on Joses-MacBook-Pro-2.local
*** at Thu Jul 17 09:18:56 2025

         ------------------------------------------------------------
                                   SCF GRAD
                          Rob Parrish, Justin Turney,
                       Andy Simmonett, and Alex Sokolov
         ------------------------------------------------------------

  ==> Geometry <==

    Molecular point group: c2v
    Full point group: C_inf_v

    Geometry (in Angstrom), charge = -1, multiplicity = 2:

       Center              X                  Y                   Z               Mass
    ------------   -----------------  -----------------  -----------------  -----------------
         HE           0.000000000000     0.000000000000     2.285989316249     4.002603254130
         C            0.000000000000     0.000000000000    -0.762492356344    12.000000000000

  Nuclear repulsion =    2.083045663397062

  ==> Basis Set <==

  Basis Set: CC-PVDZ
    Blend: CC-PVDZ
    Number of shells: 9
    Number of basis functions: 19
    Number of Cartesian functions: 20
    Spherical Harmonics?: true
    Max angular momentum: 2

  ==> DFJKGrad: Density-Fitted SCF Gradients <==

    Gradient:                    1
    J tasked:                  Yes
    K tasked:                  Yes
    wK tasked:                  No
    OpenMP threads:              1
    Integrals threads:           1
    Memory [MiB]:              375
    Schwarz Cutoff:          1E-12
    Fitting Condition:       1E-10

   => Auxiliary Basis Set <=

  Basis Set: (CC-PVDZ AUX)
    Blend: CC-PVDZ-JKFIT + DEF2-UNIVERSAL-JKFIT
    Number of shells: 33
    Number of basis functions: 93
    Number of Cartesian functions: 106
    Spherical Harmonics?: true
    Max angular momentum: 3

  ==> DFT Potential <==

   => LibXC <=

    Version 6.2.2
    S. Lehtola, C. Steigemann, M. J.T. Oliveira, and M. A.L. Marques.,  SoftwareX 7, 1â€“5 (2018) (10.1016/j.softx.2017.11.002)

   => Composite Functional: B3LYP <=

    B3LYP Hyb-GGA Exchange-Correlation Functional

    P. J. Stephens, F. J. Devlin, C. F. Chabalowski, and M. J. Frisch.,  J. Phys. Chem. 98, 11623 (1994) (10.1021/j100096a001)

    Deriv               =              1
    GGA                 =           TRUE
    Meta                =          FALSE

    Exchange Hybrid     =           TRUE
    MP2 Hybrid          =          FALSE

   => Exchange Functionals <=

    0.0800   Slater exchange
    0.7200         Becke 88

   => Exact (HF) Exchange <=

    0.2000               HF

   => Correlation Functionals <=

    0.1900   Vosko, Wilk & Nusair (VWN5_RPA)
    0.8100   Lee, Yang & Parr

   => LibXC Density Thresholds  <==

    XC_HYB_GGA_XC_B3LYP:  1.00E-15

   => Molecular Quadrature <=

    Radial Scheme          =       TREUTLER
    Pruning Scheme         =           NONE
    Nuclear Scheme         =       TREUTLER

    Blocking Scheme        =         OCTREE
    BS radius alpha        =              1
    Pruning alpha          =              1
    Radial Points          =             75
    Spherical Points       =            302
    Total Points           =          43654
    Total Blocks           =            388
    Max Points             =            254
    Max Functions          =             19
    Weights Tolerance      =       1.00E-15

  -Total Gradient:
     Atom            X                  Y                   Z
    ------   -----------------  -----------------  -----------------
       1       -0.000000000000     0.000000000000    -0.000013007454
       2       -0.000000000000     0.000000000000     0.000008044844

*** tstop() called on Joses-MacBook-Pro-2.local at Thu Jul 17 09:18:56 2025
Module time:
	user time   =       0.32 seconds =       0.01 minutes
	system time =       0.68 seconds =       0.01 minutes
	total time  =          0 seconds =       0.00 minutes
Total time:
	user time   =      19.24 seconds =       0.32 minutes
	system time =      57.14 seconds =       0.95 minutes
	total time  =          9 seconds =       0.15 minutes

    			-----------------------------------------

    			 OPTKING 3.0: for geometry optimizations

    			     By R.A. King, Bethel University

    			        with contributions from

    			    A.V. Copan, J. Cayton, A. Heide

    			-----------------------------------------

	                            ===> Fragment 1 <==

	 Z (Atomic Numbers)          Masses                          Geom
	       2.000000             4.002603          0.00000000  0.00000000  4.31989373
	       6.000000            12.000000          0.00000000  0.00000000 -1.44090173

	 - Coordinate -           - BOHR/RAD -       - ANG/DEG -
	 R(1,2)           =         5.760795           3.048482

	        --- Internal Coordinate Step in ANG or DEG, aJ/ANG or AJ/DEG ---
	-------------------------------------------------------------------------------
	           Coordinate      Previous         Force          Change          New
	           ----------      --------        ------          ------        ------
	               R(1,2)       3.04848        0.00009        0.01119       3.05968
	-------------------------------------------------------------------------------

	                                 ==> Convergence Check <==

	Measures of convergence in internal coordinates in au.

	Criteria marked as inactive (o), active & met (*), and active & unmet ( ).

	----------------------------------------------------------------------------------------------
	   Step    Total Energy     Delta E     Max Force     RMS Force      Max Disp      RMS Disp
	----------------------------------------------------------------------------------------------
	  Convergence Criteria     1.00e-06 *    3.00e-04 *             o    1.20e-03 *             o
	----------------------------------------------------------------------------------------------
	    14     -40.69981311   -5.65e-07 *    1.05e-05 *    1.05e-05 o    2.12e-02      2.12e-02 o  ~
	----------------------------------------------------------------------------------------------

Next Geometry in Ang
	Fragment 1 (Ang)

	   He   0.0000000000   0.0000000000   2.2915861561
	    C   0.0000000000   0.0000000000  -0.7680891962

    Final optimized geometry and variables:
    Molecular point group: c2v
    Full point group: C_inf_v

    Geometry (in Angstrom), charge = -1, multiplicity = 2:

    HE           0.000000000000     0.000000000000     2.285989316249
    C            0.000000000000     0.000000000000    -0.762492356344

    Psi4 stopped on: Thursday, 17 July 2025 09:18AM
    Psi4 wall time for execution: 0:00:09.11

*** Psi4 exiting successfully. Buy a developer a beer!
