                               Psi4 1.9.1 release

  ==> Input File <==

--------------------------------------------------------------------------
molecule {
-1 2
Na   0.00000        0.60000        0.00000
Cl   0.00000       -0.60000        0.00000
}

set {
basis              cc-pvdz
reference          uks
maxiter            500
geom_maxiter       500
DAMPING_PERCENTAGE 1
guess              SAP
}

optimize('b3lyp')
--------------------------------------------------------------------------

    Molecular point group: c2v
  Charge       = -1
  Multiplicity = 2
  Basis Set: CC-PVDZ
    Blend: CC-PVDZ
  Basis Set: (CC-PVDZ AUX)
    Blend: CC-PVDZ-JKFIT + DEF2-UNIVERSAL-JKFIT
  @DF-UKS Final Energy:  -621.50777665732539
    Total Energy =                       -621.5077766573252802
 Dipole X            :          0.0000000            0.0000000            0.0000000
 Dipole Y            :          0.0000000            0.0000000            0.0000000
 Dipole Z            :         -1.6262902           -0.2413546           -1.8676448
 Magnitude           :                                                    1.8676448
    Molecular point group: c2v
  Basis Set: CC-PVDZ
    Blend: CC-PVDZ
  Basis Set: (CC-PVDZ AUX)
    Blend: CC-PVDZ-JKFIT + DEF2-UNIVERSAL-JKFIT
  Basis Set: CC-PVDZ
    Blend: CC-PVDZ
  Basis Set: (CC-PVDZ AUX)
    Blend: CC-PVDZ-JKFIT + DEF2-UNIVERSAL-JKFIT
  @DF-UKS Final Energy:  -621.52479363496388
    Total Energy =                       -621.5247936349638849
  Basis Set: CC-PVDZ
    Blend: CC-PVDZ
  Basis Set: (CC-PVDZ AUX)
    Blend: CC-PVDZ-JKFIT + DEF2-UNIVERSAL-JKFIT
  Basis Set: CC-PVDZ
    Blend: CC-PVDZ
  @DF-UKS Final Energy:  -621.55761552178717
    Total Energy =                       -621.5576155217871701
  @DF-UKS Final Energy:  -621.67636937970133
    Total Energy =                       -621.6763693797013275
  @DF-UKS Final Energy:  -622.17983585236902
    Total Energy =                       -622.1798358523690240
  @DF-UKS Final Energy:  -622.41764830249542
    Total Energy =                       -622.4176483024955360
  @DF-UKS Final Energy:  -622.53240454389572
    Total Energy =                       -622.5324045438957228
  @DF-UKS Final Energy:  -622.58386488545250
    Total Energy =                       -622.5838648854524990
  @DF-UKS Final Energy:  -622.60739610993460
    Total Energy =                       -622.6073961099345979
  @DF-UKS Final Energy:  -622.61727153105687
    Total Energy =                       -622.6172715310567582
  @DF-UKS Final Energy:  -622.62074573145901
    Total Energy =                       -622.6207457314590101
  @DF-UKS Final Energy:  -622.62146000923406
    Total Energy =                       -622.6214600092340561
  @DF-UKS Final Energy:  -622.62165970336787
    Total Energy =                       -622.6216597033678681
  @DF-UKS Final Energy:  -622.62168312860092
    Total Energy =                       -622.6216831286008073
  Basis Set: (CC-PVDZ AUX)
    Blend: CC-PVDZ-JKFIT + DEF2-UNIVERSAL-JKFIT
  Basis Set: CC-PVDZ
    Blend: CC-PVDZ
  Basis Set: (CC-PVDZ AUX)
    Blend: CC-PVDZ-JKFIT + DEF2-UNIVERSAL-JKFIT
  @DF-UKS Final Energy:  -622.62168589665748
    Total Energy =                       -622.6216858966574819
  Basis Set: CC-PVDZ
    Blend: CC-PVDZ
  Basis Set: (CC-PVDZ AUX)
    Blend: CC-PVDZ-JKFIT + DEF2-UNIVERSAL-JKFIT
  Charge       = -1
  Multiplicity = 2
  Basis Set: CC-PVDZ
    Blend: CC-PVDZ
  Basis Set: (CC-PVDZ AUX)
    Blend: CC-PVDZ-JKFIT + DEF2-UNIVERSAL-JKFIT

    Orbital Energies [Eh]
    ---------------------

    Alpha Occupied:

       1A1  -101.276406     2A1   -38.298129     3A1    -9.191730
       4A1    -6.948912     1B2    -6.947836     1B1    -6.947836
       5A1    -2.047079     2B1    -0.979141     2B2    -0.979141
       6A1    -0.976828     7A1    -0.537701     8A1    -0.095292
       3B1    -0.079695     3B2    -0.079695     9A1     0.028182

    Alpha Virtual:

       4B1     0.105314     4B2     0.105314    10A1     0.127220
      11A1     0.179148     5B2     0.213887     5B1     0.213887
      12A1     0.263590    13A1     0.315976     1A2     0.315976
       6B2     0.340968     6B1     0.340968    14A1     0.407297
       7B2     0.827430     7B1     0.827430    15A1     0.832271
      16A1     0.978373    17A1     0.991478     2A2     0.991482
       8B1     1.027662     8B2     1.027662    18A1     1.270589

    Beta Occupied:

       1A1  -101.276202     2A1   -38.297292     3A1    -9.191520
       4A1    -6.948333     1B2    -6.947703     1B1    -6.947703
       5A1    -2.045469     2B1    -0.978164     2B2    -0.978164
       6A1    -0.975276     7A1    -0.536469     8A1    -0.092897
       3B1    -0.079384     3B2    -0.079384

    Beta Virtual:

       9A1     0.086285     4B1     0.115975     4B2     0.115975
      10A1     0.133855    11A1     0.194604     5B2     0.228127
       5B1     0.228127    12A1     0.281258     1A2     0.327893
      13A1     0.327893     6B2     0.356392     6B1     0.356392
      14A1     0.420884     7B2     0.828309     7B1     0.828309
      15A1     0.833707    16A1     0.979963    17A1     0.991812
       2A2     0.991816     8B1     1.029207     8B2     1.029207
      18A1     1.272664

    Final Occupation by Irrep:
             A1    A2    B1    B2
    DOCC [     8,    0,    3,    3 ]
    SOCC [     1,    0,    0,    0 ]
    NA   [     9,    0,    3,    3 ]
    NB   [     8,    0,    3,    3 ]

  @DF-UKS Final Energy:  -622.62168620920204

   => Energetics <=

    Nuclear Repulsion Energy =             39.4296047465965458
    One-Electron Energy =                -948.7463795344451682
    Two-Electron Energy =                 321.2788200360875521
    DFT Exchange-Correlation Energy =     -34.5837314574409476
    Empirical Dispersion Energy =           0.0000000000000000
    VV10 Nonlocal Energy =                  0.0000000000000000
    Total Energy =                       -622.6216862092021529

  UHF NO Occupations:
  HONO-2 :    3 B1 1.9999911
  HONO-1 :    8 A1 1.9999564
  HONO-0 :    9 A1 1.0000000
  LUNO+0 :   10 A1 0.0000436
  LUNO+1 :    4 B2 0.0000089
  LUNO+2 :    4 B1 0.0000089
  LUNO+3 :   11 A1 0.0000005

Computation Completed

Properties will be evaluated at   0.000000,   0.000000,   0.000000 [a0]

Properties computed using the SCF density matrix

 Multipole Moments:

 ------------------------------------------------------------------------------------
     Multipole            Electronic (a.u.)      Nuclear  (a.u.)        Total (a.u.)
 ------------------------------------------------------------------------------------

 L = 1.  Multiply by 2.5417464519 to convert [e a0] to [Debye]
 Dipole X            :          0.0000000            0.0000000            0.0000000
 Dipole Y            :          0.0000000            0.0000000            0.0000000
 Dipole Z            :         -0.9421333           -0.5047713           -1.4469047
 Magnitude           :                                                    1.4469047

 ------------------------------------------------------------------------------------

*** tstop() called on Joses-MacBook-Pro-2.local at Thu Jul 17 11:17:13 2025
Module time:
	user time   =      15.03 seconds =       0.25 minutes
	system time =       3.98 seconds =       0.07 minutes
	total time  =          2 seconds =       0.03 minutes
Total time:
	user time   =     314.48 seconds =       5.24 minutes
	system time =     105.25 seconds =       1.75 minutes
	total time  =         43 seconds =       0.72 minutes

*** tstart() called on Joses-MacBook-Pro-2.local
*** at Thu Jul 17 11:17:13 2025

         ------------------------------------------------------------
                                   SCF GRAD
                          Rob Parrish, Justin Turney,
                       Andy Simmonett, and Alex Sokolov
         ------------------------------------------------------------

  ==> Geometry <==

    Molecular point group: c2v
    Full point group: C_inf_v

    Geometry (in Angstrom), charge = -1, multiplicity = 2:

       Center              X                  Y                   Z               Mass
    ------------   -----------------  -----------------  -----------------  -----------------
         NA           0.000000000000     0.000000000000     1.514201416491    22.989769282000
         CL           0.000000000000     0.000000000000    -0.995489944385    34.968852682000

  Nuclear repulsion =   39.429604746596546

  ==> Basis Set <==

  Basis Set: CC-PVDZ
    Blend: CC-PVDZ
    Number of shells: 16
    Number of basis functions: 36
    Number of Cartesian functions: 38
    Spherical Harmonics?: true
    Max angular momentum: 2

  ==> DFJKGrad: Density-Fitted SCF Gradients <==

    Gradient:                    1
    J tasked:                  Yes
    K tasked:                  Yes
    wK tasked:                  No
    OpenMP threads:              1
    Integrals threads:           1
    Memory [MiB]:              375
    Schwarz Cutoff:          1E-12
    Fitting Condition:       1E-10

   => Auxiliary Basis Set <=

  Basis Set: (CC-PVDZ AUX)
    Blend: CC-PVDZ-JKFIT + DEF2-UNIVERSAL-JKFIT
    Number of shells: 70
    Number of basis functions: 224
    Number of Cartesian functions: 267
    Spherical Harmonics?: true
    Max angular momentum: 4

  ==> DFT Potential <==

   => LibXC <=

    Version 6.2.2
    S. Lehtola, C. Steigemann, M. J.T. Oliveira, and M. A.L. Marques.,  SoftwareX 7, 1â€“5 (2018) (10.1016/j.softx.2017.11.002)

   => Composite Functional: B3LYP <=

    B3LYP Hyb-GGA Exchange-Correlation Functional

    P. J. Stephens, F. J. Devlin, C. F. Chabalowski, and M. J. Frisch.,  J. Phys. Chem. 98, 11623 (1994) (10.1021/j100096a001)

    Deriv               =              1
    GGA                 =           TRUE
    Meta                =          FALSE

    Exchange Hybrid     =           TRUE
    MP2 Hybrid          =          FALSE

   => Exchange Functionals <=

    0.0800   Slater exchange
    0.7200         Becke 88

   => Exact (HF) Exchange <=

    0.2000               HF

   => Correlation Functionals <=

    0.1900   Vosko, Wilk & Nusair (VWN5_RPA)
    0.8100   Lee, Yang & Parr

   => LibXC Density Thresholds  <==

    XC_HYB_GGA_XC_B3LYP:  1.00E-15

   => Molecular Quadrature <=

    Radial Scheme          =       TREUTLER
    Pruning Scheme         =           NONE
    Nuclear Scheme         =       TREUTLER

    Blocking Scheme        =         OCTREE
    BS radius alpha        =              1
    Pruning alpha          =              1
    Radial Points          =             75
    Spherical Points       =            302
    Total Points           =          43845
    Total Blocks           =            438
    Max Points             =            254
    Max Functions          =             36
    Weights Tolerance      =       1.00E-15

  -Total Gradient:
     Atom            X                  Y                   Z
    ------   -----------------  -----------------  -----------------
       1        0.000000000000     0.000000000000     0.000031103254
       2        0.000000000000     0.000000000000     0.000103068443

*** tstop() called on Joses-MacBook-Pro-2.local at Thu Jul 17 11:17:13 2025
Module time:
	user time   =       3.77 seconds =       0.06 minutes
	system time =       2.26 seconds =       0.04 minutes
	total time  =          0 seconds =       0.00 minutes
Total time:
	user time   =     318.25 seconds =       5.30 minutes
	system time =     107.52 seconds =       1.79 minutes
	total time  =         43 seconds =       0.72 minutes

    			-----------------------------------------

    			 OPTKING 3.0: for geometry optimizations

    			     By R.A. King, Bethel University

    			        with contributions from

    			    A.V. Copan, J. Cayton, A. Heide

    			-----------------------------------------

	                            ===> Fragment 1 <==

	 Z (Atomic Numbers)          Masses                          Geom
	      11.000000            22.989769          0.00000000  0.00000000  2.86142598
	      17.000000            34.968853          0.00000000  0.00000000 -1.88120336

	 - Coordinate -           - BOHR/RAD -       - ANG/DEG -
	 R(1,2)           =         4.742629           2.509691

	        --- Internal Coordinate Step in ANG or DEG, aJ/ANG or AJ/DEG ---
	-------------------------------------------------------------------------------
	           Coordinate      Previous         Force          Change          New
	           ----------      --------        ------          ------        ------
	               R(1,2)       2.50969        0.00030        0.00043       2.51012
	-------------------------------------------------------------------------------

	                                 ==> Convergence Check <==

	Measures of convergence in internal coordinates in au.

	Criteria marked as inactive (o), active & met (*), and active & unmet ( ).

	----------------------------------------------------------------------------------------------
	   Step    Total Energy     Delta E     Max Force     RMS Force      Max Disp      RMS Disp
	----------------------------------------------------------------------------------------------
	  Convergence Criteria     1.00e-06 *    3.00e-04 *             o    1.20e-03 *             o
	----------------------------------------------------------------------------------------------
	    16    -622.62168621   -3.13e-07 *    3.60e-05 *    3.60e-05 o    8.17e-04 *    8.17e-04 o  ~
	----------------------------------------------------------------------------------------------

Next Geometry in Ang
	Fragment 1 (Ang)

	   Na   0.0000000000   0.0000000000   1.5144176571
	   Cl   0.0000000000   0.0000000000  -0.9957061850

    Final optimized geometry and variables:
    Molecular point group: c2v
    Full point group: C_inf_v

    Geometry (in Angstrom), charge = -1, multiplicity = 2:

    NA           0.000000000000     0.000000000000     1.514201416491
    CL           0.000000000000     0.000000000000    -0.995489944385

    Psi4 stopped on: Thursday, 17 July 2025 11:17AM
    Psi4 wall time for execution: 0:00:44.05

*** Psi4 exiting successfully. Buy a developer a beer!
