                               Psi4 1.9.1 release

  ==> Input File <==

--------------------------------------------------------------------------
molecule {
-1 2
F   0.00000        0.60000        0.00000
Na   0.00000       -0.60000        0.00000
}

set {
basis              cc-pvdz
reference          uks
maxiter            500
geom_maxiter       500
DAMPING_PERCENTAGE 1
guess              SAP
}

optimize('b3lyp')
--------------------------------------------------------------------------

    Molecular point group: c2v
  Charge       = -1
  Multiplicity = 2
  Basis Set: CC-PVDZ
    Blend: CC-PVDZ
  Basis Set: (CC-PVDZ AUX)
    Blend: CC-PVDZ-JKFIT + DEF2-UNIVERSAL-JKFIT
  @DF-UKS Final Energy:  -261.69593549876282
    Total Energy =                       -261.6959354987628217
 Dipole X            :          0.0000000            0.0000000            0.0000000
 Dipole Y            :          0.0000000            0.0000000            0.0000000
 Dipole Z            :          1.7771832           -0.1120389            1.6651443
 Magnitude           :                                                    1.6651443
    Molecular point group: c2v
  Basis Set: CC-PVDZ
    Blend: CC-PVDZ
  Basis Set: (CC-PVDZ AUX)
    Blend: CC-PVDZ-JKFIT + DEF2-UNIVERSAL-JKFIT
  Basis Set: CC-PVDZ
    Blend: CC-PVDZ
  Basis Set: (CC-PVDZ AUX)
    Blend: CC-PVDZ-JKFIT + DEF2-UNIVERSAL-JKFIT
  @DF-UKS Final Energy:  -261.98471433346469
    Total Energy =                       -261.9847143334646944
  Basis Set: CC-PVDZ
    Blend: CC-PVDZ
  Basis Set: (CC-PVDZ AUX)
    Blend: CC-PVDZ-JKFIT + DEF2-UNIVERSAL-JKFIT
  Basis Set: CC-PVDZ
    Blend: CC-PVDZ
  @DF-UKS Final Energy:  -262.10963228507245
    Total Energy =                       -262.1096322850724505
  @DF-UKS Final Energy:  -262.16683928511634
    Total Energy =                       -262.1668392851163389
  @DF-UKS Final Energy:  -262.19159812192083
    Total Energy =                       -262.1915981219208334
  @DF-UKS Final Energy:  -262.19907613332390
    Total Energy =                       -262.1990761333238993
  @DF-UKS Final Energy:  -262.20262493013081
    Total Energy =                       -262.2026249301308098
  @DF-UKS Final Energy:  -262.20360049611531
    Total Energy =                       -262.2036004961153139
  @DF-UKS Final Energy:  -262.20398137496818
    Total Energy =                       -262.2039813749681798
  @DF-UKS Final Energy:  -262.20405065284507
    Total Energy =                       -262.2040506528450692
  Basis Set: (CC-PVDZ AUX)
    Blend: CC-PVDZ-JKFIT + DEF2-UNIVERSAL-JKFIT
  Basis Set: CC-PVDZ
    Blend: CC-PVDZ
  Basis Set: (CC-PVDZ AUX)
    Blend: CC-PVDZ-JKFIT + DEF2-UNIVERSAL-JKFIT
  @DF-UKS Final Energy:  -262.20406617135581
    Total Energy =                       -262.2040661713558052
  Basis Set: CC-PVDZ
    Blend: CC-PVDZ
  Basis Set: (CC-PVDZ AUX)
    Blend: CC-PVDZ-JKFIT + DEF2-UNIVERSAL-JKFIT
  Charge       = -1
  Multiplicity = 2
  Basis Set: CC-PVDZ
    Blend: CC-PVDZ
  Basis Set: (CC-PVDZ AUX)
    Blend: CC-PVDZ-JKFIT + DEF2-UNIVERSAL-JKFIT

    Orbital Energies [Eh]
    ---------------------

    Alpha Occupied:

       1A1   -38.257670     2A1   -24.341952     3A1    -2.010176
       1B2    -0.942888     1B1    -0.942888     4A1    -0.942083
       5A1    -0.789617     6A1    -0.081537     2B1    -0.073683
       2B2    -0.073683     7A1     0.037577

    Alpha Virtual:

       3B1     0.107998     3B2     0.107998     8A1     0.132777
       9A1     0.190399     4B1     0.229712     4B2     0.229712
      10A1     0.276392    11A1     0.332161     1A2     0.332162
       5B2     0.375751     5B1     0.375751    12A1     0.444314
      13A1     1.476343     6B2     1.546966     6B1     1.546966
      14A1     2.254492    15A1     3.898793     7B2     3.906765
       7B1     3.906765     2A2     3.909753    16A1     3.909847

    Beta Occupied:

       1A1   -38.256919     2A1   -24.341418     3A1    -2.008718
       1B2    -0.942033     1B1    -0.942033     4A1    -0.940656
       5A1    -0.788263     6A1    -0.078500     2B1    -0.073209
       2B2    -0.073209

    Beta Virtual:

       7A1     0.093946     3B1     0.119620     3B2     0.119620
       8A1     0.138126     9A1     0.206385     4B1     0.245417
       4B2     0.245417    10A1     0.292240    11A1     0.342895
       1A2     0.342896     5B2     0.386074     5B1     0.386074
      12A1     0.453711    13A1     1.477846     6B2     1.547636
       6B1     1.547636    14A1     2.255612    15A1     3.900470
       7B2     3.908127     7B1     3.908127     2A2     3.910144
      16A1     3.910238

    Final Occupation by Irrep:
             A1    A2    B1    B2
    DOCC [     6,    0,    2,    2 ]
    SOCC [     1,    0,    0,    0 ]
    NA   [     7,    0,    2,    2 ]
    NB   [     6,    0,    2,    2 ]

  @DF-UKS Final Energy:  -262.20406825779935

   => Energetics <=

    Nuclear Repulsion Energy =             26.7860498781233964
    One-Electron Energy =                -426.5840462132219955
    Two-Electron Energy =                 157.8958992106265100
    DFT Exchange-Correlation Energy =     -20.3019711333272177
    Empirical Dispersion Energy =           0.0000000000000000
    VV10 Nonlocal Energy =                  0.0000000000000000
    Total Energy =                       -262.2040682577993493

  UHF NO Occupations:
  HONO-2 :    2 B1 1.9999958
  HONO-1 :    6 A1 1.9999708
  HONO-0 :    7 A1 1.0000000
  LUNO+0 :    8 A1 0.0000292
  LUNO+1 :    3 B2 0.0000042
  LUNO+2 :    3 B1 0.0000042
  LUNO+3 :    9 A1 0.0000001

Computation Completed

Properties will be evaluated at   0.000000,   0.000000,   0.000000 [a0]

Properties computed using the SCF density matrix

 Multipole Moments:

 ------------------------------------------------------------------------------------
     Multipole            Electronic (a.u.)      Nuclear  (a.u.)        Total (a.u.)
 ------------------------------------------------------------------------------------

 L = 1.  Multiply by 2.5417464519 to convert [e a0] to [Debye]
 Dipole X            :          0.0000000            0.0000000            0.0000000
 Dipole Y            :          0.0000000            0.0000000            0.0000000
 Dipole Z            :          1.4090992           -0.1826061            1.2264931
 Magnitude           :                                                    1.2264931

 ------------------------------------------------------------------------------------

*** tstop() called on Joses-MacBook-Pro-2.local at Thu Jul 17 10:50:39 2025
Module time:
	user time   =       3.29 seconds =       0.05 minutes
	system time =       3.15 seconds =       0.05 minutes
	total time  =          1 seconds =       0.02 minutes
Total time:
	user time   =      72.53 seconds =       1.21 minutes
	system time =      59.69 seconds =       0.99 minutes
	total time  =         15 seconds =       0.25 minutes

*** tstart() called on Joses-MacBook-Pro-2.local
*** at Thu Jul 17 10:50:39 2025

         ------------------------------------------------------------
                                   SCF GRAD
                          Rob Parrish, Justin Turney,
                       Andy Simmonett, and Alex Sokolov
         ------------------------------------------------------------

  ==> Geometry <==

    Molecular point group: c2v
    Full point group: C_inf_v

    Geometry (in Angstrom), charge = -1, multiplicity = 2:

       Center              X                  Y                   Z               Mass
    ------------   -----------------  -----------------  -----------------  -----------------
         F            0.000000000000     0.000000000000     1.070866406632    18.998403162730
         NA           0.000000000000     0.000000000000    -0.884948060029    22.989769282000

  Nuclear repulsion =   26.786049878123396

  ==> Basis Set <==

  Basis Set: CC-PVDZ
    Blend: CC-PVDZ
    Number of shells: 14
    Number of basis functions: 32
    Number of Cartesian functions: 34
    Spherical Harmonics?: true
    Max angular momentum: 2

  ==> DFJKGrad: Density-Fitted SCF Gradients <==

    Gradient:                    1
    J tasked:                  Yes
    K tasked:                  Yes
    wK tasked:                  No
    OpenMP threads:              1
    Integrals threads:           1
    Memory [MiB]:              375
    Schwarz Cutoff:          1E-12
    Fitting Condition:       1E-10

   => Auxiliary Basis Set <=

  Basis Set: (CC-PVDZ AUX)
    Blend: CC-PVDZ-JKFIT + DEF2-UNIVERSAL-JKFIT
    Number of shells: 58
    Number of basis functions: 182
    Number of Cartesian functions: 218
    Spherical Harmonics?: true
    Max angular momentum: 4

  ==> DFT Potential <==

   => LibXC <=

    Version 6.2.2
    S. Lehtola, C. Steigemann, M. J.T. Oliveira, and M. A.L. Marques.,  SoftwareX 7, 1â€“5 (2018) (10.1016/j.softx.2017.11.002)

   => Composite Functional: B3LYP <=

    B3LYP Hyb-GGA Exchange-Correlation Functional

    P. J. Stephens, F. J. Devlin, C. F. Chabalowski, and M. J. Frisch.,  J. Phys. Chem. 98, 11623 (1994) (10.1021/j100096a001)

    Deriv               =              1
    GGA                 =           TRUE
    Meta                =          FALSE

    Exchange Hybrid     =           TRUE
    MP2 Hybrid          =          FALSE

   => Exchange Functionals <=

    0.0800   Slater exchange
    0.7200         Becke 88

   => Exact (HF) Exchange <=

    0.2000               HF

   => Correlation Functionals <=

    0.1900   Vosko, Wilk & Nusair (VWN5_RPA)
    0.8100   Lee, Yang & Parr

   => LibXC Density Thresholds  <==

    XC_HYB_GGA_XC_B3LYP:  1.00E-15

   => Molecular Quadrature <=

    Radial Scheme          =       TREUTLER
    Pruning Scheme         =           NONE
    Nuclear Scheme         =       TREUTLER

    Blocking Scheme        =         OCTREE
    BS radius alpha        =              1
    Pruning alpha          =              1
    Radial Points          =             75
    Spherical Points       =            302
    Total Points           =          43777
    Total Blocks           =            421
    Max Points             =            256
    Max Functions          =             32
    Weights Tolerance      =       1.00E-15

  -Total Gradient:
     Atom            X                  Y                   Z
    ------   -----------------  -----------------  -----------------
       1        0.000000000000    -0.000000000000    -0.000121645832
       2       -0.000000000000     0.000000000000     0.000106154764

*** tstop() called on Joses-MacBook-Pro-2.local at Thu Jul 17 10:50:39 2025
Module time:
	user time   =       1.89 seconds =       0.03 minutes
	system time =       0.80 seconds =       0.01 minutes
	total time  =          0 seconds =       0.00 minutes
Total time:
	user time   =      74.42 seconds =       1.24 minutes
	system time =      60.50 seconds =       1.01 minutes
	total time  =         15 seconds =       0.25 minutes

    			-----------------------------------------

    			 OPTKING 3.0: for geometry optimizations

    			     By R.A. King, Bethel University

    			        with contributions from

    			    A.V. Copan, J. Cayton, A. Heide

    			-----------------------------------------

	                            ===> Fragment 1 <==

	 Z (Atomic Numbers)          Masses                          Geom
	       9.000000            18.998403          0.00000000  0.00000000  2.02364423
	      11.000000            22.989769          0.00000000  0.00000000 -1.67230947

	 - Coordinate -           - BOHR/RAD -       - ANG/DEG -
	 R(1,2)           =         3.695954           1.955814

	        --- Internal Coordinate Step in ANG or DEG, aJ/ANG or AJ/DEG ---
	-------------------------------------------------------------------------------
	           Coordinate      Previous         Force          Change          New
	           ----------      --------        ------          ------        ------
	               R(1,2)       1.95581        0.00094        0.00053       1.95634
	-------------------------------------------------------------------------------

	                                 ==> Convergence Check <==

	Measures of convergence in internal coordinates in au.

	Criteria marked as inactive (o), active & met (*), and active & unmet ( ).

	----------------------------------------------------------------------------------------------
	   Step    Total Energy     Delta E     Max Force     RMS Force      Max Disp      RMS Disp
	----------------------------------------------------------------------------------------------
	  Convergence Criteria     1.00e-06 *    3.00e-04 *             o    1.20e-03 *             o
	----------------------------------------------------------------------------------------------
	    12    -262.20406826   -2.09e-06      1.14e-04 *    1.14e-04 o    1.00e-03 *    1.00e-03 o  ~
	----------------------------------------------------------------------------------------------

Next Geometry in Ang
	Fragment 1 (Ang)

	    F   0.0000000000   0.0000000000   1.0711315979
	   Na   0.0000000000   0.0000000000  -0.8852132513

    Final optimized geometry and variables:
    Molecular point group: c2v
    Full point group: C_inf_v

    Geometry (in Angstrom), charge = -1, multiplicity = 2:

    F            0.000000000000     0.000000000000     1.070866406632
    NA           0.000000000000     0.000000000000    -0.884948060029

    Psi4 stopped on: Thursday, 17 July 2025 10:50AM
    Psi4 wall time for execution: 0:00:15.39

*** Psi4 exiting successfully. Buy a developer a beer!
