                               Psi4 1.9.1 release

  ==> Input File <==

--------------------------------------------------------------------------
molecule {
-1 2
Ne   0.00000        0.60000        0.00000
Si   0.00000       -0.60000        0.00000
}

set {
basis              cc-pvdz
reference          uks
maxiter            500
geom_maxiter       500
DAMPING_PERCENTAGE 1
guess              SAP
}

optimize('b3lyp')
--------------------------------------------------------------------------

    Molecular point group: c2v
  Charge       = -1
  Multiplicity = 2
  Basis Set: CC-PVDZ
    Blend: CC-PVDZ
  Basis Set: (CC-PVDZ AUX)
    Blend: CC-PVDZ-JKFIT
  @DF-UKS Final Energy:  -417.75492492866334
    Total Energy =                       -417.7549249286633426
 Dipole X            :          0.0000000            0.0000000            0.0000000
 Dipole Y            :          0.0000000            0.0000000            0.0000000
 Dipole Z            :          2.3462198           -0.0059043            2.3403155
 Magnitude           :                                                    2.3403155
    Molecular point group: c2v
  Basis Set: CC-PVDZ
    Blend: CC-PVDZ
  Basis Set: (CC-PVDZ AUX)
    Blend: CC-PVDZ-JKFIT
  Basis Set: CC-PVDZ
    Blend: CC-PVDZ
  Basis Set: (CC-PVDZ AUX)
    Blend: CC-PVDZ-JKFIT
  @DF-UKS Final Energy:  -417.97903748078807
    Total Energy =                       -417.9790374807881221
  Basis Set: CC-PVDZ
    Blend: CC-PVDZ
  Basis Set: (CC-PVDZ AUX)
    Blend: CC-PVDZ-JKFIT
  Basis Set: CC-PVDZ
    Blend: CC-PVDZ
  @DF-UKS Final Energy:  -418.10996963434343
    Total Energy =                       -418.1099696343434289
  @DF-UKS Final Energy:  -418.18510433366896
    Total Energy =                       -418.1851043336689600
  @DF-UKS Final Energy:  -418.22805379104602
    Total Energy =                       -418.2280537910459657
  @DF-UKS Final Energy:  -418.25318746571810
    Total Energy =                       -418.2531874657180992
  @DF-UKS Final Energy:  -418.26775990482236
    Total Energy =                       -418.2677599048223556
  @DF-UKS Final Energy:  -418.27590246831147
    Total Energy =                       -418.2759024683114149
  @DF-UKS Final Energy:  -418.28013698971006
    Total Energy =                       -418.2801369897100585
  @DF-UKS Final Energy:  -418.28212475321283
    Total Energy =                       -418.2821247532128268
  @DF-UKS Final Energy:  -418.28293675578703
    Total Energy =                       -418.2829367557870341
  @DF-UKS Final Energy:  -418.28320766137756
    Total Energy =                       -418.2832076613775598
  @DF-UKS Final Energy:  -418.28327298050215
    Total Energy =                       -418.2832729805021472
  @DF-UKS Final Energy:  -418.28328153759122
    Total Energy =                       -418.2832815375912787
  Basis Set: (CC-PVDZ AUX)
    Blend: CC-PVDZ-JKFIT
  Basis Set: CC-PVDZ
    Blend: CC-PVDZ
  Basis Set: (CC-PVDZ AUX)
    Blend: CC-PVDZ-JKFIT
  @DF-UKS Final Energy:  -418.28328299678793
    Total Energy =                       -418.2832829967879320
  Basis Set: CC-PVDZ
    Blend: CC-PVDZ
  Basis Set: (CC-PVDZ AUX)
    Blend: CC-PVDZ-JKFIT
  Charge       = -1
  Multiplicity = 2
  Basis Set: CC-PVDZ
    Blend: CC-PVDZ
  Basis Set: (CC-PVDZ AUX)
    Blend: CC-PVDZ-JKFIT

    Orbital Energies [Eh]
    ---------------------

    Alpha Occupied:

       1A1   -65.872899     2A1   -30.825225     3A1    -5.013197
       4A1    -3.377542     1B2    -3.373872     1B1    -3.363769
       5A1    -1.289651     6A1    -0.399189     2B2    -0.398056
       2B1    -0.397660     7A1    -0.158740     3B2     0.070757
       3B1     0.103148

    Alpha Virtual:

       8A1     0.134593     9A1     0.488246     4B2     0.544979
      10A1     0.561760     4B1     0.570250     5B2     0.613834
      11A1     0.616301     1A2     0.636165     5B1     0.640703
      12A1     0.648696     6B2     1.505686     6B1     1.506512
      13A1     1.553708    14A1     2.029931     7B2     4.867299
       2A2     4.867529     7B1     4.867539    15A1     4.867793
      16A1     4.868402

    Beta Occupied:

       1A1   -65.870642     2A1   -30.825203     3A1    -5.010668
       4A1    -3.376302     1B2    -3.365352     1B1    -3.362405
       5A1    -1.289619     6A1    -0.399201     2B2    -0.397949
       2B1    -0.397655     7A1    -0.128950     3B1     0.110923

    Beta Virtual:

       8A1     0.142988     3B2     0.169193     9A1     0.501067
      10A1     0.565792     4B1     0.574430     4B2     0.580641
      11A1     0.640915     5B1     0.643592     5B2     0.654008
       1A2     0.670740    12A1     0.675318     6B2     1.505787
       6B1     1.506491    13A1     1.554006    14A1     2.030317
       7B2     4.867339     7B1     4.867537     2A2     4.867577
      15A1     4.867849    16A1     4.868404

    Final Occupation by Irrep:
             A1    A2    B1    B2
    DOCC [     7,    0,    3,    2 ]
    SOCC [     0,    0,    0,    1 ]
    NA   [     7,    0,    3,    3 ]
    NB   [     7,    0,    3,    2 ]

  @DF-UKS Final Energy:  -418.28328330892100

   => Energetics <=

    Nuclear Repulsion Energy =             23.7126888850729891
    One-Electron Energy =                -636.0662346922114239
    Two-Electron Energy =                 221.1277860951995535
    DFT Exchange-Correlation Energy =     -27.0575235969821541
    Empirical Dispersion Energy =           0.0000000000000000
    VV10 Nonlocal Energy =                  0.0000000000000000
    Total Energy =                       -418.2832833089209998

  UHF NO Occupations:
  HONO-2 :    3 B1 1.9999887
  HONO-1 :    7 A1 1.9986890
  HONO-0 :    3 B2 1.0000000
  LUNO+0 :    8 A1 0.0013110
  LUNO+1 :    4 B1 0.0000113
  LUNO+2 :    9 A1 0.0000001
  LUNO+3 :    4 B2 0.0000000

Computation Completed

Properties will be evaluated at   0.000000,   0.000000,   0.000000 [a0]

Properties computed using the SCF density matrix

 Multipole Moments:

 ------------------------------------------------------------------------------------
     Multipole            Electronic (a.u.)      Nuclear  (a.u.)        Total (a.u.)
 ------------------------------------------------------------------------------------

 L = 1.  Multiply by 2.5417464519 to convert [e a0] to [Debye]
 Dipole X            :          0.0000000            0.0000000            0.0000000
 Dipole Y            :          0.0000000            0.0000000            0.0000000
 Dipole Z            :          2.5316769           -0.0153722            2.5163048
 Magnitude           :                                                    2.5163048

 ------------------------------------------------------------------------------------

*** tstop() called on Joses-MacBook-Pro-2.local at Thu Jul 17 11:00:48 2025
Module time:
	user time   =       3.13 seconds =       0.05 minutes
	system time =       2.47 seconds =       0.04 minutes
	total time  =          1 seconds =       0.02 minutes
Total time:
	user time   =      74.62 seconds =       1.24 minutes
	system time =      90.45 seconds =       1.51 minutes
	total time  =         17 seconds =       0.28 minutes

*** tstart() called on Joses-MacBook-Pro-2.local
*** at Thu Jul 17 11:00:48 2025

         ------------------------------------------------------------
                                   SCF GRAD
                          Rob Parrish, Justin Turney,
                       Andy Simmonett, and Alex Sokolov
         ------------------------------------------------------------

  ==> Geometry <==

    Molecular point group: c2v
    Full point group: C_inf_v

    Geometry (in Angstrom), charge = -1, multiplicity = 2:

       Center              X                  Y                   Z               Mass
    ------------   -----------------  -----------------  -----------------  -----------------
         NE           0.000000000000     0.000000000000     1.822151079169    19.992440176200
         SI           0.000000000000     0.000000000000    -1.302117528784    27.976926534650

  Nuclear repulsion =   23.712688885072989

  ==> Basis Set <==

  Basis Set: CC-PVDZ
    Blend: CC-PVDZ
    Number of shells: 14
    Number of basis functions: 32
    Number of Cartesian functions: 34
    Spherical Harmonics?: true
    Max angular momentum: 2

  ==> DFJKGrad: Density-Fitted SCF Gradients <==

    Gradient:                    1
    J tasked:                  Yes
    K tasked:                  Yes
    wK tasked:                  No
    OpenMP threads:              1
    Integrals threads:           1
    Memory [MiB]:              375
    Schwarz Cutoff:          1E-12
    Fitting Condition:       1E-10

   => Auxiliary Basis Set <=

  Basis Set: (CC-PVDZ AUX)
    Blend: CC-PVDZ-JKFIT
    Number of shells: 60
    Number of basis functions: 182
    Number of Cartesian functions: 211
    Spherical Harmonics?: true
    Max angular momentum: 3

  ==> DFT Potential <==

   => LibXC <=

    Version 6.2.2
    S. Lehtola, C. Steigemann, M. J.T. Oliveira, and M. A.L. Marques.,  SoftwareX 7, 1â€“5 (2018) (10.1016/j.softx.2017.11.002)

   => Composite Functional: B3LYP <=

    B3LYP Hyb-GGA Exchange-Correlation Functional

    P. J. Stephens, F. J. Devlin, C. F. Chabalowski, and M. J. Frisch.,  J. Phys. Chem. 98, 11623 (1994) (10.1021/j100096a001)

    Deriv               =              1
    GGA                 =           TRUE
    Meta                =          FALSE

    Exchange Hybrid     =           TRUE
    MP2 Hybrid          =          FALSE

   => Exchange Functionals <=

    0.0800   Slater exchange
    0.7200         Becke 88

   => Exact (HF) Exchange <=

    0.2000               HF

   => Correlation Functionals <=

    0.1900   Vosko, Wilk & Nusair (VWN5_RPA)
    0.8100   Lee, Yang & Parr

   => LibXC Density Thresholds  <==

    XC_HYB_GGA_XC_B3LYP:  1.00E-15

   => Molecular Quadrature <=

    Radial Scheme          =       TREUTLER
    Pruning Scheme         =           NONE
    Nuclear Scheme         =       TREUTLER

    Blocking Scheme        =         OCTREE
    BS radius alpha        =              1
    Pruning alpha          =              1
    Radial Points          =             75
    Spherical Points       =            302
    Total Points           =          43041
    Total Blocks           =            396
    Max Points             =            250
    Max Functions          =             32
    Weights Tolerance      =       1.00E-15

  -Total Gradient:
     Atom            X                  Y                   Z
    ------   -----------------  -----------------  -----------------
       1       -0.000000000000     0.000000000000    -0.000019485042
       2        0.000000000000    -0.000000000000    -0.000001057537

*** tstop() called on Joses-MacBook-Pro-2.local at Thu Jul 17 11:00:48 2025
Module time:
	user time   =       1.14 seconds =       0.02 minutes
	system time =       1.17 seconds =       0.02 minutes
	total time  =          0 seconds =       0.00 minutes
Total time:
	user time   =      75.77 seconds =       1.26 minutes
	system time =      91.62 seconds =       1.53 minutes
	total time  =         17 seconds =       0.28 minutes

    			-----------------------------------------

    			 OPTKING 3.0: for geometry optimizations

    			     By R.A. King, Bethel University

    			        with contributions from

    			    A.V. Copan, J. Cayton, A. Heide

    			-----------------------------------------

	                            ===> Fragment 1 <==

	 Z (Atomic Numbers)          Masses                          Geom
	      10.000000            19.992440          0.00000000  0.00000000  3.44336650
	      14.000000            27.976927          0.00000000  0.00000000 -2.46064551

	 - Coordinate -           - BOHR/RAD -       - ANG/DEG -
	 R(1,2)           =         5.904012           3.124269

	        --- Internal Coordinate Step in ANG or DEG, aJ/ANG or AJ/DEG ---
	-------------------------------------------------------------------------------
	           Coordinate      Previous         Force          Change          New
	           ----------      --------        ------          ------        ------
	               R(1,2)       3.12427        0.00008        0.00153       3.12580
	-------------------------------------------------------------------------------

	                                 ==> Convergence Check <==

	Measures of convergence in internal coordinates in au.

	Criteria marked as inactive (o), active & met (*), and active & unmet ( ).

	----------------------------------------------------------------------------------------------
	   Step    Total Energy     Delta E     Max Force     RMS Force      Max Disp      RMS Disp
	----------------------------------------------------------------------------------------------
	  Convergence Criteria     1.00e-06 *    3.00e-04 *             o    1.20e-03 *             o
	----------------------------------------------------------------------------------------------
	    16    -418.28328331   -3.12e-07 *    9.21e-06 *    9.21e-06 o    2.89e-03      2.89e-03 o  ~
	----------------------------------------------------------------------------------------------

Next Geometry in Ang
	Fragment 1 (Ang)

	   Ne   0.0000000000   0.0000000000   1.8229159151
	   Si   0.0000000000   0.0000000000  -1.3028823647

    Final optimized geometry and variables:
    Molecular point group: c2v
    Full point group: C_inf_v

    Geometry (in Angstrom), charge = -1, multiplicity = 2:

    NE           0.000000000000     0.000000000000     1.822151079169
    SI           0.000000000000     0.000000000000    -1.302117528784

    Psi4 stopped on: Thursday, 17 July 2025 11:00AM
    Psi4 wall time for execution: 0:00:17.46

*** Psi4 exiting successfully. Buy a developer a beer!
