                               Psi4 1.9.1 release

  ==> Input File <==

--------------------------------------------------------------------------
molecule {
-1 2
O   0.00000        0.60000        0.00000
Si   0.00000       -0.60000        0.00000
}

set {
basis              cc-pvdz
reference          uks
maxiter            500
geom_maxiter       500
DAMPING_PERCENTAGE 1
guess              SAP
}

optimize('b3lyp')
--------------------------------------------------------------------------

    Molecular point group: c2v
  Charge       = -1
  Multiplicity = 2
  Basis Set: CC-PVDZ
    Blend: CC-PVDZ
  Basis Set: (CC-PVDZ AUX)
    Blend: CC-PVDZ-JKFIT
  @DF-UKS Final Energy:  -364.44518507761364
    Total Energy =                       -364.4451850776136439
 Dipole X            :          0.0000000            0.0000000            0.0000000
 Dipole Y            :          0.0000000            0.0000000            0.0000000
 Dipole Z            :          0.2653131           -0.0058478            0.2594654
 Magnitude           :                                                    0.2594654
    Molecular point group: c2v
  Basis Set: CC-PVDZ
    Blend: CC-PVDZ
  Basis Set: (CC-PVDZ AUX)
    Blend: CC-PVDZ-JKFIT
  Basis Set: CC-PVDZ
    Blend: CC-PVDZ
  Basis Set: (CC-PVDZ AUX)
    Blend: CC-PVDZ-JKFIT
  @DF-UKS Final Energy:  -364.61393553752498
    Total Energy =                       -364.6139355375249806
  Basis Set: CC-PVDZ
    Blend: CC-PVDZ
  Basis Set: (CC-PVDZ AUX)
    Blend: CC-PVDZ-JKFIT
  Basis Set: CC-PVDZ
    Blend: CC-PVDZ
  @DF-UKS Final Energy:  -364.68129628652167
    Total Energy =                       -364.6812962865216718
  @DF-UKS Final Energy:  -364.70118784798876
    Total Energy =                       -364.7011878479887059
  @DF-UKS Final Energy:  -364.71028774059909
    Total Energy =                       -364.7102877405990853
  @DF-UKS Final Energy:  -364.71244770506894
    Total Energy =                       -364.7124477050688824
  @DF-UKS Final Energy:  -364.71302503417053
    Total Energy =                       -364.7130250341705278
  @DF-UKS Final Energy:  -364.71322462797031
    Total Energy =                       -364.7132246279703054
  Basis Set: (CC-PVDZ AUX)
    Blend: CC-PVDZ-JKFIT
  Basis Set: CC-PVDZ
    Blend: CC-PVDZ
  Basis Set: (CC-PVDZ AUX)
    Blend: CC-PVDZ-JKFIT
  @DF-UKS Final Energy:  -364.71325622019179
    Total Energy =                       -364.7132562201918518
  Basis Set: CC-PVDZ
    Blend: CC-PVDZ
  Basis Set: (CC-PVDZ AUX)
    Blend: CC-PVDZ-JKFIT
  Charge       = -1
  Multiplicity = 2
  Basis Set: CC-PVDZ
    Blend: CC-PVDZ
  Basis Set: (CC-PVDZ AUX)
    Blend: CC-PVDZ-JKFIT

    Orbital Energies [Eh]
    ---------------------

    Alpha Occupied:

       1A1   -65.875927     2A1   -18.847805     3A1    -5.020832
       1B2    -3.381845     1B1    -3.379062     4A1    -3.376480
       5A1    -0.652322     6A1    -0.173030     2B1    -0.064217
       2B2    -0.051440     7A1    -0.040847     3B1     0.114621

    Alpha Virtual:

       3B2     0.173691     8A1     0.281908     9A1     0.485024
       4B1     0.539153     4B2     0.542541     1A2     0.611891
      10A1     0.614174    11A1     0.619704     5B1     0.702187
       5B2     0.705710    12A1     0.932922     6B1     1.278027
       6B2     1.281436    13A1     1.293623    14A1     1.983289
       2A2     2.888576    15A1     2.889011     7B2     2.990447
       7B1     2.990806    16A1     3.322273

    Beta Occupied:

       1A1   -65.874319     2A1   -18.841200     3A1    -5.019030
       1B2    -3.380965     4A1    -3.375676     1B1    -3.372869
       5A1    -0.637394     6A1    -0.155708     2B2    -0.045908
       2B1    -0.026163     7A1    -0.026139

    Beta Virtual:

       3B2     0.181484     3B1     0.207171     8A1     0.289267
       9A1     0.495781     4B2     0.545723     4B1     0.566235
      10A1     0.622111     1A2     0.641779    11A1     0.644617
       5B2     0.707607     5B1     0.730738    12A1     0.941404
       6B2     1.285225    13A1     1.299044     6B1     1.300032
      14A1     1.990917    15A1     2.907974     2A2     2.908096
       7B2     2.993933     7B1     3.010115    16A1     3.332256

    Final Occupation by Irrep:
             A1    A2    B1    B2
    DOCC [     7,    0,    2,    2 ]
    SOCC [     0,    0,    1,    0 ]
    NA   [     7,    0,    3,    2 ]
    NB   [     7,    0,    2,    2 ]

  @DF-UKS Final Energy:  -364.71325861374771

   => Energetics <=

    Nuclear Repulsion Energy =             36.9079759458964176
    One-Electron Energy =                -584.6228180610994514
    Two-Electron Energy =                 206.9636283150580596
    DFT Exchange-Correlation Energy =     -23.9620448136026774
    Empirical Dispersion Energy =           0.0000000000000000
    VV10 Nonlocal Energy =                  0.0000000000000000
    Total Energy =                       -364.7132586137477119

  UHF NO Occupations:
  HONO-2 :    2 B1 1.9995407
  HONO-1 :    7 A1 1.9989712
  HONO-0 :    3 B1 1.0000000
  LUNO+0 :    8 A1 0.0010288
  LUNO+1 :    4 B1 0.0004593
  LUNO+2 :    9 A1 0.0000355
  LUNO+3 :    3 B2 0.0000145

Computation Completed

Properties will be evaluated at   0.000000,   0.000000,   0.000000 [a0]

Properties computed using the SCF density matrix

 Multipole Moments:

 ------------------------------------------------------------------------------------
     Multipole            Electronic (a.u.)      Nuclear  (a.u.)        Total (a.u.)
 ------------------------------------------------------------------------------------

 L = 1.  Multiply by 2.5417464519 to convert [e a0] to [Debye]
 Dipole X            :          0.0000000            0.0000000            0.0000000
 Dipole Y            :          0.0000000            0.0000000            0.0000000
 Dipole Z            :         -0.1376778           -0.0078254           -0.1455032
 Magnitude           :                                                    0.1455032

 ------------------------------------------------------------------------------------

*** tstop() called on Joses-MacBook-Pro-2.local at Thu Jul 17 10:42:39 2025
Module time:
	user time   =       3.23 seconds =       0.05 minutes
	system time =       3.68 seconds =       0.06 minutes
	total time  =          1 seconds =       0.02 minutes
Total time:
	user time   =      54.96 seconds =       0.92 minutes
	system time =      56.36 seconds =       0.94 minutes
	total time  =         12 seconds =       0.20 minutes

*** tstart() called on Joses-MacBook-Pro-2.local
*** at Thu Jul 17 10:42:39 2025

         ------------------------------------------------------------
                                   SCF GRAD
                          Rob Parrish, Justin Turney,
                       Andy Simmonett, and Alex Sokolov
         ------------------------------------------------------------

  ==> Geometry <==

    Molecular point group: c2v
    Full point group: C_inf_v

    Geometry (in Angstrom), charge = -1, multiplicity = 2:

       Center              X                  Y                   Z               Mass
    ------------   -----------------  -----------------  -----------------  -----------------
         O            0.000000000000     0.000000000000     1.021702082362    15.994914619570
         SI           0.000000000000     0.000000000000    -0.584125549094    27.976926534650

  Nuclear repulsion =   36.907975945896418

  ==> Basis Set <==

  Basis Set: CC-PVDZ
    Blend: CC-PVDZ
    Number of shells: 14
    Number of basis functions: 32
    Number of Cartesian functions: 34
    Spherical Harmonics?: true
    Max angular momentum: 2

  ==> DFJKGrad: Density-Fitted SCF Gradients <==

    Gradient:                    1
    J tasked:                  Yes
    K tasked:                  Yes
    wK tasked:                  No
    OpenMP threads:              1
    Integrals threads:           1
    Memory [MiB]:              375
    Schwarz Cutoff:          1E-12
    Fitting Condition:       1E-10

   => Auxiliary Basis Set <=

  Basis Set: (CC-PVDZ AUX)
    Blend: CC-PVDZ-JKFIT
    Number of shells: 60
    Number of basis functions: 182
    Number of Cartesian functions: 211
    Spherical Harmonics?: true
    Max angular momentum: 3

  ==> DFT Potential <==

   => LibXC <=

    Version 6.2.2
    S. Lehtola, C. Steigemann, M. J.T. Oliveira, and M. A.L. Marques.,  SoftwareX 7, 1â€“5 (2018) (10.1016/j.softx.2017.11.002)

   => Composite Functional: B3LYP <=

    B3LYP Hyb-GGA Exchange-Correlation Functional

    P. J. Stephens, F. J. Devlin, C. F. Chabalowski, and M. J. Frisch.,  J. Phys. Chem. 98, 11623 (1994) (10.1021/j100096a001)

    Deriv               =              1
    GGA                 =           TRUE
    Meta                =          FALSE

    Exchange Hybrid     =           TRUE
    MP2 Hybrid          =          FALSE

   => Exchange Functionals <=

    0.0800   Slater exchange
    0.7200         Becke 88

   => Exact (HF) Exchange <=

    0.2000               HF

   => Correlation Functionals <=

    0.1900   Vosko, Wilk & Nusair (VWN5_RPA)
    0.8100   Lee, Yang & Parr

   => LibXC Density Thresholds  <==

    XC_HYB_GGA_XC_B3LYP:  1.00E-15

   => Molecular Quadrature <=

    Radial Scheme          =       TREUTLER
    Pruning Scheme         =           NONE
    Nuclear Scheme         =       TREUTLER

    Blocking Scheme        =         OCTREE
    BS radius alpha        =              1
    Pruning alpha          =              1
    Radial Points          =             75
    Spherical Points       =            302
    Total Points           =          42704
    Total Blocks           =            393
    Max Points             =            254
    Max Functions          =             32
    Weights Tolerance      =       1.00E-15

  -Total Gradient:
     Atom            X                  Y                   Z
    ------   -----------------  -----------------  -----------------
       1        0.000000000000    -0.000000000000    -0.000233421868
       2        0.000000000000    -0.000000000000     0.000196359776

*** tstop() called on Joses-MacBook-Pro-2.local at Thu Jul 17 10:42:39 2025
Module time:
	user time   =       1.00 seconds =       0.02 minutes
	system time =       1.30 seconds =       0.02 minutes
	total time  =          0 seconds =       0.00 minutes
Total time:
	user time   =      55.96 seconds =       0.93 minutes
	system time =      57.66 seconds =       0.96 minutes
	total time  =         12 seconds =       0.20 minutes

    			-----------------------------------------

    			 OPTKING 3.0: for geometry optimizations

    			     By R.A. King, Bethel University

    			        with contributions from

    			    A.V. Copan, J. Cayton, A. Heide

    			-----------------------------------------

	                            ===> Fragment 1 <==

	 Z (Atomic Numbers)          Masses                          Geom
	       8.000000            15.994915          0.00000000  0.00000000  1.93073712
	      14.000000            27.976927          0.00000000  0.00000000 -1.10383731

	 - Coordinate -           - BOHR/RAD -       - ANG/DEG -
	 R(1,2)           =         3.034574           1.605828

	        --- Internal Coordinate Step in ANG or DEG, aJ/ANG or AJ/DEG ---
	-------------------------------------------------------------------------------
	           Coordinate      Previous         Force          Change          New
	           ----------      --------        ------          ------        ------
	               R(1,2)       1.60583        0.00177        0.00026       1.60609
	-------------------------------------------------------------------------------

	                                 ==> Convergence Check <==

	Measures of convergence in internal coordinates in au.

	Criteria marked as inactive (o), active & met (*), and active & unmet ( ).

	----------------------------------------------------------------------------------------------
	   Step    Total Energy     Delta E     Max Force     RMS Force      Max Disp      RMS Disp
	----------------------------------------------------------------------------------------------
	  Convergence Criteria     1.00e-06 *    3.00e-04 *             o    1.20e-03 *             o
	----------------------------------------------------------------------------------------------
	    10    -364.71325861   -2.39e-06      2.15e-04 *    2.15e-04 o    4.90e-04 *    4.90e-04 o  ~
	----------------------------------------------------------------------------------------------

Next Geometry in Ang
	Fragment 1 (Ang)

	    O   0.0000000000   0.0000000000   1.0218316790
	   Si   0.0000000000   0.0000000000  -0.5842551457

    Final optimized geometry and variables:
    Molecular point group: c2v
    Full point group: C_inf_v

    Geometry (in Angstrom), charge = -1, multiplicity = 2:

    O            0.000000000000     0.000000000000     1.021702082362
    SI           0.000000000000     0.000000000000    -0.584125549094

    Psi4 stopped on: Thursday, 17 July 2025 10:42AM
    Psi4 wall time for execution: 0:00:12.05

*** Psi4 exiting successfully. Buy a developer a beer!
