                               Psi4 1.9.1 release

  ==> Input File <==

--------------------------------------------------------------------------
molecule {
-1 2
S   0.00000        0.60000        0.00000
S   0.00000       -0.60000        0.00000
}

set {
basis              cc-pvdz
reference          uks
maxiter            500
geom_maxiter       500
DAMPING_PERCENTAGE 1
guess              SAP
}

optimize('b3lyp')
--------------------------------------------------------------------------

    Molecular point group: d2h
  Charge       = -1
  Multiplicity = 2
  Basis Set: CC-PVDZ
    Blend: CC-PVDZ
  Basis Set: (CC-PVDZ AUX)
    Blend: CC-PVDZ-JKFIT
  @DF-UKS Final Energy:  -795.13514662599118
    Total Energy =                       -795.1351466259911831
 Dipole X            :          0.0000000            0.0000000            0.0000000
 Dipole Y            :          0.0000000            0.0000000            0.0000000
 Dipole Z            :          0.0000000            0.0000000            0.0000000
 Magnitude           :                                                    0.0000000
    Molecular point group: d2h
  Basis Set: CC-PVDZ
    Blend: CC-PVDZ
  Basis Set: (CC-PVDZ AUX)
    Blend: CC-PVDZ-JKFIT
  Basis Set: CC-PVDZ
    Blend: CC-PVDZ
  Basis Set: (CC-PVDZ AUX)
    Blend: CC-PVDZ-JKFIT
  @DF-UKS Final Energy:  -795.18177442775038
    Total Energy =                       -795.1817744277503834
  Basis Set: CC-PVDZ
    Blend: CC-PVDZ
  Basis Set: (CC-PVDZ AUX)
    Blend: CC-PVDZ-JKFIT
  Basis Set: CC-PVDZ
    Blend: CC-PVDZ
  @DF-UKS Final Energy:  -795.26787513861382
    Total Energy =                       -795.2678751386138174
  @DF-UKS Final Energy:  -795.54431052361383
    Total Energy =                       -795.5443105236138308
  @DF-UKS Final Energy:  -796.08518735266227
    Total Energy =                       -796.0851873526622740
  @DF-UKS Final Energy:  -796.26523198672942
    Total Energy =                       -796.2652319867294182
  @DF-UKS Final Energy:  -796.37505161180707
    Total Energy =                       -796.3750516118070664
  @DF-UKS Final Energy:  -796.41744867627710
    Total Energy =                       -796.4174486762771039
  @DF-UKS Final Energy:  -796.43816062226267
    Total Energy =                       -796.4381606222626715
  @DF-UKS Final Energy:  -796.44708131452717
    Total Energy =                       -796.4470813145271677
  @DF-UKS Final Energy:  -796.44934072018759
    Total Energy =                       -796.4493407201875925
  @DF-UKS Final Energy:  -796.45010576131006
    Total Energy =                       -796.4501057613099420
  @DF-UKS Final Energy:  -796.45025196381118
    Total Energy =                       -796.4502519638111835
  Basis Set: (CC-PVDZ AUX)
    Blend: CC-PVDZ-JKFIT
  Basis Set: CC-PVDZ
    Blend: CC-PVDZ
  Basis Set: (CC-PVDZ AUX)
    Blend: CC-PVDZ-JKFIT
  @DF-UKS Final Energy:  -796.45028547029540
    Total Energy =                       -796.4502854702952845
  Basis Set: CC-PVDZ
    Blend: CC-PVDZ
  Basis Set: (CC-PVDZ AUX)
    Blend: CC-PVDZ-JKFIT
  Charge       = -1
  Multiplicity = 2
  Basis Set: CC-PVDZ
    Blend: CC-PVDZ
  Basis Set: (CC-PVDZ AUX)
    Blend: CC-PVDZ-JKFIT

    Orbital Energies [Eh]
    ---------------------

    Alpha Occupied:

       1Ag   -88.631057     1B2u  -88.631056     2B2u   -7.690487
       2Ag    -7.690436     3Ag    -5.654826     3B2u   -5.654562
       1B3u   -5.654452     1B1g   -5.654436     1B1u   -5.644133
       1B3g   -5.644117     4Ag    -0.512867     4B2u   -0.353029
       5Ag    -0.109628     2B3u   -0.087498     2B1u   -0.062338
       2B1g    0.014814     2B3g    0.042256

    Alpha Virtual:

       5B2u    0.221975     6Ag     0.598229     6B2u    0.679354
       7Ag     0.693100     3B3u    0.699413     4B3u    0.709476
       3B1u    0.719525     4B1u    0.729918     3B1g    0.738870
       3B3g    0.757488     1B2g    0.814779     8Ag     0.815186
       7B2u    0.882702     1Au     0.885554     8B2u    0.896732
       9Ag     1.030824     4B1g    1.068051     4B3g    1.090512
       9B2u    1.444084

    Beta Occupied:

       1Ag   -88.628291     1B2u  -88.628290     2B2u   -7.687673
       2Ag    -7.687630     3Ag    -5.653267     3B2u   -5.652999
       1B3u   -5.645144     1B1g   -5.645125     1B1u   -5.642471
       1B3g   -5.642453     4Ag    -0.497107     4B2u   -0.327032
       5Ag    -0.099950     2B1u   -0.056402     2B3u   -0.043869
       2B3g    0.049980

    Beta Virtual:

       2B1g    0.109669     5B2u    0.231060     6Ag     0.604825
       6B2u    0.684487     7Ag     0.701605     3B3u    0.720792
       3B1u    0.722178     4B1u    0.733652     4B3u    0.735936
       3B3g    0.761487     3B1g    0.763799     1B2g    0.839391
       8Ag     0.840503     7B2u    0.904173     1Au     0.912688
       8B2u    0.913932     9Ag     1.038369     4B3g    1.094079
       4B1g    1.094783     9B2u    1.454517

    Final Occupation by Irrep:
             Ag   B1g   B2g   B3g    Au   B1u   B2u   B3u
    DOCC [     5,    1,    0,    2,    0,    2,    4,    2 ]
    SOCC [     0,    1,    0,    0,    0,    0,    0,    0 ]
    NA   [     5,    2,    0,    2,    0,    2,    4,    2 ]
    NB   [     5,    1,    0,    2,    0,    2,    4,    2 ]

  @DF-UKS Final Energy:  -796.45028926190332

   => Energetics <=

    Nuclear Repulsion Energy =             65.7538437177125843
    One-Electron Energy =               -1239.7265258386496498
    Two-Electron Energy =                 419.1117414523258731
    DFT Exchange-Correlation Energy =     -41.5893485932922715
    Empirical Dispersion Energy =           0.0000000000000000
    VV10 Nonlocal Energy =                  0.0000000000000000
    Total Energy =                       -796.4502892619033219

  UHF NO Occupations:
  HONO-2 :    4B2u 1.9996744
  HONO-1 :    2B3u 1.9993986
  HONO-0 :    2B1g 1.0000000
  LUNO+0 :    3B3u 0.0006014
  LUNO+1 :    5B2u 0.0003256
  LUNO+2 :    6 Ag 0.0002484
  LUNO+3 :    3B1u 0.0000107

Computation Completed

Properties will be evaluated at   0.000000,   0.000000,   0.000000 [a0]

Properties computed using the SCF density matrix

 Multipole Moments:

 ------------------------------------------------------------------------------------
     Multipole            Electronic (a.u.)      Nuclear  (a.u.)        Total (a.u.)
 ------------------------------------------------------------------------------------

 L = 1.  Multiply by 2.5417464519 to convert [e a0] to [Debye]
 Dipole X            :          0.0000000            0.0000000            0.0000000
 Dipole Y            :          0.0000000            0.0000000            0.0000000
 Dipole Z            :          0.0000000            0.0000000            0.0000000
 Magnitude           :                                                    0.0000000

 ------------------------------------------------------------------------------------

*** tstop() called on Joses-MacBook-Pro-2.local at Thu Jul 17 12:05:25 2025
Module time:
	user time   =       6.74 seconds =       0.11 minutes
	system time =       1.73 seconds =       0.03 minutes
	total time  =          1 seconds =       0.02 minutes
Total time:
	user time   =     153.48 seconds =       2.56 minutes
	system time =      43.07 seconds =       0.72 minutes
	total time  =         19 seconds =       0.32 minutes

*** tstart() called on Joses-MacBook-Pro-2.local
*** at Thu Jul 17 12:05:25 2025

         ------------------------------------------------------------
                                   SCF GRAD
                          Rob Parrish, Justin Turney,
                       Andy Simmonett, and Alex Sokolov
         ------------------------------------------------------------

  ==> Geometry <==

    Molecular point group: d2h
    Full point group: D_inf_h

    Geometry (in Angstrom), charge = -1, multiplicity = 2:

       Center              X                  Y                   Z               Mass
    ------------   -----------------  -----------------  -----------------  -----------------
         S           -0.000000000000     1.030125071571     0.000000000000    31.972071174400
         S            0.000000000000    -1.030125071571     0.000000000000    31.972071174400

  Nuclear repulsion =   65.753843717712613

  ==> Basis Set <==

  Basis Set: CC-PVDZ
    Blend: CC-PVDZ
    Number of shells: 16
    Number of basis functions: 36
    Number of Cartesian functions: 38
    Spherical Harmonics?: true
    Max angular momentum: 2

  ==> DFJKGrad: Density-Fitted SCF Gradients <==

    Gradient:                    1
    J tasked:                  Yes
    K tasked:                  Yes
    wK tasked:                  No
    OpenMP threads:              1
    Integrals threads:           1
    Memory [MiB]:              375
    Schwarz Cutoff:          1E-12
    Fitting Condition:       1E-10

   => Auxiliary Basis Set <=

  Basis Set: (CC-PVDZ AUX)
    Blend: CC-PVDZ-JKFIT
    Number of shells: 72
    Number of basis functions: 224
    Number of Cartesian functions: 260
    Spherical Harmonics?: true
    Max angular momentum: 3

  ==> DFT Potential <==

   => LibXC <=

    Version 6.2.2
    S. Lehtola, C. Steigemann, M. J.T. Oliveira, and M. A.L. Marques.,  SoftwareX 7, 1â€“5 (2018) (10.1016/j.softx.2017.11.002)

   => Composite Functional: B3LYP <=

    B3LYP Hyb-GGA Exchange-Correlation Functional

    P. J. Stephens, F. J. Devlin, C. F. Chabalowski, and M. J. Frisch.,  J. Phys. Chem. 98, 11623 (1994) (10.1021/j100096a001)

    Deriv               =              1
    GGA                 =           TRUE
    Meta                =          FALSE

    Exchange Hybrid     =           TRUE
    MP2 Hybrid          =          FALSE

   => Exchange Functionals <=

    0.0800   Slater exchange
    0.7200         Becke 88

   => Exact (HF) Exchange <=

    0.2000               HF

   => Correlation Functionals <=

    0.1900   Vosko, Wilk & Nusair (VWN5_RPA)
    0.8100   Lee, Yang & Parr

   => LibXC Density Thresholds  <==

    XC_HYB_GGA_XC_B3LYP:  1.00E-15

   => Molecular Quadrature <=

    Radial Scheme          =       TREUTLER
    Pruning Scheme         =           NONE
    Nuclear Scheme         =       TREUTLER

    Blocking Scheme        =         OCTREE
    BS radius alpha        =              1
    Pruning alpha          =              1
    Radial Points          =             75
    Spherical Points       =            302
    Total Points           =          40232
    Total Blocks           =            370
    Max Points             =            254
    Max Functions          =             36
    Weights Tolerance      =       1.00E-15

  -Total Gradient:
     Atom            X                  Y                   Z
    ------   -----------------  -----------------  -----------------
       1        0.000000000000    -0.000235181773     0.000000000000
       2       -0.000000000000     0.000235181773     0.000000000000

*** tstop() called on Joses-MacBook-Pro-2.local at Thu Jul 17 12:05:25 2025
Module time:
	user time   =       2.50 seconds =       0.04 minutes
	system time =       0.83 seconds =       0.01 minutes
	total time  =          0 seconds =       0.00 minutes
Total time:
	user time   =     155.99 seconds =       2.60 minutes
	system time =      43.90 seconds =       0.73 minutes
	total time  =         19 seconds =       0.32 minutes

    			-----------------------------------------

    			 OPTKING 3.0: for geometry optimizations

    			     By R.A. King, Bethel University

    			        with contributions from

    			    A.V. Copan, J. Cayton, A. Heide

    			-----------------------------------------

	                            ===> Fragment 1 <==

	 Z (Atomic Numbers)          Masses                          Geom
	      16.000000            31.972071         -0.00000000  1.94665426  0.00000000
	      16.000000            31.972071          0.00000000 -1.94665426  0.00000000

	 - Coordinate -           - BOHR/RAD -       - ANG/DEG -
	 R(1,2)           =         3.893309           2.060250

	        --- Internal Coordinate Step in ANG or DEG, aJ/ANG or AJ/DEG ---
	-------------------------------------------------------------------------------
	           Coordinate      Previous         Force          Change          New
	           ----------      --------        ------          ------        ------
	               R(1,2)       2.06025        0.00194        0.00059       2.06084
	-------------------------------------------------------------------------------

	                                 ==> Convergence Check <==

	Measures of convergence in internal coordinates in au.

	Criteria marked as inactive (o), active & met (*), and active & unmet ( ).

	----------------------------------------------------------------------------------------------
	   Step    Total Energy     Delta E     Max Force     RMS Force      Max Disp      RMS Disp
	----------------------------------------------------------------------------------------------
	  Convergence Criteria     1.00e-06 *    3.00e-04 *             o    1.20e-03 *             o
	----------------------------------------------------------------------------------------------
	    15    -796.45028926   -3.79e-06      2.35e-04 *    2.35e-04 o    1.11e-03 *    1.11e-03 o  ~
	----------------------------------------------------------------------------------------------

Next Geometry in Ang
	Fragment 1 (Ang)

	    S  -0.0000000000   1.0304180982   0.0000000000
	    S   0.0000000000  -1.0304180982   0.0000000000

    Final optimized geometry and variables:
    Molecular point group: d2h
    Full point group: D_inf_h

    Geometry (in Angstrom), charge = -1, multiplicity = 2:

    S           -0.000000000000     1.030125071571     0.000000000000
    S            0.000000000000    -1.030125071571     0.000000000000

    Psi4 stopped on: Thursday, 17 July 2025 12:05PM
    Psi4 wall time for execution: 0:00:19.60

*** Psi4 exiting successfully. Buy a developer a beer!
