                               Psi4 1.9.1 release

  ==> Input File <==

--------------------------------------------------------------------------
molecule {
-1 2
C   0.00000        0.60000        0.00000
Ar   0.00000       -0.60000        0.00000
}

set {
basis              cc-pvdz
reference          uks
maxiter            500
geom_maxiter       500
DAMPING_PERCENTAGE 1
guess              SAP
}

optimize('b3lyp')
--------------------------------------------------------------------------

    Molecular point group: c2v
  Charge       = -1
  Multiplicity = 2
  Basis Set: CC-PVDZ
    Blend: CC-PVDZ
  Basis Set: (CC-PVDZ AUX)
    Blend: CC-PVDZ-JKFIT
  @DF-UKS Final Energy:  -564.82728946052077
    Total Energy =                       -564.8272894605207739
 Dipole X            :          0.0000000            0.0000000            0.0000000
 Dipole Y            :          0.0000000            0.0000000            0.0000000
 Dipole Z            :         -4.0895718            1.0375255           -3.0520463
 Magnitude           :                                                    3.0520463
    Molecular point group: c2v
  Basis Set: CC-PVDZ
    Blend: CC-PVDZ
  Basis Set: (CC-PVDZ AUX)
    Blend: CC-PVDZ-JKFIT
  Basis Set: CC-PVDZ
    Blend: CC-PVDZ
  Basis Set: (CC-PVDZ AUX)
    Blend: CC-PVDZ-JKFIT
  @DF-UKS Final Energy:  -565.03392470950951
    Total Energy =                       -565.0339247095096198
  Basis Set: CC-PVDZ
    Blend: CC-PVDZ
  Basis Set: (CC-PVDZ AUX)
    Blend: CC-PVDZ-JKFIT
  Basis Set: CC-PVDZ
    Blend: CC-PVDZ
  @DF-UKS Final Energy:  -565.14921908346071
    Total Energy =                       -565.1492190834607072
  @DF-UKS Final Energy:  -565.21994776644829
    Total Energy =                       -565.2199477664482856
  @DF-UKS Final Energy:  -565.26978803661916
    Total Energy =                       -565.2697880366191612
  @DF-UKS Final Energy:  -565.30201709287553
    Total Energy =                       -565.3020170928756443
  @DF-UKS Final Energy:  -565.32025479900983
    Total Energy =                       -565.3202547990099447
  @DF-UKS Final Energy:  -565.32917584992003
    Total Energy =                       -565.3291758499199204
  @DF-UKS Final Energy:  -565.33321204094716
    Total Energy =                       -565.3332120409471599
  @DF-UKS Final Energy:  -565.33492754407985
    Total Energy =                       -565.3349275440798465
  @DF-UKS Final Energy:  -565.33560743212820
    Total Energy =                       -565.3356074321281994
  @DF-UKS Final Energy:  -565.33585055117226
    Total Energy =                       -565.3358505511722569
  @DF-UKS Final Energy:  -565.33590900376157
    Total Energy =                       -565.3359090037615715
  @DF-UKS Final Energy:  -565.33593059619022
    Total Energy =                       -565.3359305961902237
  Basis Set: (CC-PVDZ AUX)
    Blend: CC-PVDZ-JKFIT
  Basis Set: CC-PVDZ
    Blend: CC-PVDZ
  Basis Set: (CC-PVDZ AUX)
    Blend: CC-PVDZ-JKFIT
  @DF-UKS Final Energy:  -565.33593475951795
    Total Energy =                       -565.3359347595180679
  Basis Set: CC-PVDZ
    Blend: CC-PVDZ
  Basis Set: (CC-PVDZ AUX)
    Blend: CC-PVDZ-JKFIT
  Charge       = -1
  Multiplicity = 2
  Basis Set: CC-PVDZ
    Blend: CC-PVDZ
  Basis Set: (CC-PVDZ AUX)
    Blend: CC-PVDZ-JKFIT

    Orbital Energies [Eh]
    ---------------------

    Alpha Occupied:

       1A1  -114.942823     2A1   -10.978825     3A1    -9.870822
       1B1    -8.528851     1B2    -8.528774     4A1    -8.528459
       5A1    -0.807413     2B1    -0.266786     2B2    -0.266286
       6A1    -0.263574     7A1    -0.166194     3B1     0.125264
       3B2     0.172714

    Alpha Virtual:

       8A1     0.225653     4B1     0.723591     9A1     0.726158
       4B2     0.728741    10A1     0.797715     5B1     0.804933
       5B2     0.836409    11A1     0.873974    12A1     0.971007
       1A2     0.991472    13A1     0.991472     6B1     0.995563
       6B2     0.996244    14A1     1.108680     7B1     1.501444
      15A1     1.517670     2A2     1.532011     7B2     1.539708
      16A1     1.563874

    Beta Occupied:

       1A1  -114.942815     2A1   -10.978818     3A1    -9.859720
       1B1    -8.528820     1B2    -8.528770     4A1    -8.528459
       5A1    -0.807391     2B1    -0.266733     2B2    -0.266298
       6A1    -0.263211     7A1    -0.115937     3B2     0.186275

    Beta Virtual:

       8A1     0.239980     3B1     0.282457     4B2     0.729456
       4B1     0.730724     9A1     0.731375    10A1     0.801320
       5B2     0.845490     5B1     0.871314    11A1     0.892892
      12A1     0.973818     1A2     0.991510    13A1     0.991510
       6B2     0.996345     6B1     0.996361    14A1     1.118323
       7B2     1.545091     7B1     1.563284    15A1     1.567665
       2A2     1.583084    16A1     1.592253

    Final Occupation by Irrep:
             A1    A2    B1    B2
    DOCC [     7,    0,    2,    3 ]
    SOCC [     0,    0,    1,    0 ]
    NA   [     7,    0,    3,    3 ]
    NB   [     7,    0,    2,    3 ]

  @DF-UKS Final Energy:  -565.33593567038974

   => Energetics <=

    Nuclear Repulsion Energy =             18.0908218908316201
    One-Electron Energy =                -820.2143989696299968
    Two-Electron Energy =                 266.1320543600850215
    DFT Exchange-Correlation Energy =     -29.3444129516763859
    Empirical Dispersion Energy =           0.0000000000000000
    VV10 Nonlocal Energy =                  0.0000000000000000
    Total Energy =                       -565.3359356703897447

  UHF NO Occupations:
  HONO-2 :    3 B2 1.9999446
  HONO-1 :    7 A1 1.9992695
  HONO-0 :    3 B1 1.0000000
  LUNO+0 :    8 A1 0.0007305
  LUNO+1 :    4 B2 0.0000554
  LUNO+2 :    9 A1 0.0000004
  LUNO+3 :    4 B1 0.0000000

Computation Completed

Properties will be evaluated at   0.000000,   0.000000,   0.000000 [a0]

Properties computed using the SCF density matrix

 Multipole Moments:

 ------------------------------------------------------------------------------------
     Multipole            Electronic (a.u.)      Nuclear  (a.u.)        Total (a.u.)
 ------------------------------------------------------------------------------------

 L = 1.  Multiply by 2.5417464519 to convert [e a0] to [Debye]
 Dipole X            :          0.0000000            0.0000000            0.0000000
 Dipole Y            :          0.0000000            0.0000000            0.0000000
 Dipole Z            :         -7.2262726            2.7313925           -4.4948801
 Magnitude           :                                                    4.4948801

 ------------------------------------------------------------------------------------

*** tstop() called on Joses-MacBook-Pro-2.local at Thu Jul 17 10:23:36 2025
Module time:
	user time   =       2.91 seconds =       0.05 minutes
	system time =       3.78 seconds =       0.06 minutes
	total time  =          1 seconds =       0.02 minutes
Total time:
	user time   =      74.58 seconds =       1.24 minutes
	system time =      93.84 seconds =       1.56 minutes
	total time  =         17 seconds =       0.28 minutes

*** tstart() called on Joses-MacBook-Pro-2.local
*** at Thu Jul 17 10:23:36 2025

         ------------------------------------------------------------
                                   SCF GRAD
                          Rob Parrish, Justin Turney,
                       Andy Simmonett, and Alex Sokolov
         ------------------------------------------------------------

  ==> Geometry <==

    Molecular point group: c2v
    Full point group: C_inf_v

    Geometry (in Angstrom), charge = -1, multiplicity = 2:

       Center              X                  Y                   Z               Mass
    ------------   -----------------  -----------------  -----------------  -----------------
         C            0.000000000000     0.000000000000     2.429567160675    12.000000000000
         AR           0.000000000000     0.000000000000    -0.729556238872    39.962383123700

  Nuclear repulsion =   18.090821890831617

  ==> Basis Set <==

  Basis Set: CC-PVDZ
    Blend: CC-PVDZ
    Number of shells: 14
    Number of basis functions: 32
    Number of Cartesian functions: 34
    Spherical Harmonics?: true
    Max angular momentum: 2

  ==> DFJKGrad: Density-Fitted SCF Gradients <==

    Gradient:                    1
    J tasked:                  Yes
    K tasked:                  Yes
    wK tasked:                  No
    OpenMP threads:              1
    Integrals threads:           1
    Memory [MiB]:              375
    Schwarz Cutoff:          1E-12
    Fitting Condition:       1E-10

   => Auxiliary Basis Set <=

  Basis Set: (CC-PVDZ AUX)
    Blend: CC-PVDZ-JKFIT
    Number of shells: 60
    Number of basis functions: 182
    Number of Cartesian functions: 211
    Spherical Harmonics?: true
    Max angular momentum: 3

  ==> DFT Potential <==

   => LibXC <=

    Version 6.2.2
    S. Lehtola, C. Steigemann, M. J.T. Oliveira, and M. A.L. Marques.,  SoftwareX 7, 1â€“5 (2018) (10.1016/j.softx.2017.11.002)

   => Composite Functional: B3LYP <=

    B3LYP Hyb-GGA Exchange-Correlation Functional

    P. J. Stephens, F. J. Devlin, C. F. Chabalowski, and M. J. Frisch.,  J. Phys. Chem. 98, 11623 (1994) (10.1021/j100096a001)

    Deriv               =              1
    GGA                 =           TRUE
    Meta                =          FALSE

    Exchange Hybrid     =           TRUE
    MP2 Hybrid          =          FALSE

   => Exchange Functionals <=

    0.0800   Slater exchange
    0.7200         Becke 88

   => Exact (HF) Exchange <=

    0.2000               HF

   => Correlation Functionals <=

    0.1900   Vosko, Wilk & Nusair (VWN5_RPA)
    0.8100   Lee, Yang & Parr

   => LibXC Density Thresholds  <==

    XC_HYB_GGA_XC_B3LYP:  1.00E-15

   => Molecular Quadrature <=

    Radial Scheme          =       TREUTLER
    Pruning Scheme         =           NONE
    Nuclear Scheme         =       TREUTLER

    Blocking Scheme        =         OCTREE
    BS radius alpha        =              1
    Pruning alpha          =              1
    Radial Points          =             75
    Spherical Points       =            302
    Total Points           =          41285
    Total Blocks           =            372
    Max Points             =            256
    Max Functions          =             32
    Weights Tolerance      =       1.00E-15

  -Total Gradient:
     Atom            X                  Y                   Z
    ------   -----------------  -----------------  -----------------
       1        0.000000000000     0.000000000000    -0.000034290498
       2       -0.000000000000     0.000000000000     0.000031771694

*** tstop() called on Joses-MacBook-Pro-2.local at Thu Jul 17 10:23:36 2025
Module time:
	user time   =       0.89 seconds =       0.01 minutes
	system time =       1.48 seconds =       0.02 minutes
	total time  =          0 seconds =       0.00 minutes
Total time:
	user time   =      75.48 seconds =       1.26 minutes
	system time =      95.32 seconds =       1.59 minutes
	total time  =         17 seconds =       0.28 minutes

    			-----------------------------------------

    			 OPTKING 3.0: for geometry optimizations

    			     By R.A. King, Bethel University

    			        with contributions from

    			    A.V. Copan, J. Cayton, A. Heide

    			-----------------------------------------

	                            ===> Fragment 1 <==

	 Z (Atomic Numbers)          Masses                          Geom
	       6.000000            12.000000          0.00000000  0.00000000  4.59121654
	      18.000000            39.962383          0.00000000  0.00000000 -1.37866148

	 - Coordinate -           - BOHR/RAD -       - ANG/DEG -
	 R(1,2)           =         5.969878           3.159123

	        --- Internal Coordinate Step in ANG or DEG, aJ/ANG or AJ/DEG ---
	-------------------------------------------------------------------------------
	           Coordinate      Previous         Force          Change          New
	           ----------      --------        ------          ------        ------
	               R(1,2)       3.15912        0.00027        0.00643       3.16555
	-------------------------------------------------------------------------------

	                                 ==> Convergence Check <==

	Measures of convergence in internal coordinates in au.

	Criteria marked as inactive (o), active & met (*), and active & unmet ( ).

	----------------------------------------------------------------------------------------------
	   Step    Total Energy     Delta E     Max Force     RMS Force      Max Disp      RMS Disp
	----------------------------------------------------------------------------------------------
	  Convergence Criteria     1.00e-06 *    3.00e-04 *             o    1.20e-03 *             o
	----------------------------------------------------------------------------------------------
	    16    -565.33593567   -9.11e-07 *    3.30e-05 *    3.30e-05 o    1.22e-02      1.22e-02 o  ~
	----------------------------------------------------------------------------------------------

Next Geometry in Ang
	Fragment 1 (Ang)

	    C   0.0000000000   0.0000000000   2.4327819267
	   Ar   0.0000000000   0.0000000000  -0.7327710049

    Final optimized geometry and variables:
    Molecular point group: c2v
    Full point group: C_inf_v

    Geometry (in Angstrom), charge = -1, multiplicity = 2:

    C            0.000000000000     0.000000000000     2.429567160675
    AR           0.000000000000     0.000000000000    -0.729556238872

    Psi4 stopped on: Thursday, 17 July 2025 10:23AM
    Psi4 wall time for execution: 0:00:17.90

*** Psi4 exiting successfully. Buy a developer a beer!
