                               Psi4 1.9.1 release

  ==> Input File <==

--------------------------------------------------------------------------
molecule {
-1 2
Ne   0.00000        0.60000        0.00000
S   0.00000       -0.60000        0.00000
}

set {
basis              cc-pvdz
reference          uks
maxiter            500
geom_maxiter       500
DAMPING_PERCENTAGE 1
guess              SAP
}

optimize('b3lyp')
--------------------------------------------------------------------------

    Molecular point group: c2v
  Charge       = -1
  Multiplicity = 2
  Basis Set: CC-PVDZ
    Blend: CC-PVDZ
  Basis Set: (CC-PVDZ AUX)
    Blend: CC-PVDZ-JKFIT
  @DF-UKS Final Energy:  -526.33727637454649
    Total Energy =                       -526.3372763745464908
 Dipole X            :          0.0000000            0.0000000            0.0000000
 Dipole Y            :          0.0000000            0.0000000            0.0000000
 Dipole Z            :          2.2472246           -0.0069094            2.2403152
 Magnitude           :                                                    2.2403152
    Molecular point group: c2v
  Basis Set: CC-PVDZ
    Blend: CC-PVDZ
  Basis Set: (CC-PVDZ AUX)
    Blend: CC-PVDZ-JKFIT
  Basis Set: CC-PVDZ
    Blend: CC-PVDZ
  Basis Set: (CC-PVDZ AUX)
    Blend: CC-PVDZ-JKFIT
  @DF-UKS Final Energy:  -526.62362853179854
    Total Energy =                       -526.6236285317985448
  Basis Set: CC-PVDZ
    Blend: CC-PVDZ
  Basis Set: (CC-PVDZ AUX)
    Blend: CC-PVDZ-JKFIT
  Basis Set: CC-PVDZ
    Blend: CC-PVDZ
  @DF-UKS Final Energy:  -526.81471232979607
    Total Energy =                       -526.8147123297960661
  @DF-UKS Final Energy:  -526.94114451677922
    Total Energy =                       -526.9411445167792181
  @DF-UKS Final Energy:  -527.01254582906927
    Total Energy =                       -527.0125458290692677
  @DF-UKS Final Energy:  -527.04811583916796
    Total Energy =                       -527.0481158391679628
  @DF-UKS Final Energy:  -527.06670533014835
    Total Energy =                       -527.0667053301483520
  @DF-UKS Final Energy:  -527.07627001451556
    Total Energy =                       -527.0762700145155577
  @DF-UKS Final Energy:  -527.08108265153135
    Total Energy =                       -527.0810826515313465
  @DF-UKS Final Energy:  -527.08340736648290
    Total Energy =                       -527.0834073664829020
  @DF-UKS Final Energy:  -527.08447308303187
    Total Energy =                       -527.0844730830318667
  @DF-UKS Final Energy:  -527.08492286639023
    Total Energy =                       -527.0849228663902295
  @DF-UKS Final Energy:  -527.08508785188769
    Total Energy =                       -527.0850878518876925
  @DF-UKS Final Energy:  -527.08513088106599
    Total Energy =                       -527.0851308810659930
  @DF-UKS Final Energy:  -527.08514680833093
    Total Energy =                       -527.0851468083309328
  @DF-UKS Final Energy:  -527.08515022451923
    Total Energy =                       -527.0851502245192250
  Basis Set: (CC-PVDZ AUX)
    Blend: CC-PVDZ-JKFIT
  Basis Set: CC-PVDZ
    Blend: CC-PVDZ
  Basis Set: (CC-PVDZ AUX)
    Blend: CC-PVDZ-JKFIT
  @DF-UKS Final Energy:  -527.08515127618523
    Total Energy =                       -527.0851512761852291
  Basis Set: CC-PVDZ
    Blend: CC-PVDZ
  Basis Set: (CC-PVDZ AUX)
    Blend: CC-PVDZ-JKFIT
  Charge       = -1
  Multiplicity = 2
  Basis Set: CC-PVDZ
    Blend: CC-PVDZ
  Basis Set: (CC-PVDZ AUX)
    Blend: CC-PVDZ-JKFIT

    Orbital Energies [Eh]
    ---------------------

    Alpha Occupied:

       1A1   -88.543183     2A1   -30.812306     3A1    -7.599608
       4A1    -5.572636     1B2    -5.555344     1B1    -5.555344
       5A1    -1.277781     2B2    -0.386626     2B1    -0.386626
       6A1    -0.385611     7A1    -0.338574     8A1     0.015243
       3B1     0.060530     3B2     0.060530

    Alpha Virtual:

       9A1     0.758513    10A1     0.766798     4B2     0.793889
       4B1     0.793889    11A1     0.900022     5B1     0.911448
       5B2     0.911448     1A2     0.948954    12A1     0.948954
       6B2     1.512025     6B1     1.512025    13A1     1.535680
      14A1     1.980640     2A2     4.878860    15A1     4.879045
       7B2     4.879674     7B1     4.879674    16A1     4.880319

    Beta Occupied:

       1A1   -88.538605     2A1   -30.812202     3A1    -7.594905
       4A1    -5.557086     1B2    -5.552584     1B1    -5.552584
       5A1    -1.277616     2B2    -0.386568     2B1    -0.386568
       6A1    -0.385168     7A1    -0.294962     3B1     0.072968
       3B2     0.072968

    Beta Virtual:

       8A1     0.149057     9A1     0.784502     4B1     0.800952
       4B2     0.800952    10A1     0.803688     1A2     0.955267
      11A1     0.955268     5B1     0.959789     5B2     0.959789
      12A1     0.967332     6B2     1.511953     6B1     1.511953
      13A1     1.536126    14A1     1.980928     2A2     4.878912
      15A1     4.879097     7B2     4.879845     7B1     4.879845
      16A1     4.880529

    Final Occupation by Irrep:
             A1    A2    B1    B2
    DOCC [     7,    0,    3,    3 ]
    SOCC [     1,    0,    0,    0 ]
    NA   [     8,    0,    3,    3 ]
    NB   [     7,    0,    3,    3 ]

  @DF-UKS Final Energy:  -527.08515178179380

   => Energetics <=

    Nuclear Repulsion Energy =             24.9010839015926564
    One-Electron Energy =                -789.4092711283747121
    Two-Electron Energy =                 268.4188058503404477
    DFT Exchange-Correlation Energy =     -30.9957704053521610
    Empirical Dispersion Energy =           0.0000000000000000
    VV10 Nonlocal Energy =                  0.0000000000000000
    Total Energy =                       -527.0851517817937975

  UHF NO Occupations:
  HONO-2 :    3 B2 1.9999819
  HONO-1 :    7 A1 1.9991064
  HONO-0 :    8 A1 1.0000000
  LUNO+0 :    9 A1 0.0008936
  LUNO+1 :    4 B2 0.0000181
  LUNO+2 :    4 B1 0.0000181
  LUNO+3 :   10 A1 0.0000001

Computation Completed

Properties will be evaluated at   0.000000,   0.000000,   0.000000 [a0]

Properties computed using the SCF density matrix

 Multipole Moments:

 ------------------------------------------------------------------------------------
     Multipole            Electronic (a.u.)      Nuclear  (a.u.)        Total (a.u.)
 ------------------------------------------------------------------------------------

 L = 1.  Multiply by 2.5417464519 to convert [e a0] to [Debye]
 Dipole X            :          0.0000000            0.0000000            0.0000000
 Dipole Y            :          0.0000000            0.0000000            0.0000000
 Dipole Z            :          2.4898018           -0.0195777            2.4702241
 Magnitude           :                                                    2.4702241

 ------------------------------------------------------------------------------------

*** tstop() called on Joses-MacBook-Pro-2.local at Thu Jul 17 11:02:50 2025
Module time:
	user time   =       2.59 seconds =       0.04 minutes
	system time =       4.21 seconds =       0.07 minutes
	total time  =          1 seconds =       0.02 minutes
Total time:
	user time   =      81.06 seconds =       1.35 minutes
	system time =      95.42 seconds =       1.59 minutes
	total time  =         18 seconds =       0.30 minutes

*** tstart() called on Joses-MacBook-Pro-2.local
*** at Thu Jul 17 11:02:50 2025

         ------------------------------------------------------------
                                   SCF GRAD
                          Rob Parrish, Justin Turney,
                       Andy Simmonett, and Alex Sokolov
         ------------------------------------------------------------

  ==> Geometry <==

    Molecular point group: c2v
    Full point group: C_inf_v

    Geometry (in Angstrom), charge = -1, multiplicity = 2:

       Center              X                  Y                   Z               Mass
    ------------   -----------------  -----------------  -----------------  -----------------
         NE           0.000000000000     0.000000000000     2.092024600523    19.992440176200
         S            0.000000000000     0.000000000000    -1.308162878938    31.972071174400

  Nuclear repulsion =   24.901083901592656

  ==> Basis Set <==

  Basis Set: CC-PVDZ
    Blend: CC-PVDZ
    Number of shells: 14
    Number of basis functions: 32
    Number of Cartesian functions: 34
    Spherical Harmonics?: true
    Max angular momentum: 2

  ==> DFJKGrad: Density-Fitted SCF Gradients <==

    Gradient:                    1
    J tasked:                  Yes
    K tasked:                  Yes
    wK tasked:                  No
    OpenMP threads:              1
    Integrals threads:           1
    Memory [MiB]:              375
    Schwarz Cutoff:          1E-12
    Fitting Condition:       1E-10

   => Auxiliary Basis Set <=

  Basis Set: (CC-PVDZ AUX)
    Blend: CC-PVDZ-JKFIT
    Number of shells: 60
    Number of basis functions: 182
    Number of Cartesian functions: 211
    Spherical Harmonics?: true
    Max angular momentum: 3

  ==> DFT Potential <==

   => LibXC <=

    Version 6.2.2
    S. Lehtola, C. Steigemann, M. J.T. Oliveira, and M. A.L. Marques.,  SoftwareX 7, 1â€“5 (2018) (10.1016/j.softx.2017.11.002)

   => Composite Functional: B3LYP <=

    B3LYP Hyb-GGA Exchange-Correlation Functional

    P. J. Stephens, F. J. Devlin, C. F. Chabalowski, and M. J. Frisch.,  J. Phys. Chem. 98, 11623 (1994) (10.1021/j100096a001)

    Deriv               =              1
    GGA                 =           TRUE
    Meta                =          FALSE

    Exchange Hybrid     =           TRUE
    MP2 Hybrid          =          FALSE

   => Exchange Functionals <=

    0.0800   Slater exchange
    0.7200         Becke 88

   => Exact (HF) Exchange <=

    0.2000               HF

   => Correlation Functionals <=

    0.1900   Vosko, Wilk & Nusair (VWN5_RPA)
    0.8100   Lee, Yang & Parr

   => LibXC Density Thresholds  <==

    XC_HYB_GGA_XC_B3LYP:  1.00E-15

   => Molecular Quadrature <=

    Radial Scheme          =       TREUTLER
    Pruning Scheme         =           NONE
    Nuclear Scheme         =       TREUTLER

    Blocking Scheme        =         OCTREE
    BS radius alpha        =              1
    Pruning alpha          =              1
    Radial Points          =             75
    Spherical Points       =            302
    Total Points           =          42318
    Total Blocks           =            384
    Max Points             =            256
    Max Functions          =             32
    Weights Tolerance      =       1.00E-15

  -Total Gradient:
     Atom            X                  Y                   Z
    ------   -----------------  -----------------  -----------------
       1        0.000000000000     0.000000000000     0.000008996594
       2        0.000000000000    -0.000000000000     0.000021450864

*** tstop() called on Joses-MacBook-Pro-2.local at Thu Jul 17 11:02:50 2025
Module time:
	user time   =       0.81 seconds =       0.01 minutes
	system time =       1.59 seconds =       0.03 minutes
	total time  =          0 seconds =       0.00 minutes
Total time:
	user time   =      81.87 seconds =       1.36 minutes
	system time =      97.01 seconds =       1.62 minutes
	total time  =         18 seconds =       0.30 minutes

    			-----------------------------------------

    			 OPTKING 3.0: for geometry optimizations

    			     By R.A. King, Bethel University

    			        with contributions from

    			    A.V. Copan, J. Cayton, A. Heide

    			-----------------------------------------

	                            ===> Fragment 1 <==

	 Z (Atomic Numbers)          Masses                          Geom
	      10.000000            19.992440          0.00000000  0.00000000  3.95335354
	      16.000000            31.972071          0.00000000  0.00000000 -2.47206957

	 - Coordinate -           - BOHR/RAD -       - ANG/DEG -
	 R(1,2)           =         6.425423           3.400187

	        --- Internal Coordinate Step in ANG or DEG, aJ/ANG or AJ/DEG ---
	-------------------------------------------------------------------------------
	           Coordinate      Previous         Force          Change          New
	           ----------      --------        ------          ------        ------
	               R(1,2)       3.40019        0.00005        0.00218       3.40237
	-------------------------------------------------------------------------------

	                                 ==> Convergence Check <==

	Measures of convergence in internal coordinates in au.

	Criteria marked as inactive (o), active & met (*), and active & unmet ( ).

	----------------------------------------------------------------------------------------------
	   Step    Total Energy     Delta E     Max Force     RMS Force      Max Disp      RMS Disp
	----------------------------------------------------------------------------------------------
	  Convergence Criteria     1.00e-06 *    3.00e-04 *             o    1.20e-03 *             o
	----------------------------------------------------------------------------------------------
	    18    -527.08515178   -5.06e-07 *    6.23e-06 *    6.23e-06 o    4.12e-03      4.12e-03 o  ~
	----------------------------------------------------------------------------------------------

Next Geometry in Ang
	Fragment 1 (Ang)

	   Ne   0.0000000000   0.0000000000   2.0931144704
	    S   0.0000000000   0.0000000000  -1.3092527489

    Final optimized geometry and variables:
    Molecular point group: c2v
    Full point group: C_inf_v

    Geometry (in Angstrom), charge = -1, multiplicity = 2:

    NE           0.000000000000     0.000000000000     2.092024600523
    S            0.000000000000     0.000000000000    -1.308162878938

    Psi4 stopped on: Thursday, 17 July 2025 11:02AM
    Psi4 wall time for execution: 0:00:18.86

*** Psi4 exiting successfully. Buy a developer a beer!
