                               Psi4 1.9.1 release

  ==> Input File <==

--------------------------------------------------------------------------
molecule {
-1 2
Ne   0.00000        0.60000        0.00000
Ar   0.00000       -0.60000        0.00000
}

set {
basis              cc-pvdz
reference          uks
maxiter            500
geom_maxiter       500
DAMPING_PERCENTAGE 1
guess              SAP
}

optimize('b3lyp')
--------------------------------------------------------------------------

    Molecular point group: c2v
  Charge       = -1
  Multiplicity = 2
  Basis Set: CC-PVDZ
    Blend: CC-PVDZ
  Basis Set: (CC-PVDZ AUX)
    Blend: CC-PVDZ-JKFIT
  @DF-UKS Final Energy:  -654.71985966898637
    Total Energy =                       -654.7198596689862597
 Dipole X            :          0.0000000            0.0000000            0.0000000
 Dipole Y            :          0.0000000            0.0000000            0.0000000
 Dipole Z            :          0.6550788            1.5038390            2.1589178
 Magnitude           :                                                    2.1589178
    Molecular point group: c2v
  Basis Set: CC-PVDZ
    Blend: CC-PVDZ
  Basis Set: (CC-PVDZ AUX)
    Blend: CC-PVDZ-JKFIT
  Basis Set: CC-PVDZ
    Blend: CC-PVDZ
  Basis Set: (CC-PVDZ AUX)
    Blend: CC-PVDZ-JKFIT
  @DF-UKS Final Energy:  -655.17465914481193
    Total Energy =                       -655.1746591448119261
  Basis Set: CC-PVDZ
    Blend: CC-PVDZ
  Basis Set: (CC-PVDZ AUX)
    Blend: CC-PVDZ-JKFIT
  Basis Set: CC-PVDZ
    Blend: CC-PVDZ
  @DF-UKS Final Energy:  -655.47216498113073
    Total Energy =                       -655.4721649811307316
  @DF-UKS Final Energy:  -655.61715945656965
    Total Energy =                       -655.6171594565696523
  @DF-UKS Final Energy:  -655.68650480559143
    Total Energy =                       -655.6865048055914258
  @DF-UKS Final Energy:  -655.72078960423232
    Total Energy =                       -655.7207896042322091
  @DF-UKS Final Energy:  -655.73753508594132
    Total Energy =                       -655.7375350859413174
  @DF-UKS Final Energy:  -655.74561839127773
    Total Energy =                       -655.7456183912777306
  @DF-UKS Final Energy:  -655.74944563249733
    Total Energy =                       -655.7494456324973271
  @DF-UKS Final Energy:  -655.75120641057720
    Total Energy =                       -655.7512064105771969
  @DF-UKS Final Energy:  -655.75197006041105
    Total Energy =                       -655.7519700604109403
  @DF-UKS Final Energy:  -655.75227192992020
    Total Energy =                       -655.7522719299201981
  @DF-UKS Final Energy:  -655.75235256760948
    Total Energy =                       -655.7523525676094778
  @DF-UKS Final Energy:  -655.75238992375239
    Total Energy =                       -655.7523899237523892
  @DF-UKS Final Energy:  -655.75239994253627
    Total Energy =                       -655.7523999425362717
  @DF-UKS Final Energy:  -655.75240305763543
    Total Energy =                       -655.7524030576354335
  Basis Set: (CC-PVDZ AUX)
    Blend: CC-PVDZ-JKFIT
  Basis Set: CC-PVDZ
    Blend: CC-PVDZ
  Basis Set: (CC-PVDZ AUX)
    Blend: CC-PVDZ-JKFIT
  @DF-UKS Final Energy:  -655.75240447737497
    Total Energy =                       -655.7524044773749665
  Basis Set: CC-PVDZ
    Blend: CC-PVDZ
  Basis Set: (CC-PVDZ AUX)
    Blend: CC-PVDZ-JKFIT
  Charge       = -1
  Multiplicity = 2
  Basis Set: CC-PVDZ
    Blend: CC-PVDZ
  Basis Set: (CC-PVDZ AUX)
    Blend: CC-PVDZ-JKFIT

    Orbital Energies [Eh]
    ---------------------

    Alpha Occupied:

       1A1  -114.630282     2A1   -30.798186     3A1   -10.696419
       1B2    -8.246738     4A1    -8.246717     1B1    -8.242967
       5A1    -1.263905     6A1    -0.591406     2B2    -0.373123
       2B1    -0.372914     7A1    -0.370897     3B2    -0.064722
       8A1    -0.064408     3B1    -0.060989     4B1     0.818901

    Alpha Virtual:

       9A1     0.888560     4B2     0.894692    10A1     1.047115
      11A1     1.201435     5B2     1.201578     5B1     1.214508
       1A2     1.214519    12A1     1.220718     6B2     1.524893
       6B1     1.525330    13A1     1.553455    14A1     1.993813
       2A2     4.892488    15A1     4.892707     7B2     4.893665
       7B1     4.893800    16A1     4.894557

    Beta Occupied:

       1A1  -114.621423     2A1   -30.798160     3A1   -10.688179
       1B2    -8.241849     4A1    -8.241826     1B1    -8.215908
       5A1    -1.263881     6A1    -0.569997     2B2    -0.373115
       2B1    -0.372857     7A1    -0.370905     3B2    -0.056955
       8A1    -0.056650     3B1    -0.018355

    Beta Virtual:

       9A1     0.902191     4B2     0.908770     4B1     0.942384
      10A1     1.078780    11A1     1.204311     5B2     1.204455
       5B1     1.233247     1A2     1.233257    12A1     1.243392
       6B2     1.524882     6B1     1.525416    13A1     1.553968
      14A1     1.993943     2A2     4.892510    15A1     4.892729
       7B2     4.893671     7B1     4.893823    16A1     4.894571

    Final Occupation by Irrep:
             A1    A2    B1    B2
    DOCC [     8,    0,    3,    3 ]
    SOCC [     0,    0,    1,    0 ]
    NA   [     8,    0,    4,    3 ]
    NB   [     8,    0,    3,    3 ]

  @DF-UKS Final Energy:  -655.75240488084705

   => Energetics <=

    Nuclear Repulsion Energy =             29.9591846114376068
    One-Electron Energy =                -979.2067219012731130
    Two-Electron Energy =                 328.7973141293438175
    DFT Exchange-Correlation Energy =     -35.3021817203552573
    Empirical Dispersion Energy =           0.0000000000000000
    VV10 Nonlocal Energy =                  0.0000000000000000
    Total Energy =                       -655.7524048808469388

  UHF NO Occupations:
  HONO-2 :    7 A1 1.9999979
  HONO-1 :    8 A1 1.9999036
  HONO-0 :    4 B1 1.0000000
  LUNO+0 :    9 A1 0.0000964
  LUNO+1 :   10 A1 0.0000021
  LUNO+2 :    4 B2 0.0000020
  LUNO+3 :    5 B1 0.0000000

Computation Completed

Properties will be evaluated at   0.000000,   0.000000,   0.000000 [a0]

Properties computed using the SCF density matrix

 Multipole Moments:

 ------------------------------------------------------------------------------------
     Multipole            Electronic (a.u.)      Nuclear  (a.u.)        Total (a.u.)
 ------------------------------------------------------------------------------------

 L = 1.  Multiply by 2.5417464519 to convert [e a0] to [Debye]
 Dipole X            :          0.0000000            0.0000000            0.0000000
 Dipole Y            :          0.0000000            0.0000000            0.0000000
 Dipole Z            :         -1.9931908            3.9844076            1.9912168
 Magnitude           :                                                    1.9912168

 ------------------------------------------------------------------------------------

*** tstop() called on Joses-MacBook-Pro-2.local at Thu Jul 17 11:04:47 2025
Module time:
	user time   =       3.33 seconds =       0.06 minutes
	system time =       2.42 seconds =       0.04 minutes
	total time  =          1 seconds =       0.02 minutes
Total time:
	user time   =      86.67 seconds =       1.44 minutes
	system time =      81.38 seconds =       1.36 minutes
	total time  =         17 seconds =       0.28 minutes

*** tstart() called on Joses-MacBook-Pro-2.local
*** at Thu Jul 17 11:04:47 2025

         ------------------------------------------------------------
                                   SCF GRAD
                          Rob Parrish, Justin Turney,
                       Andy Simmonett, and Alex Sokolov
         ------------------------------------------------------------

  ==> Geometry <==

    Molecular point group: c2v
    Full point group: C_inf_v

    Geometry (in Angstrom), charge = -1, multiplicity = 2:

       Center              X                  Y                   Z               Mass
    ------------   -----------------  -----------------  -----------------  -----------------
         NE           0.000000000000     0.000000000000     2.119194901748    19.992440176200
         AR           0.000000000000     0.000000000000    -1.060193962001    39.962383123700

  Nuclear repulsion =   29.959184611437607

  ==> Basis Set <==

  Basis Set: CC-PVDZ
    Blend: CC-PVDZ
    Number of shells: 14
    Number of basis functions: 32
    Number of Cartesian functions: 34
    Spherical Harmonics?: true
    Max angular momentum: 2

  ==> DFJKGrad: Density-Fitted SCF Gradients <==

    Gradient:                    1
    J tasked:                  Yes
    K tasked:                  Yes
    wK tasked:                  No
    OpenMP threads:              1
    Integrals threads:           1
    Memory [MiB]:              375
    Schwarz Cutoff:          1E-12
    Fitting Condition:       1E-10

   => Auxiliary Basis Set <=

  Basis Set: (CC-PVDZ AUX)
    Blend: CC-PVDZ-JKFIT
    Number of shells: 60
    Number of basis functions: 182
    Number of Cartesian functions: 211
    Spherical Harmonics?: true
    Max angular momentum: 3

  ==> DFT Potential <==

   => LibXC <=

    Version 6.2.2
    S. Lehtola, C. Steigemann, M. J.T. Oliveira, and M. A.L. Marques.,  SoftwareX 7, 1â€“5 (2018) (10.1016/j.softx.2017.11.002)

   => Composite Functional: B3LYP <=

    B3LYP Hyb-GGA Exchange-Correlation Functional

    P. J. Stephens, F. J. Devlin, C. F. Chabalowski, and M. J. Frisch.,  J. Phys. Chem. 98, 11623 (1994) (10.1021/j100096a001)

    Deriv               =              1
    GGA                 =           TRUE
    Meta                =          FALSE

    Exchange Hybrid     =           TRUE
    MP2 Hybrid          =          FALSE

   => Exchange Functionals <=

    0.0800   Slater exchange
    0.7200         Becke 88

   => Exact (HF) Exchange <=

    0.2000               HF

   => Correlation Functionals <=

    0.1900   Vosko, Wilk & Nusair (VWN5_RPA)
    0.8100   Lee, Yang & Parr

   => LibXC Density Thresholds  <==

    XC_HYB_GGA_XC_B3LYP:  1.00E-15

   => Molecular Quadrature <=

    Radial Scheme          =       TREUTLER
    Pruning Scheme         =           NONE
    Nuclear Scheme         =       TREUTLER

    Blocking Scheme        =         OCTREE
    BS radius alpha        =              1
    Pruning alpha          =              1
    Radial Points          =             75
    Spherical Points       =            302
    Total Points           =          41528
    Total Blocks           =            378
    Max Points             =            255
    Max Functions          =             32
    Weights Tolerance      =       1.00E-15

  -Total Gradient:
     Atom            X                  Y                   Z
    ------   -----------------  -----------------  -----------------
       1        0.000000000000     0.000000000000    -0.000010318959
       2        0.000000000000     0.000000000000     0.000002456062

*** tstop() called on Joses-MacBook-Pro-2.local at Thu Jul 17 11:04:47 2025
Module time:
	user time   =       0.64 seconds =       0.01 minutes
	system time =       1.38 seconds =       0.02 minutes
	total time  =          0 seconds =       0.00 minutes
Total time:
	user time   =      87.31 seconds =       1.46 minutes
	system time =      82.78 seconds =       1.38 minutes
	total time  =         17 seconds =       0.28 minutes

    			-----------------------------------------

    			 OPTKING 3.0: for geometry optimizations

    			     By R.A. King, Bethel University

    			        with contributions from

    			    A.V. Copan, J. Cayton, A. Heide

    			-----------------------------------------

	                            ===> Fragment 1 <==

	 Z (Atomic Numbers)          Masses                          Geom
	      10.000000            19.992440          0.00000000  0.00000000  4.00469797
	      18.000000            39.962383          0.00000000  0.00000000 -2.00347623

	 - Coordinate -           - BOHR/RAD -       - ANG/DEG -
	 R(1,2)           =         6.008174           3.179389

	        --- Internal Coordinate Step in ANG or DEG, aJ/ANG or AJ/DEG ---
	-------------------------------------------------------------------------------
	           Coordinate      Previous         Force          Change          New
	           ----------      --------        ------          ------        ------
	               R(1,2)       3.17939        0.00005        0.00159       3.18098
	-------------------------------------------------------------------------------

	                                 ==> Convergence Check <==

	Measures of convergence in internal coordinates in au.

	Criteria marked as inactive (o), active & met (*), and active & unmet ( ).

	----------------------------------------------------------------------------------------------
	   Step    Total Energy     Delta E     Max Force     RMS Force      Max Disp      RMS Disp
	----------------------------------------------------------------------------------------------
	  Convergence Criteria     1.00e-06 *    3.00e-04 *             o    1.20e-03 *             o
	----------------------------------------------------------------------------------------------
	    18    -655.75240488   -4.03e-07 *    6.39e-06 *    6.39e-06 o    3.01e-03      3.01e-03 o  ~
	----------------------------------------------------------------------------------------------

Next Geometry in Ang
	Fragment 1 (Ang)

	   Ne   0.0000000000   0.0000000000   2.1199903546
	   Ar   0.0000000000   0.0000000000  -1.0609894148

    Final optimized geometry and variables:
    Molecular point group: c2v
    Full point group: C_inf_v

    Geometry (in Angstrom), charge = -1, multiplicity = 2:

    NE           0.000000000000     0.000000000000     2.119194901748
    AR           0.000000000000     0.000000000000    -1.060193962001

    Psi4 stopped on: Thursday, 17 July 2025 11:04AM
    Psi4 wall time for execution: 0:00:17.92

*** Psi4 exiting successfully. Buy a developer a beer!
