                               Psi4 1.9.1 release

  ==> Input File <==

--------------------------------------------------------------------------
molecule {
-1 2
S   0.00000        0.60000        0.00000
Ar   0.00000       -0.60000        0.00000
}

set {
basis              cc-pvdz
reference          uks
maxiter            500
geom_maxiter       500
DAMPING_PERCENTAGE 1
guess              SAP
}

optimize('b3lyp')
--------------------------------------------------------------------------

    Molecular point group: c2v
  Charge       = -1
  Multiplicity = 2
  Basis Set: CC-PVDZ
    Blend: CC-PVDZ
  Basis Set: (CC-PVDZ AUX)
    Blend: CC-PVDZ-JKFIT
  @DF-UKS Final Energy:  -924.03156104313575
    Total Energy =                       -924.0315610431357527
 Dipole X            :          0.0000000            0.0000000            0.0000000
 Dipole Y            :          0.0000000            0.0000000            0.0000000
 Dipole Z            :         -4.4518999            2.0144189           -2.4374810
 Magnitude           :                                                    2.4374810
    Molecular point group: c2v
  Basis Set: CC-PVDZ
    Blend: CC-PVDZ
  Basis Set: (CC-PVDZ AUX)
    Blend: CC-PVDZ-JKFIT
  Basis Set: CC-PVDZ
    Blend: CC-PVDZ
  Basis Set: (CC-PVDZ AUX)
    Blend: CC-PVDZ-JKFIT
  @DF-UKS Final Energy:  -924.07955331221922
    Total Energy =                       -924.0795533122192182
  Basis Set: CC-PVDZ
    Blend: CC-PVDZ
  Basis Set: (CC-PVDZ AUX)
    Blend: CC-PVDZ-JKFIT
  Basis Set: CC-PVDZ
    Blend: CC-PVDZ
  @DF-UKS Final Energy:  -924.16759578290169
    Total Energy =                       -924.1675957829016852
  @DF-UKS Final Energy:  -924.44698203509870
    Total Energy =                       -924.4469820350986993
  @DF-UKS Final Energy:  -924.99199505820354
    Total Energy =                       -924.9919950582035426
  @DF-UKS Final Energy:  -925.23672862313254
    Total Energy =                       -925.2367286231325352
  @DF-UKS Final Energy:  -925.42419616673078
    Total Energy =                       -925.4241961667307805
  @DF-UKS Final Energy:  -925.55205118028687
    Total Energy =                       -925.5520511802869805
  @DF-UKS Final Energy:  -925.63120898556679
    Total Energy =                       -925.6312089855667864
  @DF-UKS Final Energy:  -925.67313524987912
    Total Energy =                       -925.6731352498792376
  @DF-UKS Final Energy:  -925.69535142968596
    Total Energy =                       -925.6953514296859566
  @DF-UKS Final Energy:  -925.70679838817478
    Total Energy =                       -925.7067983881747750
  @DF-UKS Final Energy:  -925.71258340530608
    Total Energy =                       -925.7125834053060771
  @DF-UKS Final Energy:  -925.71547018996432
    Total Energy =                       -925.7154701899643214
  @DF-UKS Final Energy:  -925.71689334056396
    Total Energy =                       -925.7168933405638427
  @DF-UKS Final Energy:  -925.71757262606354
    Total Energy =                       -925.7175726260635429
  @DF-UKS Final Energy:  -925.71787407449028
    Total Energy =                       -925.7178740744902825
  @DF-UKS Final Energy:  -925.71799198611609
    Total Energy =                       -925.7179919861160897
  @DF-UKS Final Energy:  -925.71802796956081
    Total Energy =                       -925.7180279695608078
  @DF-UKS Final Energy:  -925.71803367008738
    Total Energy =                       -925.7180336700873795
  Basis Set: (CC-PVDZ AUX)
    Blend: CC-PVDZ-JKFIT
  Basis Set: CC-PVDZ
    Blend: CC-PVDZ
  Basis Set: (CC-PVDZ AUX)
    Blend: CC-PVDZ-JKFIT
  @DF-UKS Final Energy:  -925.71803498082170
    Total Energy =                       -925.7180349808216988
  Basis Set: CC-PVDZ
    Blend: CC-PVDZ
  Basis Set: (CC-PVDZ AUX)
    Blend: CC-PVDZ-JKFIT
  Charge       = -1
  Multiplicity = 2
  Basis Set: CC-PVDZ
    Blend: CC-PVDZ
  Basis Set: (CC-PVDZ AUX)
    Blend: CC-PVDZ-JKFIT

    Orbital Energies [Eh]
    ---------------------

    Alpha Occupied:

       1A1  -114.969464     2A1   -88.544894     3A1   -11.005559
       1B1    -8.555512     1B2    -8.555512     4A1    -8.555268
       5A1    -7.601268     6A1    -5.574312     2B1    -5.556995
       2B2    -5.556995     7A1    -0.834071     8A1    -0.340451
       3B2    -0.292775     3B1    -0.292775     9A1    -0.289423
      10A1     0.013432     4B1     0.059165     4B2     0.059165

    Alpha Virtual:

      11A1     0.666820     5B1     0.708105     5B2     0.708105
      12A1     0.763936     6B1     0.794595     6B2     0.794595
      13A1     0.796236    14A1     0.887729     7B1     0.910047
       7B2     0.910047    15A1     0.910184    16A1     0.947529
       1A2     0.947537    17A1     0.965124     2A2     0.965135
       8B2     0.966922     8B1     0.966922    18A1     0.971055

    Beta Occupied:

       1A1  -114.969423     2A1   -88.540336     3A1   -11.005518
       1B1    -8.555482     1B2    -8.555482     4A1    -8.555166
       5A1    -7.596586     6A1    -5.558823     2B1    -5.554249
       2B2    -5.554249     7A1    -0.833930     8A1    -0.297590
       3B2    -0.292743     3B1    -0.292743     9A1    -0.288476
       4B1     0.071584     4B2     0.071584

    Beta Virtual:

      10A1     0.146910    11A1     0.679984     5B1     0.708106
       5B2     0.708106    12A1     0.789554     6B1     0.801520
       6B2     0.801520    13A1     0.809577    14A1     0.906769
      15A1     0.953824     1A2     0.953831     7B1     0.958263
       7B2     0.958263    16A1     0.965169     2A2     0.965180
       8B2     0.967060     8B1     0.967060    17A1     0.967364
      18A1     0.973664

    Final Occupation by Irrep:
             A1    A2    B1    B2
    DOCC [     9,    0,    4,    4 ]
    SOCC [     1,    0,    0,    0 ]
    NA   [    10,    0,    4,    4 ]
    NB   [     9,    0,    4,    4 ]

  @DF-UKS Final Energy:  -925.71803509547419

   => Energetics <=

    Nuclear Repulsion Energy =             38.3888781434406425
    One-Electron Energy =               -1362.9895137577618698
    Two-Electron Energy =                 444.6516372274879245
    DFT Exchange-Correlation Energy =     -45.7690367086409395
    Empirical Dispersion Energy =           0.0000000000000000
    VV10 Nonlocal Energy =                  0.0000000000000000
    Total Energy =                       -925.7180350954740788

  UHF NO Occupations:
  HONO-2 :    4 B2 1.9999823
  HONO-1 :    9 A1 1.9991103
  HONO-0 :   10 A1 1.0000000
  LUNO+0 :   11 A1 0.0008897
  LUNO+1 :    5 B1 0.0000177
  LUNO+2 :    5 B2 0.0000177
  LUNO+3 :   12 A1 0.0000003

Computation Completed

Properties will be evaluated at   0.000000,   0.000000,   0.000000 [a0]

Properties computed using the SCF density matrix

 Multipole Moments:

 ------------------------------------------------------------------------------------
     Multipole            Electronic (a.u.)      Nuclear  (a.u.)        Total (a.u.)
 ------------------------------------------------------------------------------------

 L = 1.  Multiply by 2.5417464519 to convert [e a0] to [Debye]
 Dipole X            :          0.0000000            0.0000000            0.0000000
 Dipole Y            :          0.0000000            0.0000000            0.0000000
 Dipole Z            :        -10.7597459            6.6643338           -4.0954121
 Magnitude           :                                                    4.0954121

 ------------------------------------------------------------------------------------

*** tstop() called on Joses-MacBook-Pro-2.local at Thu Jul 17 12:07:49 2025
Module time:
	user time   =       3.76 seconds =       0.06 minutes
	system time =       2.30 seconds =       0.04 minutes
	total time  =          0 seconds =       0.00 minutes
Total time:
	user time   =     238.20 seconds =       3.97 minutes
	system time =      59.46 seconds =       0.99 minutes
	total time  =         28 seconds =       0.47 minutes

*** tstart() called on Joses-MacBook-Pro-2.local
*** at Thu Jul 17 12:07:49 2025

         ------------------------------------------------------------
                                   SCF GRAD
                          Rob Parrish, Justin Turney,
                       Andy Simmonett, and Alex Sokolov
         ------------------------------------------------------------

  ==> Geometry <==

    Molecular point group: c2v
    Full point group: C_inf_v

    Geometry (in Angstrom), charge = -1, multiplicity = 2:

       Center              X                  Y                   Z               Mass
    ------------   -----------------  -----------------  -----------------  -----------------
         S            0.000000000000     0.000000000000     2.205477469872    31.972071174400
         AR           0.000000000000     0.000000000000    -1.764501441819    39.962383123700

  Nuclear repulsion =   38.388878143440643

  ==> Basis Set <==

  Basis Set: CC-PVDZ
    Blend: CC-PVDZ
    Number of shells: 16
    Number of basis functions: 36
    Number of Cartesian functions: 38
    Spherical Harmonics?: true
    Max angular momentum: 2

  ==> DFJKGrad: Density-Fitted SCF Gradients <==

    Gradient:                    1
    J tasked:                  Yes
    K tasked:                  Yes
    wK tasked:                  No
    OpenMP threads:              1
    Integrals threads:           1
    Memory [MiB]:              375
    Schwarz Cutoff:          1E-12
    Fitting Condition:       1E-10

   => Auxiliary Basis Set <=

  Basis Set: (CC-PVDZ AUX)
    Blend: CC-PVDZ-JKFIT
    Number of shells: 72
    Number of basis functions: 224
    Number of Cartesian functions: 260
    Spherical Harmonics?: true
    Max angular momentum: 3

  ==> DFT Potential <==

   => LibXC <=

    Version 6.2.2
    S. Lehtola, C. Steigemann, M. J.T. Oliveira, and M. A.L. Marques.,  SoftwareX 7, 1â€“5 (2018) (10.1016/j.softx.2017.11.002)

   => Composite Functional: B3LYP <=

    B3LYP Hyb-GGA Exchange-Correlation Functional

    P. J. Stephens, F. J. Devlin, C. F. Chabalowski, and M. J. Frisch.,  J. Phys. Chem. 98, 11623 (1994) (10.1021/j100096a001)

    Deriv               =              1
    GGA                 =           TRUE
    Meta                =          FALSE

    Exchange Hybrid     =           TRUE
    MP2 Hybrid          =          FALSE

   => Exchange Functionals <=

    0.0800   Slater exchange
    0.7200         Becke 88

   => Exact (HF) Exchange <=

    0.2000               HF

   => Correlation Functionals <=

    0.1900   Vosko, Wilk & Nusair (VWN5_RPA)
    0.8100   Lee, Yang & Parr

   => LibXC Density Thresholds  <==

    XC_HYB_GGA_XC_B3LYP:  1.00E-15

   => Molecular Quadrature <=

    Radial Scheme          =       TREUTLER
    Pruning Scheme         =           NONE
    Nuclear Scheme         =       TREUTLER

    Blocking Scheme        =         OCTREE
    BS radius alpha        =              1
    Pruning alpha          =              1
    Radial Points          =             75
    Spherical Points       =            302
    Total Points           =          40436
    Total Blocks           =            402
    Max Points             =            253
    Max Functions          =             36
    Weights Tolerance      =       1.00E-15

  -Total Gradient:
     Atom            X                  Y                   Z
    ------   -----------------  -----------------  -----------------
       1       -0.000000000000     0.000000000000    -0.000003913182
       2        0.000000000000    -0.000000000000     0.000006278776

*** tstop() called on Joses-MacBook-Pro-2.local at Thu Jul 17 12:07:49 2025
Module time:
	user time   =       1.71 seconds =       0.03 minutes
	system time =       1.11 seconds =       0.02 minutes
	total time  =          0 seconds =       0.00 minutes
Total time:
	user time   =     239.91 seconds =       4.00 minutes
	system time =      60.57 seconds =       1.01 minutes
	total time  =         28 seconds =       0.47 minutes

    			-----------------------------------------

    			 OPTKING 3.0: for geometry optimizations

    			     By R.A. King, Bethel University

    			        with contributions from

    			    A.V. Copan, J. Cayton, A. Heide

    			-----------------------------------------

	                            ===> Fragment 1 <==

	 Z (Atomic Numbers)          Masses                          Geom
	      16.000000            31.972071          0.00000000  0.00000000  4.16774839
	      18.000000            39.962383          0.00000000  0.00000000 -3.33442447

	 - Coordinate -           - BOHR/RAD -       - ANG/DEG -
	 R(1,2)           =         7.502173           3.969979

	        --- Internal Coordinate Step in ANG or DEG, aJ/ANG or AJ/DEG ---
	-------------------------------------------------------------------------------
	           Coordinate      Previous         Force          Change          New
	           ----------      --------        ------          ------        ------
	               R(1,2)       3.96998        0.00004        0.00297       3.97295
	-------------------------------------------------------------------------------

	                                 ==> Convergence Check <==

	Measures of convergence in internal coordinates in au.

	Criteria marked as inactive (o), active & met (*), and active & unmet ( ).

	----------------------------------------------------------------------------------------------
	   Step    Total Energy     Delta E     Max Force     RMS Force      Max Disp      RMS Disp
	----------------------------------------------------------------------------------------------
	  Convergence Criteria     1.00e-06 *    3.00e-04 *             o    1.20e-03 *             o
	----------------------------------------------------------------------------------------------
	    22    -925.71803510   -1.15e-07 *    5.10e-06 *    5.10e-06 o    5.62e-03      5.62e-03 o  ~
	----------------------------------------------------------------------------------------------

Next Geometry in Ang
	Fragment 1 (Ang)

	    S   0.0000000000   0.0000000000   2.2069639394
	   Ar   0.0000000000   0.0000000000  -1.7659879114

    Final optimized geometry and variables:
    Molecular point group: c2v
    Full point group: C_inf_v

    Geometry (in Angstrom), charge = -1, multiplicity = 2:

    S            0.000000000000     0.000000000000     2.205477469872
    AR           0.000000000000     0.000000000000    -1.764501441819

    Psi4 stopped on: Thursday, 17 July 2025 12:07PM
    Psi4 wall time for execution: 0:00:28.88

*** Psi4 exiting successfully. Buy a developer a beer!
