                               Psi4 1.9.1 release

  ==> Input File <==

--------------------------------------------------------------------------
molecule {
-1 2
F   0.00000        0.60000        0.00000
P   0.00000       -0.60000        0.00000
}

set {
basis              cc-pvdz
reference          uks
maxiter            500
geom_maxiter       500
DAMPING_PERCENTAGE 1
guess              SAP
}

optimize('b3lyp')
--------------------------------------------------------------------------

    Molecular point group: c2v
  Charge       = -1
  Multiplicity = 2
  Basis Set: CC-PVDZ
    Blend: CC-PVDZ
  Basis Set: (CC-PVDZ AUX)
    Blend: CC-PVDZ-JKFIT
  @DF-UKS Final Energy:  -440.83934493110866
    Total Energy =                       -440.8393449311086556
 Dipole X            :          0.0000000            0.0000000            0.0000000
 Dipole Y            :          0.0000000            0.0000000            0.0000000
 Dipole Z            :          1.6418773           -0.2819010            1.3599763
 Magnitude           :                                                    1.3599763
    Molecular point group: c2v
  Basis Set: CC-PVDZ
    Blend: CC-PVDZ
  Basis Set: (CC-PVDZ AUX)
    Blend: CC-PVDZ-JKFIT
  Basis Set: CC-PVDZ
    Blend: CC-PVDZ
  Basis Set: (CC-PVDZ AUX)
    Blend: CC-PVDZ-JKFIT
  @DF-UKS Final Energy:  -441.01948462266819
    Total Energy =                       -441.0194846226681875
  Basis Set: CC-PVDZ
    Blend: CC-PVDZ
  Basis Set: (CC-PVDZ AUX)
    Blend: CC-PVDZ-JKFIT
  Basis Set: CC-PVDZ
    Blend: CC-PVDZ
  @DF-UKS Final Energy:  -441.10996378699770
    Total Energy =                       -441.1099637869976959
  @DF-UKS Final Energy:  -441.14109016304462
    Total Energy =                       -441.1410901630446233
  @DF-UKS Final Energy:  -441.15824822152825
    Total Energy =                       -441.1582482215281971
  @DF-UKS Final Energy:  -441.16573205299926
    Total Energy =                       -441.1657320529992603
  @DF-UKS Final Energy:  -441.16760571919974
    Total Energy =                       -441.1676057191997984
  @DF-UKS Final Energy:  -441.16823581398000
    Total Energy =                       -441.1682358139800044
  @DF-UKS Final Energy:  -441.16836299805516
    Total Energy =                       -441.1683629980551586
  @DF-UKS Final Energy:  -441.16839397481812
    Total Energy =                       -441.1683939748181160
  Basis Set: (CC-PVDZ AUX)
    Blend: CC-PVDZ-JKFIT
  Basis Set: CC-PVDZ
    Blend: CC-PVDZ
  Basis Set: (CC-PVDZ AUX)
    Blend: CC-PVDZ-JKFIT
  @DF-UKS Final Energy:  -441.16839769613040
    Total Energy =                       -441.1683976961303415
  Basis Set: CC-PVDZ
    Blend: CC-PVDZ
  Basis Set: (CC-PVDZ AUX)
    Blend: CC-PVDZ-JKFIT
  Charge       = -1
  Multiplicity = 2
  Basis Set: CC-PVDZ
    Blend: CC-PVDZ
  Basis Set: (CC-PVDZ AUX)
    Blend: CC-PVDZ-JKFIT

    Orbital Energies [Eh]
    ---------------------

    Alpha Occupied:

       1A1   -76.814939     2A1   -24.394589     3A1    -6.278327
       1B2    -4.444670     4A1    -4.444036     1B1    -4.430917
       5A1    -0.873049     6A1    -0.295047     2B2    -0.142007
       2B1    -0.130597     7A1    -0.127754     3B2     0.053029
       3B1     0.090152

    Alpha Virtual:

       8A1     0.245274     9A1     0.608919     4B2     0.660035
      10A1     0.682459     4B1     0.688221    11A1     0.753577
       1A2     0.754047     5B2     0.761924     5B1     0.792815
      12A1     0.935787     6B2     1.481464     6B1     1.490681
      13A1     1.506005    14A1     2.352039     2A2     3.858028
      15A1     3.858061     7B2     3.872858     7B1     3.880432
      16A1     4.028478

    Beta Occupied:

       1A1   -76.811502     2A1   -24.391830     3A1    -6.274640
       4A1    -4.442099     1B2    -4.432525     1B1    -4.428806
       5A1    -0.866911     6A1    -0.271890     2B1    -0.127963
       2B2    -0.122361     7A1    -0.111240     3B1     0.100166

    Beta Virtual:

       3B2     0.167723     8A1     0.257706     9A1     0.623679
      10A1     0.687307     4B1     0.694108     4B2     0.699247
       1A2     0.795104     5B1     0.797114    11A1     0.799209
       5B2     0.803798    12A1     0.949708     6B2     1.491484
       6B1     1.492004    13A1     1.507947    14A1     2.355956
       2A2     3.865427    15A1     3.865590     7B2     3.880472
       7B1     3.881466    16A1     4.032223

    Final Occupation by Irrep:
             A1    A2    B1    B2
    DOCC [     7,    0,    3,    2 ]
    SOCC [     0,    0,    0,    1 ]
    NA   [     7,    0,    3,    3 ]
    NB   [     7,    0,    3,    2 ]

  @DF-UKS Final Energy:  -441.16839781659962

   => Energetics <=

    Nuclear Repulsion Energy =             40.4905244545330660
    One-Electron Energy =                -699.3650275876329943
    Two-Electron Energy =                 245.0907471717344777
    DFT Exchange-Correlation Energy =     -27.3846418552342072
    Empirical Dispersion Energy =           0.0000000000000000
    VV10 Nonlocal Energy =                  0.0000000000000000
    Total Energy =                       -441.1683978165996223

  UHF NO Occupations:
  HONO-2 :    2 B2 1.9999309
  HONO-1 :    7 A1 1.9987081
  HONO-0 :    3 B2 1.0000000
  LUNO+0 :    8 A1 0.0012919
  LUNO+1 :    4 B2 0.0000691
  LUNO+2 :    4 B1 0.0000172
  LUNO+3 :    9 A1 0.0000163

Computation Completed

Properties will be evaluated at   0.000000,   0.000000,   0.000000 [a0]

Properties computed using the SCF density matrix

 Multipole Moments:

 ------------------------------------------------------------------------------------
     Multipole            Electronic (a.u.)      Nuclear  (a.u.)        Total (a.u.)
 ------------------------------------------------------------------------------------

 L = 1.  Multiply by 2.5417464519 to convert [e a0] to [Debye]
 Dipole X            :          0.0000000            0.0000000            0.0000000
 Dipole Y            :          0.0000000            0.0000000            0.0000000
 Dipole Z            :          0.7601988           -0.4144736            0.3457252
 Magnitude           :                                                    0.3457252

 ------------------------------------------------------------------------------------

*** tstop() called on Joses-MacBook-Pro-2.local at Thu Jul 17 10:54:15 2025
Module time:
	user time   =       3.97 seconds =       0.07 minutes
	system time =       3.57 seconds =       0.06 minutes
	total time  =          1 seconds =       0.02 minutes
Total time:
	user time   =      70.02 seconds =       1.17 minutes
	system time =      57.23 seconds =       0.95 minutes
	total time  =         13 seconds =       0.22 minutes

*** tstart() called on Joses-MacBook-Pro-2.local
*** at Thu Jul 17 10:54:15 2025

         ------------------------------------------------------------
                                   SCF GRAD
                          Rob Parrish, Justin Turney,
                       Andy Simmonett, and Alex Sokolov
         ------------------------------------------------------------

  ==> Geometry <==

    Molecular point group: c2v
    Full point group: C_inf_v

    Geometry (in Angstrom), charge = -1, multiplicity = 2:

       Center              X                  Y                   Z               Mass
    ------------   -----------------  -----------------  -----------------  -----------------
         F            0.000000000000     0.000000000000     1.093571767181    18.998403162730
         P            0.000000000000     0.000000000000    -0.670765059838    30.973761998420

  Nuclear repulsion =   40.490524454533066

  ==> Basis Set <==

  Basis Set: CC-PVDZ
    Blend: CC-PVDZ
    Number of shells: 14
    Number of basis functions: 32
    Number of Cartesian functions: 34
    Spherical Harmonics?: true
    Max angular momentum: 2

  ==> DFJKGrad: Density-Fitted SCF Gradients <==

    Gradient:                    1
    J tasked:                  Yes
    K tasked:                  Yes
    wK tasked:                  No
    OpenMP threads:              1
    Integrals threads:           1
    Memory [MiB]:              375
    Schwarz Cutoff:          1E-12
    Fitting Condition:       1E-10

   => Auxiliary Basis Set <=

  Basis Set: (CC-PVDZ AUX)
    Blend: CC-PVDZ-JKFIT
    Number of shells: 60
    Number of basis functions: 182
    Number of Cartesian functions: 211
    Spherical Harmonics?: true
    Max angular momentum: 3

  ==> DFT Potential <==

   => LibXC <=

    Version 6.2.2
    S. Lehtola, C. Steigemann, M. J.T. Oliveira, and M. A.L. Marques.,  SoftwareX 7, 1â€“5 (2018) (10.1016/j.softx.2017.11.002)

   => Composite Functional: B3LYP <=

    B3LYP Hyb-GGA Exchange-Correlation Functional

    P. J. Stephens, F. J. Devlin, C. F. Chabalowski, and M. J. Frisch.,  J. Phys. Chem. 98, 11623 (1994) (10.1021/j100096a001)

    Deriv               =              1
    GGA                 =           TRUE
    Meta                =          FALSE

    Exchange Hybrid     =           TRUE
    MP2 Hybrid          =          FALSE

   => Exchange Functionals <=

    0.0800   Slater exchange
    0.7200         Becke 88

   => Exact (HF) Exchange <=

    0.2000               HF

   => Correlation Functionals <=

    0.1900   Vosko, Wilk & Nusair (VWN5_RPA)
    0.8100   Lee, Yang & Parr

   => LibXC Density Thresholds  <==

    XC_HYB_GGA_XC_B3LYP:  1.00E-15

   => Molecular Quadrature <=

    Radial Scheme          =       TREUTLER
    Pruning Scheme         =           NONE
    Nuclear Scheme         =       TREUTLER

    Blocking Scheme        =         OCTREE
    BS radius alpha        =              1
    Pruning alpha          =              1
    Radial Points          =             75
    Spherical Points       =            302
    Total Points           =          42510
    Total Blocks           =            379
    Max Points             =            255
    Max Functions          =             32
    Weights Tolerance      =       1.00E-15

  -Total Gradient:
     Atom            X                  Y                   Z
    ------   -----------------  -----------------  -----------------
       1       -0.000000000000     0.000000000000    -0.000063277985
       2        0.000000000000     0.000000000000    -0.000004251615

*** tstop() called on Joses-MacBook-Pro-2.local at Thu Jul 17 10:54:15 2025
Module time:
	user time   =       0.94 seconds =       0.02 minutes
	system time =       1.19 seconds =       0.02 minutes
	total time  =          0 seconds =       0.00 minutes
Total time:
	user time   =      70.97 seconds =       1.18 minutes
	system time =      58.42 seconds =       0.97 minutes
	total time  =         13 seconds =       0.22 minutes

    			-----------------------------------------

    			 OPTKING 3.0: for geometry optimizations

    			     By R.A. King, Bethel University

    			        with contributions from

    			    A.V. Copan, J. Cayton, A. Heide

    			-----------------------------------------

	                            ===> Fragment 1 <==

	 Z (Atomic Numbers)          Masses                          Geom
	       9.000000            18.998403          0.00000000  0.00000000  2.06655114
	      15.000000            30.973762          0.00000000  0.00000000 -1.26756226

	 - Coordinate -           - BOHR/RAD -       - ANG/DEG -
	 R(1,2)           =         3.334113           1.764337

	        --- Internal Coordinate Step in ANG or DEG, aJ/ANG or AJ/DEG ---
	-------------------------------------------------------------------------------
	           Coordinate      Previous         Force          Change          New
	           ----------      --------        ------          ------        ------
	               R(1,2)       1.76434        0.00024        0.00008       1.76442
	-------------------------------------------------------------------------------

	                                 ==> Convergence Check <==

	Measures of convergence in internal coordinates in au.

	Criteria marked as inactive (o), active & met (*), and active & unmet ( ).

	----------------------------------------------------------------------------------------------
	   Step    Total Energy     Delta E     Max Force     RMS Force      Max Disp      RMS Disp
	----------------------------------------------------------------------------------------------
	  Convergence Criteria     1.00e-06 *    3.00e-04 *             o    1.20e-03 *             o
	----------------------------------------------------------------------------------------------
	    12    -441.16839782   -1.20e-07 *    2.95e-05 *    2.95e-05 o    1.55e-04 *    1.55e-04 o  ~
	----------------------------------------------------------------------------------------------

Next Geometry in Ang
	Fragment 1 (Ang)

	    F   0.0000000000   0.0000000000   1.0936126982
	    P   0.0000000000   0.0000000000  -0.6708059909

    Final optimized geometry and variables:
    Molecular point group: c2v
    Full point group: C_inf_v

    Geometry (in Angstrom), charge = -1, multiplicity = 2:

    F            0.000000000000     0.000000000000     1.093571767181
    P            0.000000000000     0.000000000000    -0.670765059838

    Psi4 stopped on: Thursday, 17 July 2025 10:54AM
    Psi4 wall time for execution: 0:00:13.90

*** Psi4 exiting successfully. Buy a developer a beer!
