                               Psi4 1.9.1 release

  ==> Input File <==

--------------------------------------------------------------------------
molecule {
-1 2
N   0.00000        0.60000        0.00000
P   0.00000       -0.60000        0.00000
}

set {
basis              cc-pvdz
reference          uks
maxiter            500
geom_maxiter       500
DAMPING_PERCENTAGE 1
guess              SAP
}

optimize('b3lyp')
--------------------------------------------------------------------------

    Molecular point group: c2v
  Charge       = -1
  Multiplicity = 2
  Basis Set: CC-PVDZ
    Blend: CC-PVDZ
  Basis Set: (CC-PVDZ AUX)
    Blend: CC-PVDZ-JKFIT
  @DF-UKS Final Energy:  -395.80348279756367
    Total Energy =                       -395.8034827975637313
 Dipole X            :          0.0000000            0.0000000            0.0000000
 Dipole Y            :          0.0000000            0.0000000            0.0000000
 Dipole Z            :         -0.8166249            0.3413456           -0.4752794
 Magnitude           :                                                    0.4752794
    Molecular point group: c2v
  Basis Set: CC-PVDZ
    Blend: CC-PVDZ
  Basis Set: (CC-PVDZ AUX)
    Blend: CC-PVDZ-JKFIT
  Basis Set: CC-PVDZ
    Blend: CC-PVDZ
  Basis Set: (CC-PVDZ AUX)
    Blend: CC-PVDZ-JKFIT
  @DF-UKS Final Energy:  -395.96897461938090
    Total Energy =                       -395.9689746193809015
  Basis Set: CC-PVDZ
    Blend: CC-PVDZ
  Basis Set: (CC-PVDZ AUX)
    Blend: CC-PVDZ-JKFIT
  Basis Set: CC-PVDZ
    Blend: CC-PVDZ
  @DF-UKS Final Energy:  -396.03261049486093
    Total Energy =                       -396.0326104948609327
  @DF-UKS Final Energy:  -396.05042750920927
    Total Energy =                       -396.0504275092092712
  @DF-UKS Final Energy:  -396.05810577756324
    Total Energy =                       -396.0581057775632416
  @DF-UKS Final Energy:  -396.05978528333026
    Total Energy =                       -396.0597852833301999
  @DF-UKS Final Energy:  -396.06019805427462
    Total Energy =                       -396.0601980542746219
  @DF-UKS Final Energy:  -396.06032715661280
    Total Energy =                       -396.0603271566128001
  Basis Set: (CC-PVDZ AUX)
    Blend: CC-PVDZ-JKFIT
  Basis Set: CC-PVDZ
    Blend: CC-PVDZ
  Basis Set: (CC-PVDZ AUX)
    Blend: CC-PVDZ-JKFIT
  @DF-UKS Final Energy:  -396.06034463409509
    Total Energy =                       -396.0603446340950882
  Basis Set: CC-PVDZ
    Blend: CC-PVDZ
  Basis Set: (CC-PVDZ AUX)
    Blend: CC-PVDZ-JKFIT
  Charge       = -1
  Multiplicity = 2
  Basis Set: CC-PVDZ
    Blend: CC-PVDZ
  Basis Set: (CC-PVDZ AUX)
    Blend: CC-PVDZ-JKFIT

    Orbital Energies [Eh]
    ---------------------

    Alpha Occupied:

       1A1   -76.802872     2A1   -14.050660     3A1    -6.273465
       1B1    -4.436398     1B2    -4.433405     4A1    -4.433081
       5A1    -0.529932     6A1    -0.211331     2B2    -0.048079
       7A1    -0.031411     2B1    -0.030505     3B2     0.121119

    Alpha Virtual:

       3B1     0.190771     8A1     0.334179     9A1     0.606200
       4B1     0.664863     4B2     0.666334    10A1     0.728427
       1A2     0.745152    11A1     0.746536     5B2     0.825919
       5B1     0.829589    12A1     0.908907     6B2     1.043351
       6B1     1.053618    13A1     1.282260    14A1     1.498730
       2A2     2.059158    15A1     2.060805     7B2     2.258260
       7B1     2.260346    16A1     2.731259

    Beta Occupied:

       1A1   -76.801587     2A1   -14.038780     3A1    -6.272122
       1B1    -4.436231     4A1    -4.432568     1B2    -4.428039
       5A1    -0.505348     6A1    -0.186771     2B1    -0.021282
       7A1    -0.016957     2B2     0.005671

    Beta Virtual:

       3B1     0.202599     3B2     0.232454     8A1     0.341852
       9A1     0.614668     4B1     0.665318     4B2     0.683447
      10A1     0.732738     1A2     0.763824    11A1     0.764396
       5B1     0.831408     5B2     0.855319    12A1     0.918183
       6B1     1.064824     6B2     1.087832    13A1     1.293222
      14A1     1.515796    15A1     2.101061     2A2     2.101084
       7B1     2.268528     7B2     2.293894    16A1     2.748863

    Final Occupation by Irrep:
             A1    A2    B1    B2
    DOCC [     7,    0,    2,    2 ]
    SOCC [     0,    0,    0,    1 ]
    NA   [     7,    0,    2,    3 ]
    NB   [     7,    0,    2,    2 ]

  @DF-UKS Final Energy:  -396.06034570602884

   => Energetics <=

    Nuclear Repulsion Energy =             35.1068289263642370
    One-Electron Energy =                -622.5803301956464111
    Two-Electron Energy =                 215.8812805963739265
    DFT Exchange-Correlation Energy =     -24.4681250331205575
    Empirical Dispersion Energy =           0.0000000000000000
    VV10 Nonlocal Energy =                  0.0000000000000000
    Total Energy =                       -396.0603457060288406

  UHF NO Occupations:
  HONO-2 :    2 B2 1.9989246
  HONO-1 :    2 B1 1.9987415
  HONO-0 :    3 B2 1.0000000
  LUNO+0 :    3 B1 0.0012585
  LUNO+1 :    4 B2 0.0010754
  LUNO+2 :    8 A1 0.0003960
  LUNO+3 :    9 A1 0.0002041

Computation Completed

Properties will be evaluated at   0.000000,   0.000000,   0.000000 [a0]

Properties computed using the SCF density matrix

 Multipole Moments:

 ------------------------------------------------------------------------------------
     Multipole            Electronic (a.u.)      Nuclear  (a.u.)        Total (a.u.)
 ------------------------------------------------------------------------------------

 L = 1.  Multiply by 2.5417464519 to convert [e a0] to [Debye]
 Dipole X            :          0.0000000            0.0000000            0.0000000
 Dipole Y            :          0.0000000            0.0000000            0.0000000
 Dipole Z            :         -1.0183657            0.4502066           -0.5681591
 Magnitude           :                                                    0.5681591

 ------------------------------------------------------------------------------------

*** tstop() called on Joses-MacBook-Pro-2.local at Thu Jul 17 10:31:48 2025
Module time:
	user time   =       3.79 seconds =       0.06 minutes
	system time =       3.42 seconds =       0.06 minutes
	total time  =          1 seconds =       0.02 minutes
Total time:
	user time   =      51.92 seconds =       0.87 minutes
	system time =      59.16 seconds =       0.99 minutes
	total time  =         11 seconds =       0.18 minutes

*** tstart() called on Joses-MacBook-Pro-2.local
*** at Thu Jul 17 10:31:48 2025

         ------------------------------------------------------------
                                   SCF GRAD
                          Rob Parrish, Justin Turney,
                       Andy Simmonett, and Alex Sokolov
         ------------------------------------------------------------

  ==> Geometry <==

    Molecular point group: c2v
    Full point group: C_inf_v

    Geometry (in Angstrom), charge = -1, multiplicity = 2:

       Center              X                  Y                   Z               Mass
    ------------   -----------------  -----------------  -----------------  -----------------
         N            0.000000000000     0.000000000000     1.089943247204    14.003074004430
         P            0.000000000000     0.000000000000    -0.492757578237    30.973761998420

  Nuclear repulsion =   35.106828926364237

  ==> Basis Set <==

  Basis Set: CC-PVDZ
    Blend: CC-PVDZ
    Number of shells: 14
    Number of basis functions: 32
    Number of Cartesian functions: 34
    Spherical Harmonics?: true
    Max angular momentum: 2

  ==> DFJKGrad: Density-Fitted SCF Gradients <==

    Gradient:                    1
    J tasked:                  Yes
    K tasked:                  Yes
    wK tasked:                  No
    OpenMP threads:              1
    Integrals threads:           1
    Memory [MiB]:              375
    Schwarz Cutoff:          1E-12
    Fitting Condition:       1E-10

   => Auxiliary Basis Set <=

  Basis Set: (CC-PVDZ AUX)
    Blend: CC-PVDZ-JKFIT
    Number of shells: 60
    Number of basis functions: 182
    Number of Cartesian functions: 211
    Spherical Harmonics?: true
    Max angular momentum: 3

  ==> DFT Potential <==

   => LibXC <=

    Version 6.2.2
    S. Lehtola, C. Steigemann, M. J.T. Oliveira, and M. A.L. Marques.,  SoftwareX 7, 1â€“5 (2018) (10.1016/j.softx.2017.11.002)

   => Composite Functional: B3LYP <=

    B3LYP Hyb-GGA Exchange-Correlation Functional

    P. J. Stephens, F. J. Devlin, C. F. Chabalowski, and M. J. Frisch.,  J. Phys. Chem. 98, 11623 (1994) (10.1021/j100096a001)

    Deriv               =              1
    GGA                 =           TRUE
    Meta                =          FALSE

    Exchange Hybrid     =           TRUE
    MP2 Hybrid          =          FALSE

   => Exchange Functionals <=

    0.0800   Slater exchange
    0.7200         Becke 88

   => Exact (HF) Exchange <=

    0.2000               HF

   => Correlation Functionals <=

    0.1900   Vosko, Wilk & Nusair (VWN5_RPA)
    0.8100   Lee, Yang & Parr

   => LibXC Density Thresholds  <==

    XC_HYB_GGA_XC_B3LYP:  1.00E-15

   => Molecular Quadrature <=

    Radial Scheme          =       TREUTLER
    Pruning Scheme         =           NONE
    Nuclear Scheme         =       TREUTLER

    Blocking Scheme        =         OCTREE
    BS radius alpha        =              1
    Pruning alpha          =              1
    Radial Points          =             75
    Spherical Points       =            302
    Total Points           =          42153
    Total Blocks           =            381
    Max Points             =            255
    Max Functions          =             32
    Weights Tolerance      =       1.00E-15

  -Total Gradient:
     Atom            X                  Y                   Z
    ------   -----------------  -----------------  -----------------
       1        0.000000000000    -0.000000000000    -0.000140620138
       2       -0.000000000000     0.000000000000     0.000118073665

*** tstop() called on Joses-MacBook-Pro-2.local at Thu Jul 17 10:31:48 2025
Module time:
	user time   =       0.83 seconds =       0.01 minutes
	system time =       1.70 seconds =       0.03 minutes
	total time  =          0 seconds =       0.00 minutes
Total time:
	user time   =      52.75 seconds =       0.88 minutes
	system time =      60.87 seconds =       1.01 minutes
	total time  =         11 seconds =       0.18 minutes

    			-----------------------------------------

    			 OPTKING 3.0: for geometry optimizations

    			     By R.A. King, Bethel University

    			        with contributions from

    			    A.V. Copan, J. Cayton, A. Heide

    			-----------------------------------------

	                            ===> Fragment 1 <==

	 Z (Atomic Numbers)          Masses                          Geom
	       7.000000            14.003074          0.00000000  0.00000000  2.05969423
	      15.000000            30.973762          0.00000000  0.00000000 -0.93117687

	 - Coordinate -           - BOHR/RAD -       - ANG/DEG -
	 R(1,2)           =         2.990871           1.582701

	        --- Internal Coordinate Step in ANG or DEG, aJ/ANG or AJ/DEG ---
	-------------------------------------------------------------------------------
	           Coordinate      Previous         Force          Change          New
	           ----------      --------        ------          ------        ------
	               R(1,2)       1.58270        0.00107        0.00014       1.58284
	-------------------------------------------------------------------------------

	                                 ==> Convergence Check <==

	Measures of convergence in internal coordinates in au.

	Criteria marked as inactive (o), active & met (*), and active & unmet ( ).

	----------------------------------------------------------------------------------------------
	   Step    Total Energy     Delta E     Max Force     RMS Force      Max Disp      RMS Disp
	----------------------------------------------------------------------------------------------
	  Convergence Criteria     1.00e-06 *    3.00e-04 *             o    1.20e-03 *             o
	----------------------------------------------------------------------------------------------
	    10    -396.06034571   -1.07e-06      1.29e-04 *    1.29e-04 o    2.66e-04 *    2.66e-04 o  ~
	----------------------------------------------------------------------------------------------

Next Geometry in Ang
	Fragment 1 (Ang)

	    N   0.0000000000   0.0000000000   1.0900137165
	    P   0.0000000000   0.0000000000  -0.4928280475

    Final optimized geometry and variables:
    Molecular point group: c2v
    Full point group: C_inf_v

    Geometry (in Angstrom), charge = -1, multiplicity = 2:

    N            0.000000000000     0.000000000000     1.089943247204
    P            0.000000000000     0.000000000000    -0.492757578237

    Psi4 stopped on: Thursday, 17 July 2025 10:31AM
    Psi4 wall time for execution: 0:00:11.64

*** Psi4 exiting successfully. Buy a developer a beer!
