                               Psi4 1.9.1 release

  ==> Input File <==

--------------------------------------------------------------------------
molecule {
-1 2
He   0.00000        0.60000        0.00000
O   0.00000       -0.60000        0.00000
}

set {
basis              cc-pvdz
reference          uks
maxiter            500
geom_maxiter       500
DAMPING_PERCENTAGE 1
guess              SAP
}

optimize('b3lyp')
--------------------------------------------------------------------------

    Molecular point group: c2v
  Charge       = -1
  Multiplicity = 2
  Basis Set: CC-PVDZ
    Blend: CC-PVDZ
  Basis Set: (CC-PVDZ AUX)
    Blend: CC-PVDZ-JKFIT + DEF2-UNIVERSAL-JKFIT
  @DF-UKS Final Energy:   -77.83234419425534
    Total Energy =                        -77.8323441942553416
 Dipole X            :          0.0000000            0.0000000            0.0000000
 Dipole Y            :          0.0000000            0.0000000            0.0000000
 Dipole Z            :          0.6451859           -0.0035150            0.6416709
 Magnitude           :                                                    0.6416709
    Molecular point group: c2v
  Basis Set: CC-PVDZ
    Blend: CC-PVDZ
  Basis Set: (CC-PVDZ AUX)
    Blend: CC-PVDZ-JKFIT + DEF2-UNIVERSAL-JKFIT
  Basis Set: CC-PVDZ
    Blend: CC-PVDZ
  Basis Set: (CC-PVDZ AUX)
    Blend: CC-PVDZ-JKFIT + DEF2-UNIVERSAL-JKFIT
  @DF-UKS Final Energy:   -77.91189114839206
    Total Energy =                        -77.9118911483920584
  Basis Set: CC-PVDZ
    Blend: CC-PVDZ
  Basis Set: (CC-PVDZ AUX)
    Blend: CC-PVDZ-JKFIT + DEF2-UNIVERSAL-JKFIT
  Basis Set: CC-PVDZ
    Blend: CC-PVDZ
  @DF-UKS Final Energy:   -77.93442334565420
    Total Energy =                        -77.9344233456541957
  @DF-UKS Final Energy:   -77.94814437577132
    Total Energy =                        -77.9481443757713208
  @DF-UKS Final Energy:   -77.95466153343716
    Total Energy =                        -77.9546615334371609
  @DF-UKS Final Energy:   -77.95793596084997
    Total Energy =                        -77.9579359608499658
  @DF-UKS Final Energy:   -77.95950627884156
    Total Energy =                        -77.9595062788415589
  @DF-UKS Final Energy:   -77.96020602469686
    Total Energy =                        -77.9602060246968591
  @DF-UKS Final Energy:   -77.96048787026109
    Total Energy =                        -77.9604878702610904
  @DF-UKS Final Energy:   -77.96058746816220
    Total Energy =                        -77.9605874681622026
  @DF-UKS Final Energy:   -77.96061124701157
    Total Energy =                        -77.9606112470115704
  @DF-UKS Final Energy:   -77.96061997596796
    Total Energy =                        -77.9606199759679583
  Basis Set: (CC-PVDZ AUX)
    Blend: CC-PVDZ-JKFIT + DEF2-UNIVERSAL-JKFIT
  Basis Set: CC-PVDZ
    Blend: CC-PVDZ
  Basis Set: (CC-PVDZ AUX)
    Blend: CC-PVDZ-JKFIT + DEF2-UNIVERSAL-JKFIT
  @DF-UKS Final Energy:   -77.96062161530647
    Total Energy =                        -77.9606216153064651
  Basis Set: CC-PVDZ
    Blend: CC-PVDZ
  Basis Set: (CC-PVDZ AUX)
    Blend: CC-PVDZ-JKFIT + DEF2-UNIVERSAL-JKFIT
  Charge       = -1
  Multiplicity = 2
  Basis Set: CC-PVDZ
    Blend: CC-PVDZ
  Basis Set: (CC-PVDZ AUX)
    Blend: CC-PVDZ-JKFIT + DEF2-UNIVERSAL-JKFIT

    Orbital Energies [Eh]
    ---------------------

    Alpha Occupied:

       1A1   -18.662597     2A1    -0.466517     3A1    -0.423561
       4A1     0.100029     1B2     0.170312     1B1     0.170312

    Alpha Virtual:

       5A1     1.217491     2B2     1.335098     2B1     1.335098
       6A1     1.373855     7A1     1.579662     3B1     2.372035
       3B2     2.372035     8A1     2.377700     9A1     3.021750
       4B2     3.039538     4B1     3.039538    10A1     3.096472
       1A2     3.096476

    Beta Occupied:

       1A1   -18.641082     2A1    -0.466090     3A1    -0.349826
       1B2     0.193894     1B1     0.193894

    Beta Virtual:

       4A1     0.330686     5A1     1.259826     2B2     1.351877
       2B1     1.351877     6A1     1.436087     7A1     1.620088
       3B1     2.372142     3B2     2.372142     8A1     2.377984
       9A1     3.108029     1A2     3.108032     4B2     3.116806
       4B1     3.116806    10A1     3.132675

    Final Occupation by Irrep:
             A1    A2    B1    B2
    DOCC [     3,    0,    1,    1 ]
    SOCC [     1,    0,    0,    0 ]
    NA   [     4,    0,    1,    1 ]
    NB   [     3,    0,    1,    1 ]

  @DF-UKS Final Energy:   -77.96062194586464

   => Energetics <=

    Nuclear Repulsion Energy =              3.0428567407374478
    One-Electron Energy =                -118.0439751896532954
    Two-Electron Energy =                  45.0800955949590616
    DFT Exchange-Correlation Energy =      -8.0395990919078653
    Empirical Dispersion Energy =           0.0000000000000000
    VV10 Nonlocal Energy =                  0.0000000000000000
    Total Energy =                        -77.9606219458646450

  UHF NO Occupations:
  HONO-2 :    1 B1 1.9999437
  HONO-1 :    3 A1 1.9996435
  HONO-0 :    4 A1 1.0000000
  LUNO+0 :    5 A1 0.0003565
  LUNO+1 :    2 B2 0.0000563
  LUNO+2 :    2 B1 0.0000563
  LUNO+3 :    6 A1 0.0000001

Computation Completed

Properties will be evaluated at   0.000000,   0.000000,   0.000000 [a0]

Properties computed using the SCF density matrix

 Multipole Moments:

 ------------------------------------------------------------------------------------
     Multipole            Electronic (a.u.)      Nuclear  (a.u.)        Total (a.u.)
 ------------------------------------------------------------------------------------

 L = 1.  Multiply by 2.5417464519 to convert [e a0] to [Debye]
 Dipole X            :          0.0000000            0.0000000            0.0000000
 Dipole Y            :          0.0000000            0.0000000            0.0000000
 Dipole Z            :          1.0482505           -0.0081504            1.0401001
 Magnitude           :                                                    1.0401001

 ------------------------------------------------------------------------------------

*** tstop() called on Joses-MacBook-Pro-2.local at Thu Jul 17 09:19:51 2025
Module time:
	user time   =       0.74 seconds =       0.01 minutes
	system time =       3.13 seconds =       0.05 minutes
	total time  =          0 seconds =       0.00 minutes
Total time:
	user time   =      16.74 seconds =       0.28 minutes
	system time =      55.23 seconds =       0.92 minutes
	total time  =          8 seconds =       0.13 minutes

*** tstart() called on Joses-MacBook-Pro-2.local
*** at Thu Jul 17 09:19:51 2025

         ------------------------------------------------------------
                                   SCF GRAD
                          Rob Parrish, Justin Turney,
                       Andy Simmonett, and Alex Sokolov
         ------------------------------------------------------------

  ==> Geometry <==

    Molecular point group: c2v
    Full point group: C_inf_v

    Geometry (in Angstrom), charge = -1, multiplicity = 2:

       Center              X                  Y                   Z               Mass
    ------------   -----------------  -----------------  -----------------  -----------------
         HE           0.000000000000     0.000000000000     2.225591438230     4.002603254130
         O            0.000000000000     0.000000000000    -0.556936985592    15.994914619570

  Nuclear repulsion =    3.042856740737448

  ==> Basis Set <==

  Basis Set: CC-PVDZ
    Blend: CC-PVDZ
    Number of shells: 9
    Number of basis functions: 19
    Number of Cartesian functions: 20
    Spherical Harmonics?: true
    Max angular momentum: 2

  ==> DFJKGrad: Density-Fitted SCF Gradients <==

    Gradient:                    1
    J tasked:                  Yes
    K tasked:                  Yes
    wK tasked:                  No
    OpenMP threads:              1
    Integrals threads:           1
    Memory [MiB]:              375
    Schwarz Cutoff:          1E-12
    Fitting Condition:       1E-10

   => Auxiliary Basis Set <=

  Basis Set: (CC-PVDZ AUX)
    Blend: CC-PVDZ-JKFIT + DEF2-UNIVERSAL-JKFIT
    Number of shells: 33
    Number of basis functions: 93
    Number of Cartesian functions: 106
    Spherical Harmonics?: true
    Max angular momentum: 3

  ==> DFT Potential <==

   => LibXC <=

    Version 6.2.2
    S. Lehtola, C. Steigemann, M. J.T. Oliveira, and M. A.L. Marques.,  SoftwareX 7, 1â€“5 (2018) (10.1016/j.softx.2017.11.002)

   => Composite Functional: B3LYP <=

    B3LYP Hyb-GGA Exchange-Correlation Functional

    P. J. Stephens, F. J. Devlin, C. F. Chabalowski, and M. J. Frisch.,  J. Phys. Chem. 98, 11623 (1994) (10.1021/j100096a001)

    Deriv               =              1
    GGA                 =           TRUE
    Meta                =          FALSE

    Exchange Hybrid     =           TRUE
    MP2 Hybrid          =          FALSE

   => Exchange Functionals <=

    0.0800   Slater exchange
    0.7200         Becke 88

   => Exact (HF) Exchange <=

    0.2000               HF

   => Correlation Functionals <=

    0.1900   Vosko, Wilk & Nusair (VWN5_RPA)
    0.8100   Lee, Yang & Parr

   => LibXC Density Thresholds  <==

    XC_HYB_GGA_XC_B3LYP:  1.00E-15

   => Molecular Quadrature <=

    Radial Scheme          =       TREUTLER
    Pruning Scheme         =           NONE
    Nuclear Scheme         =       TREUTLER

    Blocking Scheme        =         OCTREE
    BS radius alpha        =              1
    Pruning alpha          =              1
    Radial Points          =             75
    Spherical Points       =            302
    Total Points           =          42919
    Total Blocks           =            380
    Max Points             =            256
    Max Functions          =             19
    Weights Tolerance      =       1.00E-15

  -Total Gradient:
     Atom            X                  Y                   Z
    ------   -----------------  -----------------  -----------------
       1       -0.000000000000     0.000000000000    -0.000013651974
       2        0.000000000000     0.000000000000     0.000018973196

*** tstop() called on Joses-MacBook-Pro-2.local at Thu Jul 17 09:19:51 2025
Module time:
	user time   =       0.29 seconds =       0.00 minutes
	system time =       0.64 seconds =       0.01 minutes
	total time  =          0 seconds =       0.00 minutes
Total time:
	user time   =      17.03 seconds =       0.28 minutes
	system time =      55.87 seconds =       0.93 minutes
	total time  =          8 seconds =       0.13 minutes

    			-----------------------------------------

    			 OPTKING 3.0: for geometry optimizations

    			     By R.A. King, Bethel University

    			        with contributions from

    			    A.V. Copan, J. Cayton, A. Heide

    			-----------------------------------------

	                            ===> Fragment 1 <==

	 Z (Atomic Numbers)          Masses                          Geom
	       2.000000             4.002603          0.00000000  0.00000000  4.20575829
	       8.000000            15.994915          0.00000000  0.00000000 -1.05245837

	 - Coordinate -           - BOHR/RAD -       - ANG/DEG -
	 R(1,2)           =         5.258217           2.782528

	        --- Internal Coordinate Step in ANG or DEG, aJ/ANG or AJ/DEG ---
	-------------------------------------------------------------------------------
	           Coordinate      Previous         Force          Change          New
	           ----------      --------        ------          ------        ------
	               R(1,2)       2.78253        0.00013        0.00625       2.78878
	-------------------------------------------------------------------------------

	                                 ==> Convergence Check <==

	Measures of convergence in internal coordinates in au.

	Criteria marked as inactive (o), active & met (*), and active & unmet ( ).

	----------------------------------------------------------------------------------------------
	   Step    Total Energy     Delta E     Max Force     RMS Force      Max Disp      RMS Disp
	----------------------------------------------------------------------------------------------
	  Convergence Criteria     1.00e-06 *    3.00e-04 *             o    1.20e-03 *             o
	----------------------------------------------------------------------------------------------
	    14     -77.96062195   -3.31e-07 *    1.63e-05 *    1.63e-05 o    1.18e-02      1.18e-02 o  ~
	----------------------------------------------------------------------------------------------

Next Geometry in Ang
	Fragment 1 (Ang)

	   He   0.0000000000   0.0000000000   2.2287184396
	    O   0.0000000000   0.0000000000  -0.5600639870

    Final optimized geometry and variables:
    Molecular point group: c2v
    Full point group: C_inf_v

    Geometry (in Angstrom), charge = -1, multiplicity = 2:

    HE           0.000000000000     0.000000000000     2.225591438230
    O            0.000000000000     0.000000000000    -0.556936985592

    Psi4 stopped on: Thursday, 17 July 2025 09:19AM
    Psi4 wall time for execution: 0:00:08.40

*** Psi4 exiting successfully. Buy a developer a beer!
