                               Psi4 1.9.1 release

  ==> Input File <==

--------------------------------------------------------------------------
molecule {
-1 2
Mg   0.00000        0.60000        0.00000
Ar   0.00000       -0.60000        0.00000
}

set {
basis              cc-pvdz
reference          uks
maxiter            500
geom_maxiter       500
DAMPING_PERCENTAGE 1
guess              SAP
}

optimize('b3lyp')
--------------------------------------------------------------------------

    Molecular point group: c2v
  Charge       = -1
  Multiplicity = 2
  Basis Set: CC-PVDZ
    Blend: CC-PVDZ
  Basis Set: (CC-PVDZ AUX)
    Blend: CC-PVDZ-JKFIT + DEF2-UNIVERSAL-JKFIT
  @DF-UKS Final Energy:  -726.27294746183054
    Total Energy =                       -726.2729474618305403
 Dipole X            :          0.0000000            0.0000000            0.0000000
 Dipole Y            :          0.0000000            0.0000000            0.0000000
 Dipole Z            :         -4.4596159            1.6956924           -2.7639235
 Magnitude           :                                                    2.7639235
    Molecular point group: c2v
  Basis Set: CC-PVDZ
    Blend: CC-PVDZ
  Basis Set: (CC-PVDZ AUX)
    Blend: CC-PVDZ-JKFIT + DEF2-UNIVERSAL-JKFIT
  Basis Set: CC-PVDZ
    Blend: CC-PVDZ
  Basis Set: (CC-PVDZ AUX)
    Blend: CC-PVDZ-JKFIT + DEF2-UNIVERSAL-JKFIT
  @DF-UKS Final Energy:  -726.30342148212139
    Total Energy =                       -726.3034214821213936
  Basis Set: CC-PVDZ
    Blend: CC-PVDZ
  Basis Set: (CC-PVDZ AUX)
    Blend: CC-PVDZ-JKFIT + DEF2-UNIVERSAL-JKFIT
  Basis Set: CC-PVDZ
    Blend: CC-PVDZ
  @DF-UKS Final Energy:  -726.36108377862695
    Total Energy =                       -726.3610837786270622
  @DF-UKS Final Energy:  -726.55846601110409
    Total Energy =                       -726.5584660111040876
  @DF-UKS Final Energy:  -727.11749583763947
    Total Energy =                       -727.1174958376394670
  @DF-UKS Final Energy:  -727.30932701265237
    Total Energy =                       -727.3093270126524885
  @DF-UKS Final Energy:  -727.42783974369650
    Total Energy =                       -727.4278397436966088
  @DF-UKS Final Energy:  -727.49753575744921
    Total Energy =                       -727.4975357574492136
  @DF-UKS Final Energy:  -727.53809868205008
    Total Energy =                       -727.5380986820500766
  @DF-UKS Final Energy:  -727.56305750914498
    Total Energy =                       -727.5630575091449828
  @DF-UKS Final Energy:  -727.57943918729870
    Total Energy =                       -727.5794391872987035
  @DF-UKS Final Energy:  -727.59047252848200
    Total Energy =                       -727.5904725284819961
  @DF-UKS Final Energy:  -727.59755695102501
    Total Energy =                       -727.5975569510250125
  @DF-UKS Final Energy:  -727.59770501461935
    Total Energy =                       -727.5977050146192369
  @DF-UKS Final Energy:  -727.60231785683891
    Total Energy =                       -727.6023178568389085
  @DF-UKS Final Energy:  -727.60236505049522
    Total Energy =                       -727.6023650504953366
  @DF-UKS Final Energy:  -727.60470938586764
    Total Energy =                       -727.6047093858676362
  @DF-UKS Final Energy:  -727.60472363499571
    Total Energy =                       -727.6047236349958212
  @DF-UKS Final Energy:  -727.60473773096987
    Total Energy =                       -727.6047377309699868
  @DF-UKS Final Energy:  -727.60590034940833
    Total Energy =                       -727.6059003494084436
  @DF-UKS Final Energy:  -727.60673102754538
    Total Energy =                       -727.6067310275453792
  @DF-UKS Final Energy:  -727.60673128761869
    Total Energy =                       -727.6067312876186861
  @DF-UKS Final Energy:  -727.60673154716608
    Total Energy =                       -727.6067315471660777
  @DF-UKS Final Energy:  -727.60673180607012
    Total Energy =                       -727.6067318060701155
  @DF-UKS Final Energy:  -727.60673206455726
    Total Energy =                       -727.6067320645571499
  @DF-UKS Final Energy:  -727.60673232244505
    Total Energy =                       -727.6067323224450547
  @DF-UKS Final Energy:  -727.60673257979249
    Total Energy =                       -727.6067325797924923
  @DF-UKS Final Energy:  -727.60673283659196
    Total Energy =                       -727.6067328365920730
  @DF-UKS Final Energy:  -727.60673309292235
    Total Energy =                       -727.6067330929224681
  @DF-UKS Final Energy:  -727.60673334863884
    Total Energy =                       -727.6067333486388407
  @DF-UKS Final Energy:  -727.60673360382964
    Total Energy =                       -727.6067336038297526
  @DF-UKS Final Energy:  -727.60673385856944
    Total Energy =                       -727.6067338585694415
  @DF-UKS Final Energy:  -727.60673411267749
    Total Energy =                       -727.6067341126774863
  @DF-UKS Final Energy:  -727.60673436635534
    Total Energy =                       -727.6067343663553402
  @DF-UKS Final Energy:  -727.60673461941815
    Total Energy =                       -727.6067346194181482
  @DF-UKS Final Energy:  -727.60673487200165
    Total Energy =                       -727.6067348720015389
  @DF-UKS Final Energy:  -727.60673512412916
    Total Energy =                       -727.6067351241291590
  @DF-UKS Final Energy:  -727.60673537567254
    Total Energy =                       -727.6067353756725424
  Basis Set: (CC-PVDZ AUX)
    Blend: CC-PVDZ-JKFIT + DEF2-UNIVERSAL-JKFIT
  Basis Set: CC-PVDZ
    Blend: CC-PVDZ
  Basis Set: (CC-PVDZ AUX)
    Blend: CC-PVDZ-JKFIT + DEF2-UNIVERSAL-JKFIT
  @DF-UKS Final Energy:  -727.60673562665897
    Total Energy =                       -727.6067356266589741
  Basis Set: CC-PVDZ
    Blend: CC-PVDZ
  Basis Set: (CC-PVDZ AUX)
    Blend: CC-PVDZ-JKFIT + DEF2-UNIVERSAL-JKFIT
  Charge       = -1
  Multiplicity = 2
  Basis Set: CC-PVDZ
    Blend: CC-PVDZ
  Basis Set: (CC-PVDZ AUX)
    Blend: CC-PVDZ-JKFIT + DEF2-UNIVERSAL-JKFIT

    Orbital Energies [Eh]
    ---------------------

    Alpha Occupied:

       1A1  -114.997473     2A1   -46.619918     3A1   -11.033543
       1B2    -8.583455     1B1    -8.583431     4A1    -8.583345
       5A1    -2.900942     6A1    -1.645115     2B2    -1.645107
       2B1    -1.643448     7A1    -0.861815     3B2    -0.320072
       3B1    -0.319819     8A1    -0.318650     9A1    -0.018022
       4B1     0.086806

    Alpha Virtual:

       4B2     0.126785    10A1     0.127709    11A1     0.254835
       5B1     0.326424     5B2     0.332956    12A1     0.334159
       6B1     0.507700     1A2     0.507760    13A1     0.508662
      14A1     0.512116     6B2     0.512720     7B2     0.684238
       7B1     0.684780    15A1     0.703530    16A1     0.855128
       2A2     0.937932    17A1     0.937992     8B2     0.938696
       8B1     0.938841    18A1     0.940260

    Beta Occupied:

       1A1  -114.997466     2A1   -46.619454     3A1   -11.033537
       1B2    -8.583449     1B1    -8.583417     4A1    -8.583337
       5A1    -2.900354     6A1    -1.644939     2B2    -1.644931
       2B1    -1.641212     7A1    -0.861790     3B2    -0.320071
       3B1    -0.319797     8A1    -0.318660     9A1    -0.004707

    Beta Virtual:

       4B2     0.130386    10A1     0.131438     4B1     0.144318
      11A1     0.261287     5B2     0.332472    12A1     0.333721
       5B1     0.345947    13A1     0.509012     6B2     0.509669
       6B1     0.524084     1A2     0.524138    14A1     0.529223
       7B2     0.684180     7B1     0.684752    15A1     0.703605
      16A1     0.855357     2A2     0.937952    17A1     0.938012
       8B2     0.938707     8B1     0.938873    18A1     0.940290

    Final Occupation by Irrep:
             A1    A2    B1    B2
    DOCC [     9,    0,    3,    3 ]
    SOCC [     0,    0,    1,    0 ]
    NA   [     9,    0,    4,    3 ]
    NB   [     9,    0,    3,    3 ]

  @DF-UKS Final Energy:  -727.60685066061524

   => Energetics <=

    Nuclear Repulsion Energy =             23.2665721875457088
    One-Electron Energy =               -1058.4756989937859544
    Two-Electron Energy =                 345.8689240343509823
    DFT Exchange-Correlation Energy =     -38.2666478887260482
    Empirical Dispersion Energy =           0.0000000000000000
    VV10 Nonlocal Energy =                  0.0000000000000000
    Total Energy =                       -727.6068506606152368

  UHF NO Occupations:
  HONO-2 :    8 A1 2.0000000
  HONO-1 :    9 A1 1.9990008
  HONO-0 :    4 B1 1.0000000
  LUNO+0 :   10 A1 0.0009992
  LUNO+1 :   11 A1 0.0000000
  LUNO+2 :    4 B2 0.0000000
  LUNO+3 :   12 A1 0.0000000

Computation Completed

Properties will be evaluated at   0.000000,   0.000000,   0.000000 [a0]

Properties computed using the SCF density matrix

 Multipole Moments:

 ------------------------------------------------------------------------------------
     Multipole            Electronic (a.u.)      Nuclear  (a.u.)        Total (a.u.)
 ------------------------------------------------------------------------------------

 L = 1.  Multiply by 2.5417464519 to convert [e a0] to [Debye]
 Dipole X            :          0.0000000            0.0000000            0.0000000
 Dipole Y            :          0.0000000            0.0000000            0.0000000
 Dipole Z            :        -12.7282233            6.9420591           -5.7861642
 Magnitude           :                                                    5.7861642

 ------------------------------------------------------------------------------------

*** tstop() called on Joses-MacBook-Pro-2.local at Thu Jul 17 11:32:24 2025
Module time:
	user time   =       6.47 seconds =       0.11 minutes
	system time =       3.93 seconds =       0.07 minutes
	total time  =          1 seconds =       0.02 minutes
Total time:
	user time   =     519.96 seconds =       8.67 minutes
	system time =     286.13 seconds =       4.77 minutes
	total time  =         78 seconds =       1.30 minutes

*** tstart() called on Joses-MacBook-Pro-2.local
*** at Thu Jul 17 11:32:24 2025

         ------------------------------------------------------------
                                   SCF GRAD
                          Rob Parrish, Justin Turney,
                       Andy Simmonett, and Alex Sokolov
         ------------------------------------------------------------

  ==> Geometry <==

    Molecular point group: c2v
    Full point group: C_inf_v

    Geometry (in Angstrom), charge = -1, multiplicity = 2:

       Center              X                  Y                   Z               Mass
    ------------   -----------------  -----------------  -----------------  -----------------
         MG           0.000000000000     0.000000000000     3.070087819984    23.985041697000
         AR           0.000000000000     0.000000000000    -1.842637466035    39.962383123700

  Nuclear repulsion =   23.266572187545709

  ==> Basis Set <==

  Basis Set: CC-PVDZ
    Blend: CC-PVDZ
    Number of shells: 16
    Number of basis functions: 36
    Number of Cartesian functions: 38
    Spherical Harmonics?: true
    Max angular momentum: 2

  ==> DFJKGrad: Density-Fitted SCF Gradients <==

    Gradient:                    1
    J tasked:                  Yes
    K tasked:                  Yes
    wK tasked:                  No
    OpenMP threads:              1
    Integrals threads:           1
    Memory [MiB]:              375
    Schwarz Cutoff:          1E-12
    Fitting Condition:       1E-10

   => Auxiliary Basis Set <=

  Basis Set: (CC-PVDZ AUX)
    Blend: CC-PVDZ-JKFIT + DEF2-UNIVERSAL-JKFIT
    Number of shells: 70
    Number of basis functions: 224
    Number of Cartesian functions: 267
    Spherical Harmonics?: true
    Max angular momentum: 4

  ==> DFT Potential <==

   => LibXC <=

    Version 6.2.2
    S. Lehtola, C. Steigemann, M. J.T. Oliveira, and M. A.L. Marques.,  SoftwareX 7, 1â€“5 (2018) (10.1016/j.softx.2017.11.002)

   => Composite Functional: B3LYP <=

    B3LYP Hyb-GGA Exchange-Correlation Functional

    P. J. Stephens, F. J. Devlin, C. F. Chabalowski, and M. J. Frisch.,  J. Phys. Chem. 98, 11623 (1994) (10.1021/j100096a001)

    Deriv               =              1
    GGA                 =           TRUE
    Meta                =          FALSE

    Exchange Hybrid     =           TRUE
    MP2 Hybrid          =          FALSE

   => Exchange Functionals <=

    0.0800   Slater exchange
    0.7200         Becke 88

   => Exact (HF) Exchange <=

    0.2000               HF

   => Correlation Functionals <=

    0.1900   Vosko, Wilk & Nusair (VWN5_RPA)
    0.8100   Lee, Yang & Parr

   => LibXC Density Thresholds  <==

    XC_HYB_GGA_XC_B3LYP:  1.00E-15

   => Molecular Quadrature <=

    Radial Scheme          =       TREUTLER
    Pruning Scheme         =           NONE
    Nuclear Scheme         =       TREUTLER

    Blocking Scheme        =         OCTREE
    BS radius alpha        =              1
    Pruning alpha          =              1
    Radial Points          =             75
    Spherical Points       =            302
    Total Points           =          43149
    Total Blocks           =            453
    Max Points             =            256
    Max Functions          =             36
    Weights Tolerance      =       1.00E-15

  -Total Gradient:
     Atom            X                  Y                   Z
    ------   -----------------  -----------------  -----------------
       1        0.000000000000     0.000000000000    -0.000149922427
       2        0.000000000000    -0.000000000000     0.000137325548

*** tstop() called on Joses-MacBook-Pro-2.local at Thu Jul 17 11:32:24 2025
Module time:
	user time   =       1.84 seconds =       0.03 minutes
	system time =       1.99 seconds =       0.03 minutes
	total time  =          0 seconds =       0.00 minutes
Total time:
	user time   =     521.81 seconds =       8.70 minutes
	system time =     288.12 seconds =       4.80 minutes
	total time  =         78 seconds =       1.30 minutes

    			-----------------------------------------

    			 OPTKING 3.0: for geometry optimizations

    			     By R.A. King, Bethel University

    			        with contributions from

    			    A.V. Copan, J. Cayton, A. Heide

    			-----------------------------------------

	                            ===> Fragment 1 <==

	 Z (Atomic Numbers)          Masses                          Geom
	      12.000000            23.985042          0.00000000  0.00000000  5.80162516
	      18.000000            39.962383          0.00000000  0.00000000 -3.48208016

	 - Coordinate -           - BOHR/RAD -       - ANG/DEG -
	 R(1,2)           =         9.283705           4.912725

	        --- Internal Coordinate Step in ANG or DEG, aJ/ANG or AJ/DEG ---
	-------------------------------------------------------------------------------
	           Coordinate      Previous         Force          Change          New
	           ----------      --------        ------          ------        ------
	               R(1,2)       4.91273        0.00118        0.00021       4.91293
	-------------------------------------------------------------------------------

	                                 ==> Convergence Check <==

	Measures of convergence in internal coordinates in au.

	Criteria marked as inactive (o), active & met (*), and active & unmet ( ).

	----------------------------------------------------------------------------------------------
	   Step    Total Energy     Delta E     Max Force     RMS Force      Max Disp      RMS Disp
	----------------------------------------------------------------------------------------------
	  Convergence Criteria     1.00e-06 *    3.00e-04 *             o    1.20e-03 *             o
	----------------------------------------------------------------------------------------------
	    52    -727.60685066   -1.15e-04      1.44e-04 *    1.44e-04 o    3.89e-04 *    3.89e-04 o  ~
	----------------------------------------------------------------------------------------------

Next Geometry in Ang
	Fragment 1 (Ang)

	   Mg   0.0000000000   0.0000000000   3.0701907344
	   Ar   0.0000000000   0.0000000000  -1.8427403805

    Final optimized geometry and variables:
    Molecular point group: c2v
    Full point group: C_inf_v

    Geometry (in Angstrom), charge = -1, multiplicity = 2:

    MG           0.000000000000     0.000000000000     3.070087819984
    AR           0.000000000000     0.000000000000    -1.842637466035

    Psi4 stopped on: Thursday, 17 July 2025 11:32AM
    Psi4 wall time for execution: 0:01:19.39

*** Psi4 exiting successfully. Buy a developer a beer!
