                               Psi4 1.9.1 release

  ==> Input File <==

--------------------------------------------------------------------------
molecule {
-1 2
Li   0.00000        0.60000        0.00000
N   0.00000       -0.60000        0.00000
}

set {
basis              cc-pvdz
reference          uks
maxiter            500
geom_maxiter       500
DAMPING_PERCENTAGE 1
guess              SAP
}

optimize('b3lyp')
--------------------------------------------------------------------------

    Molecular point group: c2v
  Charge       = -1
  Multiplicity = 2
  Basis Set: CC-PVDZ
    Blend: CC-PVDZ
  Basis Set: (CC-PVDZ AUX)
    Blend: CC-PVDZ-JKFIT + DEF2-UNIVERSAL-JKFIT
  @DF-UKS Final Energy:   -62.00574224986166
    Total Energy =                        -62.0057422498616617
 Dipole X            :          0.0000000            0.0000000            0.0000000
 Dipole Y            :          0.0000000            0.0000000            0.0000000
 Dipole Z            :          1.8795520           -0.7662953            1.1132567
 Magnitude           :                                                    1.1132567
    Molecular point group: c2v
  Basis Set: CC-PVDZ
    Blend: CC-PVDZ
  Basis Set: (CC-PVDZ AUX)
    Blend: CC-PVDZ-JKFIT + DEF2-UNIVERSAL-JKFIT
  Basis Set: CC-PVDZ
    Blend: CC-PVDZ
  Basis Set: (CC-PVDZ AUX)
    Blend: CC-PVDZ-JKFIT + DEF2-UNIVERSAL-JKFIT
  @DF-UKS Final Energy:   -62.09289227741296
    Total Energy =                        -62.0928922774129646
  Basis Set: CC-PVDZ
    Blend: CC-PVDZ
  Basis Set: (CC-PVDZ AUX)
    Blend: CC-PVDZ-JKFIT + DEF2-UNIVERSAL-JKFIT
  Basis Set: CC-PVDZ
    Blend: CC-PVDZ
  @DF-UKS Final Energy:   -62.11852271144451
    Total Energy =                        -62.1185227114445055
  @DF-UKS Final Energy:   -62.12794229244268
    Total Energy =                        -62.1279422924426825
  @DF-UKS Final Energy:   -62.12983917135439
    Total Energy =                        -62.1298391713543907
  @DF-UKS Final Energy:   -62.13029379220493
    Total Energy =                        -62.1302937922049310
  @DF-UKS Final Energy:   -62.13043852882180
    Total Energy =                        -62.1304385288217986
  @DF-UKS Final Energy:   -62.13045875949572
    Total Energy =                        -62.1304587594957169
  Basis Set: (CC-PVDZ AUX)
    Blend: CC-PVDZ-JKFIT + DEF2-UNIVERSAL-JKFIT
  Basis Set: CC-PVDZ
    Blend: CC-PVDZ
  Basis Set: (CC-PVDZ AUX)
    Blend: CC-PVDZ-JKFIT + DEF2-UNIVERSAL-JKFIT
  @DF-UKS Final Energy:   -62.13046203181769
    Total Energy =                        -62.1304620318176859
  Basis Set: CC-PVDZ
    Blend: CC-PVDZ
  Basis Set: (CC-PVDZ AUX)
    Blend: CC-PVDZ-JKFIT + DEF2-UNIVERSAL-JKFIT
  Charge       = -1
  Multiplicity = 2
  Basis Set: CC-PVDZ
    Blend: CC-PVDZ
  Basis Set: (CC-PVDZ AUX)
    Blend: CC-PVDZ-JKFIT + DEF2-UNIVERSAL-JKFIT

    Orbital Energies [Eh]
    ---------------------

    Alpha Occupied:

       1A1   -14.098175     2A1    -1.805364     3A1    -0.470892
       4A1    -0.058177     1B1    -0.010071     1B2    -0.010071

    Alpha Virtual:

       5A1     0.086639     2B1     0.131630     2B2     0.131630
       6A1     0.157502     7A1     0.232864     3B2     0.261352
       3B1     0.261352     8A1     0.375001     1A2     0.416415
       9A1     0.416415     4B1     0.477703     4B2     0.477703
      10A1     0.563809    11A1     1.043547     5B2     1.110532
       5B1     1.110532    12A1     1.708789    13A1     1.976474
      14A1     2.045471     2A2     2.045474     6B1     2.050657
       6B2     2.050657

    Beta Occupied:

       1A1   -14.066646     2A1    -1.802263     3A1    -0.362504
       1B2     0.053525     1B1     0.053525

    Beta Virtual:

       4A1     0.076261     5A1     0.140226     2B2     0.142743
       2B1     0.142743     6A1     0.167360     7A1     0.236669
       3B2     0.261948     3B1     0.261948     8A1     0.390929
       1A2     0.405054     9A1     0.405054     4B1     0.484440
       4B2     0.484440    10A1     0.575382    11A1     1.132430
       5B2     1.154230     5B1     1.154230    12A1     1.756475
      13A1     2.085563    14A1     2.103975     2A2     2.103977
       6B1     2.143345     6B2     2.143345

    Final Occupation by Irrep:
             A1    A2    B1    B2
    DOCC [     3,    0,    1,    1 ]
    SOCC [     1,    0,    0,    0 ]
    NA   [     4,    0,    1,    1 ]
    NB   [     3,    0,    1,    1 ]

  @DF-UKS Final Energy:   -62.13046220173973

   => Energetics <=

    Nuclear Repulsion Energy =              6.5739953284404473
    One-Electron Energy =                 -99.6769832757540257
    Two-Electron Energy =                  38.1235107861195246
    DFT Exchange-Correlation Energy =      -7.1509850405456685
    Empirical Dispersion Energy =           0.0000000000000000
    VV10 Nonlocal Energy =                  0.0000000000000000
    Total Energy =                        -62.1304622017397250

  UHF NO Occupations:
  HONO-2 :    1 B2 1.9049157
  HONO-1 :    1 B1 1.9049157
  HONO-0 :    4 A1 1.0000000
  LUNO+0 :    2 B1 0.0950843
  LUNO+1 :    2 B2 0.0950843
  LUNO+2 :    5 A1 0.0011422
  LUNO+3 :    6 A1 0.0000006

Computation Completed

Properties will be evaluated at   0.000000,   0.000000,   0.000000 [a0]

Properties computed using the SCF density matrix

 Multipole Moments:

 ------------------------------------------------------------------------------------
     Multipole            Electronic (a.u.)      Nuclear  (a.u.)        Total (a.u.)
 ------------------------------------------------------------------------------------

 L = 1.  Multiply by 2.5417464519 to convert [e a0] to [Debye]
 Dipole X            :          0.0000000            0.0000000            0.0000000
 Dipole Y            :          0.0000000            0.0000000            0.0000000
 Dipole Z            :          1.7218721           -1.0794585            0.6424136
 Magnitude           :                                                    0.6424136

 ------------------------------------------------------------------------------------

*** tstop() called on Joses-MacBook-Pro-2.local at Thu Jul 17 09:29:08 2025
Module time:
	user time   =       3.95 seconds =       0.07 minutes
	system time =       2.90 seconds =       0.05 minutes
	total time  =          1 seconds =       0.02 minutes
Total time:
	user time   =      48.91 seconds =       0.82 minutes
	system time =      52.88 seconds =       0.88 minutes
	total time  =         10 seconds =       0.17 minutes

*** tstart() called on Joses-MacBook-Pro-2.local
*** at Thu Jul 17 09:29:08 2025

         ------------------------------------------------------------
                                   SCF GRAD
                          Rob Parrish, Justin Turney,
                       Andy Simmonett, and Alex Sokolov
         ------------------------------------------------------------

  ==> Geometry <==

    Molecular point group: c2v
    Full point group: C_inf_v

    Geometry (in Angstrom), charge = -1, multiplicity = 2:

       Center              X                  Y                   Z               Mass
    ------------   -----------------  -----------------  -----------------  -----------------
         LI           0.000000000000     0.000000000000     1.126161743862     7.016003436600
         N            0.000000000000     0.000000000000    -0.564244298259    14.003074004430

  Nuclear repulsion =    6.573995328440447

  ==> Basis Set <==

  Basis Set: CC-PVDZ
    Blend: CC-PVDZ
    Number of shells: 12
    Number of basis functions: 28
    Number of Cartesian functions: 30
    Spherical Harmonics?: true
    Max angular momentum: 2

  ==> DFJKGrad: Density-Fitted SCF Gradients <==

    Gradient:                    1
    J tasked:                  Yes
    K tasked:                  Yes
    wK tasked:                  No
    OpenMP threads:              1
    Integrals threads:           1
    Memory [MiB]:              375
    Schwarz Cutoff:          1E-12
    Fitting Condition:       1E-10

   => Auxiliary Basis Set <=

  Basis Set: (CC-PVDZ AUX)
    Blend: CC-PVDZ-JKFIT + DEF2-UNIVERSAL-JKFIT
    Number of shells: 41
    Number of basis functions: 121
    Number of Cartesian functions: 141
    Spherical Harmonics?: true
    Max angular momentum: 3

  ==> DFT Potential <==

   => LibXC <=

    Version 6.2.2
    S. Lehtola, C. Steigemann, M. J.T. Oliveira, and M. A.L. Marques.,  SoftwareX 7, 1â€“5 (2018) (10.1016/j.softx.2017.11.002)

   => Composite Functional: B3LYP <=

    B3LYP Hyb-GGA Exchange-Correlation Functional

    P. J. Stephens, F. J. Devlin, C. F. Chabalowski, and M. J. Frisch.,  J. Phys. Chem. 98, 11623 (1994) (10.1021/j100096a001)

    Deriv               =              1
    GGA                 =           TRUE
    Meta                =          FALSE

    Exchange Hybrid     =           TRUE
    MP2 Hybrid          =          FALSE

   => Exchange Functionals <=

    0.0800   Slater exchange
    0.7200         Becke 88

   => Exact (HF) Exchange <=

    0.2000               HF

   => Correlation Functionals <=

    0.1900   Vosko, Wilk & Nusair (VWN5_RPA)
    0.8100   Lee, Yang & Parr

   => LibXC Density Thresholds  <==

    XC_HYB_GGA_XC_B3LYP:  1.00E-15

   => Molecular Quadrature <=

    Radial Scheme          =       TREUTLER
    Pruning Scheme         =           NONE
    Nuclear Scheme         =       TREUTLER

    Blocking Scheme        =         OCTREE
    BS radius alpha        =              1
    Pruning alpha          =              1
    Radial Points          =             75
    Spherical Points       =            302
    Total Points           =          44281
    Total Blocks           =            425
    Max Points             =            256
    Max Functions          =             28
    Weights Tolerance      =       1.00E-15

  -Total Gradient:
     Atom            X                  Y                   Z
    ------   -----------------  -----------------  -----------------
       1       -0.000000000000    -0.000000000000     0.000000670931
       2        0.000000000000    -0.000000000000     0.000047169444

*** tstop() called on Joses-MacBook-Pro-2.local at Thu Jul 17 09:29:08 2025
Module time:
	user time   =       0.62 seconds =       0.01 minutes
	system time =       1.17 seconds =       0.02 minutes
	total time  =          0 seconds =       0.00 minutes
Total time:
	user time   =      49.53 seconds =       0.83 minutes
	system time =      54.06 seconds =       0.90 minutes
	total time  =         10 seconds =       0.17 minutes

    			-----------------------------------------

    			 OPTKING 3.0: for geometry optimizations

    			     By R.A. King, Bethel University

    			        with contributions from

    			    A.V. Copan, J. Cayton, A. Heide

    			-----------------------------------------

	                            ===> Fragment 1 <==

	 Z (Atomic Numbers)          Masses                          Geom
	       3.000000             7.016003          0.00000000  0.00000000  2.12813727
	       7.000000            14.003074          0.00000000  0.00000000 -1.06626719

	 - Coordinate -           - BOHR/RAD -       - ANG/DEG -
	 R(1,2)           =         3.194404           1.690406

	        --- Internal Coordinate Step in ANG or DEG, aJ/ANG or AJ/DEG ---
	-------------------------------------------------------------------------------
	           Coordinate      Previous         Force          Change          New
	           ----------      --------        ------          ------        ------
	               R(1,2)       1.69041        0.00019        0.00009       1.69050
	-------------------------------------------------------------------------------

	                                 ==> Convergence Check <==

	Measures of convergence in internal coordinates in au.

	Criteria marked as inactive (o), active & met (*), and active & unmet ( ).

	----------------------------------------------------------------------------------------------
	   Step    Total Energy     Delta E     Max Force     RMS Force      Max Disp      RMS Disp
	----------------------------------------------------------------------------------------------
	  Convergence Criteria     1.00e-06 *    3.00e-04 *             o    1.20e-03 *             o
	----------------------------------------------------------------------------------------------
	    10     -62.13046220   -1.70e-07 *    2.32e-05 *    2.32e-05 o    1.77e-04 *    1.77e-04 o  ~
	----------------------------------------------------------------------------------------------

Next Geometry in Ang
	Fragment 1 (Ang)

	   Li   0.0000000000   0.0000000000   1.1262084991
	    N   0.0000000000   0.0000000000  -0.5642910535

    Final optimized geometry and variables:
    Molecular point group: c2v
    Full point group: C_inf_v

    Geometry (in Angstrom), charge = -1, multiplicity = 2:

    LI           0.000000000000     0.000000000000     1.126161743862
    N            0.000000000000     0.000000000000    -0.564244298259

    Psi4 stopped on: Thursday, 17 July 2025 09:29AM
    Psi4 wall time for execution: 0:00:10.36

*** Psi4 exiting successfully. Buy a developer a beer!
