                               Psi4 1.9.1 release

  ==> Input File <==

--------------------------------------------------------------------------
molecule {
-1 2
C   0.00000        0.60000        0.00000
S   0.00000       -0.60000        0.00000
}

set {
basis              cc-pvdz
reference          uks
maxiter            500
geom_maxiter       500
DAMPING_PERCENTAGE 1
guess              SAP
}

optimize('b3lyp')
--------------------------------------------------------------------------

    Molecular point group: c2v
  Charge       = -1
  Multiplicity = 2
  Basis Set: CC-PVDZ
    Blend: CC-PVDZ
  Basis Set: (CC-PVDZ AUX)
    Blend: CC-PVDZ-JKFIT
  @DF-UKS Final Energy:  -435.90204821091049
    Total Energy =                       -435.9020482109104933
 Dipole X            :          0.0000000            0.0000000            0.0000000
 Dipole Y            :          0.0000000            0.0000000            0.0000000
 Dipole Z            :         -1.3553780           -0.0086419           -1.3640199
 Magnitude           :                                                    1.3640199
    Molecular point group: c2v
  Basis Set: CC-PVDZ
    Blend: CC-PVDZ
  Basis Set: (CC-PVDZ AUX)
    Blend: CC-PVDZ-JKFIT
  Basis Set: CC-PVDZ
    Blend: CC-PVDZ
  Basis Set: (CC-PVDZ AUX)
    Blend: CC-PVDZ-JKFIT
  @DF-UKS Final Energy:  -436.09926755714497
    Total Energy =                       -436.0992675571449695
  Basis Set: CC-PVDZ
    Blend: CC-PVDZ
  Basis Set: (CC-PVDZ AUX)
    Blend: CC-PVDZ-JKFIT
  Basis Set: CC-PVDZ
    Blend: CC-PVDZ
  @DF-UKS Final Energy:  -436.17938834891686
    Total Energy =                       -436.1793883489168593
  @DF-UKS Final Energy:  -436.20425358495697
    Total Energy =                       -436.2042535849569731
  @DF-UKS Final Energy:  -436.21667374563833
    Total Energy =                       -436.2166737456383316
  @DF-UKS Final Energy:  -436.22015449846901
    Total Energy =                       -436.2201544984690145
  @DF-UKS Final Energy:  -436.22154702418857
    Total Energy =                       -436.2215470241885669
  @DF-UKS Final Energy:  -436.22181400843510
    Total Energy =                       -436.2218140084351035
  @DF-UKS Final Energy:  -436.22187573213364
    Total Energy =                       -436.2218757321336398
  Basis Set: (CC-PVDZ AUX)
    Blend: CC-PVDZ-JKFIT
  Basis Set: CC-PVDZ
    Blend: CC-PVDZ
  Basis Set: (CC-PVDZ AUX)
    Blend: CC-PVDZ-JKFIT
  @DF-UKS Final Energy:  -436.22188361921712
    Total Energy =                       -436.2218836192171239
  Basis Set: CC-PVDZ
    Blend: CC-PVDZ
  Basis Set: (CC-PVDZ AUX)
    Blend: CC-PVDZ-JKFIT
  Charge       = -1
  Multiplicity = 2
  Basis Set: CC-PVDZ
    Blend: CC-PVDZ
  Basis Set: (CC-PVDZ AUX)
    Blend: CC-PVDZ-JKFIT

    Orbital Energies [Eh]
    ---------------------

    Alpha Occupied:

       1A1   -88.605708     2A1    -9.954899     3A1    -7.667825
       4A1    -5.628930     1B1    -5.628659     1B2    -5.626139
       5A1    -0.494297     6A1    -0.234142     2B2    -0.055739
       2B1    -0.044214     7A1    -0.023696     3B2     0.110255

    Alpha Virtual:

       3B1     0.189031     8A1     0.361824     9A1     0.666650
       4B1     0.719534     4B2     0.719949    10A1     0.731228
       5B2     0.771002    11A1     0.773302     5B1     0.787172
       1A2     0.858698    12A1     0.859181     6B2     0.891597
       6B1     0.892381    13A1     1.098423    14A1     1.314144
       2A2     1.444361    15A1     1.448462     7B2     1.687693
       7B1     1.691879    16A1     2.066932

    Beta Occupied:

       1A1   -88.604914     2A1    -9.943366     3A1    -7.667029
       4A1    -5.628728     1B1    -5.628682     1B2    -5.622707
       5A1    -0.480814     6A1    -0.206022     2B1    -0.040661
       2B2    -0.019861     7A1    -0.006362

    Beta Virtual:

       3B1     0.202503     3B2     0.236081     8A1     0.371478
       9A1     0.670841     4B1     0.721014     4B2     0.735417
      10A1     0.738751    11A1     0.781761     5B1     0.796663
       5B2     0.823787     1A2     0.868050    12A1     0.868192
       6B1     0.893417     6B2     0.912087    13A1     1.118976
      14A1     1.323383     2A2     1.495087    15A1     1.495282
       7B1     1.698046     7B2     1.727369    16A1     2.084097

    Final Occupation by Irrep:
             A1    A2    B1    B2
    DOCC [     7,    0,    2,    2 ]
    SOCC [     0,    0,    0,    1 ]
    NA   [     7,    0,    2,    3 ]
    NB   [     7,    0,    2,    2 ]

  @DF-UKS Final Energy:  -436.22188400093199

   => Energetics <=

    Nuclear Repulsion Energy =             30.4573348427194546
    One-Electron Energy =                -667.6917787879120851
    Two-Electron Energy =                 226.2131591232457311
    DFT Exchange-Correlation Energy =     -25.2005991789850370
    Empirical Dispersion Energy =           0.0000000000000000
    VV10 Nonlocal Energy =                  0.0000000000000000
    Total Energy =                       -436.2218840009319365

  UHF NO Occupations:
  HONO-2 :    2 B1 1.9992926
  HONO-1 :    7 A1 1.9992593
  HONO-0 :    3 B2 1.0000000
  LUNO+0 :    8 A1 0.0007407
  LUNO+1 :    3 B1 0.0007074
  LUNO+2 :    4 B2 0.0006584
  LUNO+3 :    9 A1 0.0000858

Computation Completed

Properties will be evaluated at   0.000000,   0.000000,   0.000000 [a0]

Properties computed using the SCF density matrix

 Multipole Moments:

 ------------------------------------------------------------------------------------
     Multipole            Electronic (a.u.)      Nuclear  (a.u.)        Total (a.u.)
 ------------------------------------------------------------------------------------

 L = 1.  Multiply by 2.5417464519 to convert [e a0] to [Debye]
 Dipole X            :          0.0000000            0.0000000            0.0000000
 Dipole Y            :          0.0000000            0.0000000            0.0000000
 Dipole Z            :         -0.9866638           -0.0120118           -0.9986756
 Magnitude           :                                                    0.9986756

 ------------------------------------------------------------------------------------

*** tstop() called on Joses-MacBook-Pro-2.local at Thu Jul 17 10:21:54 2025
Module time:
	user time   =       4.22 seconds =       0.07 minutes
	system time =       2.86 seconds =       0.05 minutes
	total time  =          0 seconds =       0.00 minutes
Total time:
	user time   =      76.42 seconds =       1.27 minutes
	system time =      44.26 seconds =       0.74 minutes
	total time  =         13 seconds =       0.22 minutes

*** tstart() called on Joses-MacBook-Pro-2.local
*** at Thu Jul 17 10:21:54 2025

         ------------------------------------------------------------
                                   SCF GRAD
                          Rob Parrish, Justin Turney,
                       Andy Simmonett, and Alex Sokolov
         ------------------------------------------------------------

  ==> Geometry <==

    Molecular point group: c2v
    Full point group: C_inf_v

    Geometry (in Angstrom), charge = -1, multiplicity = 2:

       Center              X                  Y                   Z               Mass
    ------------   -----------------  -----------------  -----------------  -----------------
         C            0.000000000000     0.000000000000     1.212758470845    12.000000000000
         S            0.000000000000     0.000000000000    -0.455181698138    31.972071174400

  Nuclear repulsion =   30.457334842719455

  ==> Basis Set <==

  Basis Set: CC-PVDZ
    Blend: CC-PVDZ
    Number of shells: 14
    Number of basis functions: 32
    Number of Cartesian functions: 34
    Spherical Harmonics?: true
    Max angular momentum: 2

  ==> DFJKGrad: Density-Fitted SCF Gradients <==

    Gradient:                    1
    J tasked:                  Yes
    K tasked:                  Yes
    wK tasked:                  No
    OpenMP threads:              1
    Integrals threads:           1
    Memory [MiB]:              375
    Schwarz Cutoff:          1E-12
    Fitting Condition:       1E-10

   => Auxiliary Basis Set <=

  Basis Set: (CC-PVDZ AUX)
    Blend: CC-PVDZ-JKFIT
    Number of shells: 60
    Number of basis functions: 182
    Number of Cartesian functions: 211
    Spherical Harmonics?: true
    Max angular momentum: 3

  ==> DFT Potential <==

   => LibXC <=

    Version 6.2.2
    S. Lehtola, C. Steigemann, M. J.T. Oliveira, and M. A.L. Marques.,  SoftwareX 7, 1â€“5 (2018) (10.1016/j.softx.2017.11.002)

   => Composite Functional: B3LYP <=

    B3LYP Hyb-GGA Exchange-Correlation Functional

    P. J. Stephens, F. J. Devlin, C. F. Chabalowski, and M. J. Frisch.,  J. Phys. Chem. 98, 11623 (1994) (10.1021/j100096a001)

    Deriv               =              1
    GGA                 =           TRUE
    Meta                =          FALSE

    Exchange Hybrid     =           TRUE
    MP2 Hybrid          =          FALSE

   => Exchange Functionals <=

    0.0800   Slater exchange
    0.7200         Becke 88

   => Exact (HF) Exchange <=

    0.2000               HF

   => Correlation Functionals <=

    0.1900   Vosko, Wilk & Nusair (VWN5_RPA)
    0.8100   Lee, Yang & Parr

   => LibXC Density Thresholds  <==

    XC_HYB_GGA_XC_B3LYP:  1.00E-15

   => Molecular Quadrature <=

    Radial Scheme          =       TREUTLER
    Pruning Scheme         =           NONE
    Nuclear Scheme         =       TREUTLER

    Blocking Scheme        =         OCTREE
    BS radius alpha        =              1
    Pruning alpha          =              1
    Radial Points          =             75
    Spherical Points       =            302
    Total Points           =          41359
    Total Blocks           =            370
    Max Points             =            255
    Max Functions          =             32
    Weights Tolerance      =       1.00E-15

  -Total Gradient:
     Atom            X                  Y                   Z
    ------   -----------------  -----------------  -----------------
       1       -0.000000000000     0.000000000000    -0.000074160081
       2        0.000000000000    -0.000000000000     0.000059057294

*** tstop() called on Joses-MacBook-Pro-2.local at Thu Jul 17 10:21:55 2025
Module time:
	user time   =       1.54 seconds =       0.03 minutes
	system time =       1.03 seconds =       0.02 minutes
	total time  =          1 seconds =       0.02 minutes
Total time:
	user time   =      77.96 seconds =       1.30 minutes
	system time =      45.29 seconds =       0.75 minutes
	total time  =         14 seconds =       0.23 minutes

    			-----------------------------------------

    			 OPTKING 3.0: for geometry optimizations

    			     By R.A. King, Bethel University

    			        with contributions from

    			    A.V. Copan, J. Cayton, A. Heide

    			-----------------------------------------

	                            ===> Fragment 1 <==

	 Z (Atomic Numbers)          Masses                          Geom
	       6.000000            12.000000          0.00000000  0.00000000  2.29178137
	      16.000000            31.972071          0.00000000  0.00000000 -0.86016875

	 - Coordinate -           - BOHR/RAD -       - ANG/DEG -
	 R(1,2)           =         3.151950           1.667940

	        --- Internal Coordinate Step in ANG or DEG, aJ/ANG or AJ/DEG ---
	-------------------------------------------------------------------------------
	           Coordinate      Previous         Force          Change          New
	           ----------      --------        ------          ------        ------
	               R(1,2)       1.66794        0.00055        0.00011       1.66805
	-------------------------------------------------------------------------------

	                                 ==> Convergence Check <==

	Measures of convergence in internal coordinates in au.

	Criteria marked as inactive (o), active & met (*), and active & unmet ( ).

	----------------------------------------------------------------------------------------------
	   Step    Total Energy     Delta E     Max Force     RMS Force      Max Disp      RMS Disp
	----------------------------------------------------------------------------------------------
	  Convergence Criteria     1.00e-06 *    3.00e-04 *             o    1.20e-03 *             o
	----------------------------------------------------------------------------------------------
	    11    -436.22188400   -3.82e-07 *    6.66e-05 *    6.66e-05 o    1.99e-04 *    1.99e-04 o  ~
	----------------------------------------------------------------------------------------------

Next Geometry in Ang
	Fragment 1 (Ang)

	    C   0.0000000000   0.0000000000   1.2128112463
	    S   0.0000000000   0.0000000000  -0.4552344735

    Final optimized geometry and variables:
    Molecular point group: c2v
    Full point group: C_inf_v

    Geometry (in Angstrom), charge = -1, multiplicity = 2:

    C            0.000000000000     0.000000000000     1.212758470845
    S            0.000000000000     0.000000000000    -0.455181698138

    Psi4 stopped on: Thursday, 17 July 2025 10:21AM
    Psi4 wall time for execution: 0:00:14.24

*** Psi4 exiting successfully. Buy a developer a beer!
