                               Psi4 1.9.1 release

  ==> Input File <==

--------------------------------------------------------------------------
molecule {
-1 2
C   0.00000        0.60000        0.00000
Ne   0.00000       -0.60000        0.00000
}

set {
basis              cc-pvdz
reference          uks
maxiter            500
geom_maxiter       500
DAMPING_PERCENTAGE 1
guess              SAP
}

optimize('b3lyp')
--------------------------------------------------------------------------

    Molecular point group: c2v
  Charge       = -1
  Multiplicity = 2
  Basis Set: CC-PVDZ
    Blend: CC-PVDZ
  Basis Set: (CC-PVDZ AUX)
    Blend: CC-PVDZ-JKFIT
  @DF-UKS Final Energy:  -166.45597166874700
    Total Energy =                       -166.4559716687469688
 Dipole X            :          0.0000000            0.0000000            0.0000000
 Dipole Y            :          0.0000000            0.0000000            0.0000000
 Dipole Z            :         -2.8157667           -0.0032151           -2.8189818
 Magnitude           :                                                    2.8189818
    Molecular point group: c2v
  Basis Set: CC-PVDZ
    Blend: CC-PVDZ
  Basis Set: (CC-PVDZ AUX)
    Blend: CC-PVDZ-JKFIT
  Basis Set: CC-PVDZ
    Blend: CC-PVDZ
  Basis Set: (CC-PVDZ AUX)
    Blend: CC-PVDZ-JKFIT
  @DF-UKS Final Energy:  -166.57788282476588
    Total Energy =                       -166.5778828247658794
  Basis Set: CC-PVDZ
    Blend: CC-PVDZ
  Basis Set: (CC-PVDZ AUX)
    Blend: CC-PVDZ-JKFIT
  Basis Set: CC-PVDZ
    Blend: CC-PVDZ
  @DF-UKS Final Energy:  -166.63368631895477
    Total Energy =                       -166.6336863189548012
  @DF-UKS Final Energy:  -166.66952256885702
    Total Energy =                       -166.6695225688570190
  @DF-UKS Final Energy:  -166.68719298717471
    Total Energy =                       -166.6871929871747113
  @DF-UKS Final Energy:  -166.69600477122913
    Total Energy =                       -166.6960047712291271
  @DF-UKS Final Energy:  -166.70031288948829
    Total Energy =                       -166.7003128894882877
  @DF-UKS Final Energy:  -166.70230199883420
    Total Energy =                       -166.7023019988341730
  @DF-UKS Final Energy:  -166.70309519177033
    Total Energy =                       -166.7030951917703305
  @DF-UKS Final Energy:  -166.70334922808698
    Total Energy =                       -166.7033492280869496
  @DF-UKS Final Energy:  -166.70339805763032
    Total Energy =                       -166.7033980576303236
  @DF-UKS Final Energy:  -166.70341159635296
    Total Energy =                       -166.7034115963529644
  Basis Set: (CC-PVDZ AUX)
    Blend: CC-PVDZ-JKFIT
  Basis Set: CC-PVDZ
    Blend: CC-PVDZ
  Basis Set: (CC-PVDZ AUX)
    Blend: CC-PVDZ-JKFIT
  @DF-UKS Final Energy:  -166.70341312524820
    Total Energy =                       -166.7034131252482041
  Basis Set: CC-PVDZ
    Blend: CC-PVDZ
  Basis Set: (CC-PVDZ AUX)
    Blend: CC-PVDZ-JKFIT
  Charge       = -1
  Multiplicity = 2
  Basis Set: CC-PVDZ
    Blend: CC-PVDZ
  Basis Set: (CC-PVDZ AUX)
    Blend: CC-PVDZ-JKFIT

    Orbital Energies [Eh]
    ---------------------

    Alpha Occupied:

       1A1   -30.792781     2A1    -9.867110     3A1    -1.257725
       1B2    -0.366708     1B1    -0.366388     4A1    -0.365696
       5A1    -0.163440     2B2     0.128760     2B1     0.176266

    Alpha Virtual:

       6A1     0.230665     3B2     0.793810     7A1     0.825112
       3B1     0.829701     8A1     0.896295     9A1     1.485562
       4B2     1.500313     4B1     1.526661     1A2     1.535550
       5B2     1.538931    10A1     1.542309     5B1     1.551638
      11A1     1.634702    12A1     2.048230     2A2     4.898964
      13A1     4.899048     6B2     4.899803     6B1     4.899998
      14A1     4.901924

    Beta Occupied:

       1A1   -30.792771     2A1    -9.856027     3A1    -1.257714
       1B2    -0.366655     1B1    -0.366391     4A1    -0.365671
       5A1    -0.112828     2B1     0.189794

    Beta Virtual:

       6A1     0.245105     2B2     0.285994     7A1     0.834928
       3B1     0.839622     3B2     0.867733     8A1     0.924316
       9A1     1.507350     4B1     1.528294     4B2     1.530981
       5B1     1.555361     5B2     1.570295     1A2     1.586588
      10A1     1.594304    11A1     1.640201    12A1     2.048943
       2A2     4.898988    13A1     4.899073     6B2     4.899821
       6B1     4.899992    14A1     4.901927

    Final Occupation by Irrep:
             A1    A2    B1    B2
    DOCC [     5,    0,    2,    1 ]
    SOCC [     0,    0,    0,    1 ]
    NA   [     5,    0,    2,    2 ]
    NB   [     5,    0,    2,    1 ]

  @DF-UKS Final Energy:  -166.70341326550729

   => Energetics <=

    Nuclear Repulsion Energy =             11.2874464827926246
    One-Electron Energy =                -259.7229496189253268
    Two-Electron Energy =                  96.3003932611454871
    DFT Exchange-Correlation Energy =     -14.5683033905201018
    Empirical Dispersion Energy =           0.0000000000000000
    VV10 Nonlocal Energy =                  0.0000000000000000
    Total Energy =                       -166.7034132655073222

  UHF NO Occupations:
  HONO-2 :    2 B1 1.9999466
  HONO-1 :    5 A1 1.9992844
  HONO-0 :    2 B2 1.0000000
  LUNO+0 :    6 A1 0.0007156
  LUNO+1 :    3 B1 0.0000534
  LUNO+2 :    7 A1 0.0000001
  LUNO+3 :    8 A1 0.0000000

Computation Completed

Properties will be evaluated at   0.000000,   0.000000,   0.000000 [a0]

Properties computed using the SCF density matrix

 Multipole Moments:

 ------------------------------------------------------------------------------------
     Multipole            Electronic (a.u.)      Nuclear  (a.u.)        Total (a.u.)
 ------------------------------------------------------------------------------------

 L = 1.  Multiply by 2.5417464519 to convert [e a0] to [Debye]
 Dipole X            :          0.0000000            0.0000000            0.0000000
 Dipole Y            :          0.0000000            0.0000000            0.0000000
 Dipole Z            :         -3.3358729           -0.0075365           -3.3434095
 Magnitude           :                                                    3.3434095

 ------------------------------------------------------------------------------------

*** tstop() called on Joses-MacBook-Pro-2.local at Thu Jul 17 09:59:44 2025
Module time:
	user time   =       3.13 seconds =       0.05 minutes
	system time =       2.05 seconds =       0.03 minutes
	total time  =          1 seconds =       0.02 minutes
Total time:
	user time   =      59.43 seconds =       0.99 minutes
	system time =      59.15 seconds =       0.99 minutes
	total time  =         12 seconds =       0.20 minutes

*** tstart() called on Joses-MacBook-Pro-2.local
*** at Thu Jul 17 09:59:44 2025

         ------------------------------------------------------------
                                   SCF GRAD
                          Rob Parrish, Justin Turney,
                       Andy Simmonett, and Alex Sokolov
         ------------------------------------------------------------

  ==> Geometry <==

    Molecular point group: c2v
    Full point group: C_inf_v

    Geometry (in Angstrom), charge = -1, multiplicity = 2:

       Center              X                  Y                   Z               Mass
    ------------   -----------------  -----------------  -----------------  -----------------
         C            0.000000000000     0.000000000000     1.757822898531    12.000000000000
         NE           0.000000000000     0.000000000000    -1.055092554809    19.992440176200

  Nuclear repulsion =   11.287446482792625

  ==> Basis Set <==

  Basis Set: CC-PVDZ
    Blend: CC-PVDZ
    Number of shells: 12
    Number of basis functions: 28
    Number of Cartesian functions: 30
    Spherical Harmonics?: true
    Max angular momentum: 2

  ==> DFJKGrad: Density-Fitted SCF Gradients <==

    Gradient:                    1
    J tasked:                  Yes
    K tasked:                  Yes
    wK tasked:                  No
    OpenMP threads:              1
    Integrals threads:           1
    Memory [MiB]:              375
    Schwarz Cutoff:          1E-12
    Fitting Condition:       1E-10

   => Auxiliary Basis Set <=

  Basis Set: (CC-PVDZ AUX)
    Blend: CC-PVDZ-JKFIT
    Number of shells: 48
    Number of basis functions: 140
    Number of Cartesian functions: 162
    Spherical Harmonics?: true
    Max angular momentum: 3

  ==> DFT Potential <==

   => LibXC <=

    Version 6.2.2
    S. Lehtola, C. Steigemann, M. J.T. Oliveira, and M. A.L. Marques.,  SoftwareX 7, 1â€“5 (2018) (10.1016/j.softx.2017.11.002)

   => Composite Functional: B3LYP <=

    B3LYP Hyb-GGA Exchange-Correlation Functional

    P. J. Stephens, F. J. Devlin, C. F. Chabalowski, and M. J. Frisch.,  J. Phys. Chem. 98, 11623 (1994) (10.1021/j100096a001)

    Deriv               =              1
    GGA                 =           TRUE
    Meta                =          FALSE

    Exchange Hybrid     =           TRUE
    MP2 Hybrid          =          FALSE

   => Exchange Functionals <=

    0.0800   Slater exchange
    0.7200         Becke 88

   => Exact (HF) Exchange <=

    0.2000               HF

   => Correlation Functionals <=

    0.1900   Vosko, Wilk & Nusair (VWN5_RPA)
    0.8100   Lee, Yang & Parr

   => LibXC Density Thresholds  <==

    XC_HYB_GGA_XC_B3LYP:  1.00E-15

   => Molecular Quadrature <=

    Radial Scheme          =       TREUTLER
    Pruning Scheme         =           NONE
    Nuclear Scheme         =       TREUTLER

    Blocking Scheme        =         OCTREE
    BS radius alpha        =              1
    Pruning alpha          =              1
    Radial Points          =             75
    Spherical Points       =            302
    Total Points           =          43409
    Total Blocks           =            388
    Max Points             =            256
    Max Functions          =             28
    Weights Tolerance      =       1.00E-15

  -Total Gradient:
     Atom            X                  Y                   Z
    ------   -----------------  -----------------  -----------------
       1        0.000000000000    -0.000000000000    -0.000012258653
       2        0.000000000000     0.000000000000     0.000018856160

*** tstop() called on Joses-MacBook-Pro-2.local at Thu Jul 17 09:59:44 2025
Module time:
	user time   =       0.53 seconds =       0.01 minutes
	system time =       1.10 seconds =       0.02 minutes
	total time  =          0 seconds =       0.00 minutes
Total time:
	user time   =      59.98 seconds =       1.00 minutes
	system time =      60.25 seconds =       1.00 minutes
	total time  =         12 seconds =       0.20 minutes

    			-----------------------------------------

    			 OPTKING 3.0: for geometry optimizations

    			     By R.A. King, Bethel University

    			        with contributions from

    			    A.V. Copan, J. Cayton, A. Heide

    			-----------------------------------------

	                            ===> Fragment 1 <==

	 Z (Atomic Numbers)          Masses                          Geom
	       6.000000            12.000000          0.00000000  0.00000000  3.32180386
	      10.000000            19.992440          0.00000000  0.00000000 -1.99383597

	 - Coordinate -           - BOHR/RAD -       - ANG/DEG -
	 R(1,2)           =         5.315640           2.812915

	        --- Internal Coordinate Step in ANG or DEG, aJ/ANG or AJ/DEG ---
	-------------------------------------------------------------------------------
	           Coordinate      Previous         Force          Change          New
	           ----------      --------        ------          ------        ------
	               R(1,2)       2.81292        0.00013        0.00210       2.81502
	-------------------------------------------------------------------------------

	                                 ==> Convergence Check <==

	Measures of convergence in internal coordinates in au.

	Criteria marked as inactive (o), active & met (*), and active & unmet ( ).

	----------------------------------------------------------------------------------------------
	   Step    Total Energy     Delta E     Max Force     RMS Force      Max Disp      RMS Disp
	----------------------------------------------------------------------------------------------
	  Convergence Criteria     1.00e-06 *    3.00e-04 *             o    1.20e-03 *             o
	----------------------------------------------------------------------------------------------
	    14    -166.70341327   -1.40e-07 *    1.56e-05 *    1.56e-05 o    3.97e-03      3.97e-03 o  ~
	----------------------------------------------------------------------------------------------

Next Geometry in Ang
	Fragment 1 (Ang)

	    C   0.0000000000   0.0000000000   1.7588726784
	   Ne   0.0000000000   0.0000000000  -1.0561423347

    Final optimized geometry and variables:
    Molecular point group: c2v
    Full point group: C_inf_v

    Geometry (in Angstrom), charge = -1, multiplicity = 2:

    C            0.000000000000     0.000000000000     1.757822898531
    NE           0.000000000000     0.000000000000    -1.055092554809

    Psi4 stopped on: Thursday, 17 July 2025 09:59AM
    Psi4 wall time for execution: 0:00:11.92

*** Psi4 exiting successfully. Buy a developer a beer!
