                               Psi4 1.9.1 release

  ==> Input File <==

--------------------------------------------------------------------------
molecule {
-1 2
Al   0.00000        0.60000        0.00000
Cl   0.00000       -0.60000        0.00000
}

set {
basis              cc-pvdz
reference          uks
maxiter            500
geom_maxiter       500
DAMPING_PERCENTAGE 1
guess              SAP
}

optimize('b3lyp')
--------------------------------------------------------------------------

    Molecular point group: c2v
  Charge       = -1
  Multiplicity = 2
  Basis Set: CC-PVDZ
    Blend: CC-PVDZ
  Basis Set: (CC-PVDZ AUX)
    Blend: CC-PVDZ-JKFIT
  @DF-UKS Final Energy:  -701.42881523794881
    Total Energy =                       -701.4288152379486974
 Dipole X            :          0.0000000            0.0000000            0.0000000
 Dipole Y            :          0.0000000            0.0000000            0.0000000
 Dipole Z            :         -2.3835914           -0.1497521           -2.5333435
 Magnitude           :                                                    2.5333435
    Molecular point group: c2v
  Basis Set: CC-PVDZ
    Blend: CC-PVDZ
  Basis Set: (CC-PVDZ AUX)
    Blend: CC-PVDZ-JKFIT
  Basis Set: CC-PVDZ
    Blend: CC-PVDZ
  Basis Set: (CC-PVDZ AUX)
    Blend: CC-PVDZ-JKFIT
  @DF-UKS Final Energy:  -701.46207446820085
    Total Energy =                       -701.4620744682008535
  Basis Set: CC-PVDZ
    Blend: CC-PVDZ
  Basis Set: (CC-PVDZ AUX)
    Blend: CC-PVDZ-JKFIT
  Basis Set: CC-PVDZ
    Blend: CC-PVDZ
  @DF-UKS Final Energy:  -701.52486414887653
    Total Energy =                       -701.5248641488765315
  @DF-UKS Final Energy:  -701.73829203957553
    Total Energy =                       -701.7382920395756400
  @DF-UKS Final Energy:  -702.31061800494876
    Total Energy =                       -702.3106180049488785
  @DF-UKS Final Energy:  -702.50252962996285
    Total Energy =                       -702.5025296299628508
  @DF-UKS Final Energy:  -702.61790979779266
    Total Energy =                       -702.6179097977926631
  @DF-UKS Final Energy:  -702.67651928557189
    Total Energy =                       -702.6765192855716577
  @DF-UKS Final Energy:  -702.70348511959946
    Total Energy =                       -702.7034851195994634
  @DF-UKS Final Energy:  -702.71457210411552
    Total Energy =                       -702.7145721041155184
  @DF-UKS Final Energy:  -702.71822202933231
    Total Energy =                       -702.7182220293323098
  @DF-UKS Final Energy:  -702.71891258157643
    Total Energy =                       -702.7189125815764328
  @DF-UKS Final Energy:  -702.71908860997246
    Total Energy =                       -702.7190886099724594
  @DF-UKS Final Energy:  -702.71910670051261
    Total Energy =                       -702.7191067005126115
  Basis Set: (CC-PVDZ AUX)
    Blend: CC-PVDZ-JKFIT
  Basis Set: CC-PVDZ
    Blend: CC-PVDZ
  Basis Set: (CC-PVDZ AUX)
    Blend: CC-PVDZ-JKFIT
  @DF-UKS Final Energy:  -702.71910863640471
    Total Energy =                       -702.7191086364047123
  Basis Set: CC-PVDZ
    Blend: CC-PVDZ
  Basis Set: (CC-PVDZ AUX)
    Blend: CC-PVDZ-JKFIT
  Charge       = -1
  Multiplicity = 2
  Basis Set: CC-PVDZ
    Blend: CC-PVDZ
  Basis Set: (CC-PVDZ AUX)
    Blend: CC-PVDZ-JKFIT

    Orbital Energies [Eh]
    ---------------------

    Alpha Occupied:

       1A1  -101.295793     2A1   -55.848973     3A1    -9.212537
       4A1    -6.970360     1B2    -6.968514     1B1    -6.967837
       5A1    -3.928289     2B2    -2.482599     2B1    -2.479956
       6A1    -2.479826     7A1    -0.565764     8A1    -0.169600
       3B2    -0.101512     3B1    -0.101062     9A1    -0.050958
       4B1     0.075187

    Alpha Virtual:

       4B2     0.124956    10A1     0.189955    11A1     0.343878
       5B1     0.398132     5B2     0.405294    12A1     0.412900
       1A2     0.460136    13A1     0.464071     6B1     0.475122
       6B2     0.480679    14A1     0.542169     7B2     0.795615
       7B1     0.798573    15A1     0.812329    16A1     0.970637
       2A2     0.970668    17A1     0.984145     8B2     1.030396
       8B1     1.031080    18A1     1.325759

    Beta Occupied:

       1A1  -101.295439     2A1   -55.847572     3A1    -9.212190
       4A1    -6.970167     1B2    -6.968319     1B1    -6.966693
       5A1    -3.926592     2B2    -2.481820     6A1    -2.479090
       2B1    -2.474323     7A1    -0.563698     8A1    -0.162095
       3B2    -0.101003     3B1    -0.095361     9A1    -0.035240

    Beta Virtual:

       4B2     0.130600     4B1     0.153223    10A1     0.196607
      11A1     0.353785     5B2     0.407751    12A1     0.414603
       5B1     0.426890     6B2     0.481194    13A1     0.490549
       1A2     0.491445     6B1     0.500863    14A1     0.550724
       7B2     0.795641     7B1     0.800451    15A1     0.814634
      16A1     0.973095     2A2     0.973335    17A1     0.985810
       8B2     1.030969     8B1     1.037218    18A1     1.328048

    Final Occupation by Irrep:
             A1    A2    B1    B2
    DOCC [     9,    0,    3,    3 ]
    SOCC [     0,    0,    1,    0 ]
    NA   [     9,    0,    4,    3 ]
    NB   [     9,    0,    3,    3 ]

  @DF-UKS Final Energy:  -702.71910885157934

   => Energetics <=

    Nuclear Repulsion Energy =             49.0472375804922436
    One-Electron Energy =               -1077.4048026950424628
    Two-Electron Energy =                 363.5762506145645716
    DFT Exchange-Correlation Energy =     -37.9377943515936593
    Empirical Dispersion Energy =           0.0000000000000000
    VV10 Nonlocal Energy =                  0.0000000000000000
    Total Energy =                       -702.7191088515793354

  UHF NO Occupations:
  HONO-2 :    3 B1 1.9999683
  HONO-1 :    9 A1 1.9978457
  HONO-0 :    4 B1 1.0000000
  LUNO+0 :   10 A1 0.0021543
  LUNO+1 :    5 B1 0.0000317
  LUNO+2 :    4 B2 0.0000088
  LUNO+3 :   11 A1 0.0000065

Computation Completed

Properties will be evaluated at   0.000000,   0.000000,   0.000000 [a0]

Properties computed using the SCF density matrix

 Multipole Moments:

 ------------------------------------------------------------------------------------
     Multipole            Electronic (a.u.)      Nuclear  (a.u.)        Total (a.u.)
 ------------------------------------------------------------------------------------

 L = 1.  Multiply by 2.5417464519 to convert [e a0] to [Debye]
 Dipole X            :          0.0000000            0.0000000            0.0000000
 Dipole Y            :          0.0000000            0.0000000            0.0000000
 Dipole Z            :         -0.6798746           -0.2975573           -0.9774319
 Magnitude           :                                                    0.9774319

 ------------------------------------------------------------------------------------

*** tstop() called on Joses-MacBook-Pro-2.local at Thu Jul 17 11:41:27 2025
Module time:
	user time   =       8.59 seconds =       0.14 minutes
	system time =       1.94 seconds =       0.03 minutes
	total time  =          1 seconds =       0.02 minutes
Total time:
	user time   =     269.62 seconds =       4.49 minutes
	system time =      49.48 seconds =       0.82 minutes
	total time  =         33 seconds =       0.55 minutes

*** tstart() called on Joses-MacBook-Pro-2.local
*** at Thu Jul 17 11:41:27 2025

         ------------------------------------------------------------
                                   SCF GRAD
                          Rob Parrish, Justin Turney,
                       Andy Simmonett, and Alex Sokolov
         ------------------------------------------------------------

  ==> Geometry <==

    Molecular point group: c2v
    Full point group: C_inf_v

    Geometry (in Angstrom), charge = -1, multiplicity = 2:

       Center              X                  Y                   Z               Mass
    ------------   -----------------  -----------------  -----------------  -----------------
         AL           0.000000000000     0.000000000000     1.345910509839    26.981538530000
         CL           0.000000000000     0.000000000000    -1.038488068493    34.968852682000

  Nuclear repulsion =   49.047237580492244

  ==> Basis Set <==

  Basis Set: CC-PVDZ
    Blend: CC-PVDZ
    Number of shells: 16
    Number of basis functions: 36
    Number of Cartesian functions: 38
    Spherical Harmonics?: true
    Max angular momentum: 2

  ==> DFJKGrad: Density-Fitted SCF Gradients <==

    Gradient:                    1
    J tasked:                  Yes
    K tasked:                  Yes
    wK tasked:                  No
    OpenMP threads:              1
    Integrals threads:           1
    Memory [MiB]:              375
    Schwarz Cutoff:          1E-12
    Fitting Condition:       1E-10

   => Auxiliary Basis Set <=

  Basis Set: (CC-PVDZ AUX)
    Blend: CC-PVDZ-JKFIT
    Number of shells: 72
    Number of basis functions: 224
    Number of Cartesian functions: 260
    Spherical Harmonics?: true
    Max angular momentum: 3

  ==> DFT Potential <==

   => LibXC <=

    Version 6.2.2
    S. Lehtola, C. Steigemann, M. J.T. Oliveira, and M. A.L. Marques.,  SoftwareX 7, 1â€“5 (2018) (10.1016/j.softx.2017.11.002)

   => Composite Functional: B3LYP <=

    B3LYP Hyb-GGA Exchange-Correlation Functional

    P. J. Stephens, F. J. Devlin, C. F. Chabalowski, and M. J. Frisch.,  J. Phys. Chem. 98, 11623 (1994) (10.1021/j100096a001)

    Deriv               =              1
    GGA                 =           TRUE
    Meta                =          FALSE

    Exchange Hybrid     =           TRUE
    MP2 Hybrid          =          FALSE

   => Exchange Functionals <=

    0.0800   Slater exchange
    0.7200         Becke 88

   => Exact (HF) Exchange <=

    0.2000               HF

   => Correlation Functionals <=

    0.1900   Vosko, Wilk & Nusair (VWN5_RPA)
    0.8100   Lee, Yang & Parr

   => LibXC Density Thresholds  <==

    XC_HYB_GGA_XC_B3LYP:  1.00E-15

   => Molecular Quadrature <=

    Radial Scheme          =       TREUTLER
    Pruning Scheme         =           NONE
    Nuclear Scheme         =       TREUTLER

    Blocking Scheme        =         OCTREE
    BS radius alpha        =              1
    Pruning alpha          =              1
    Radial Points          =             75
    Spherical Points       =            302
    Total Points           =          42669
    Total Blocks           =            403
    Max Points             =            255
    Max Functions          =             36
    Weights Tolerance      =       1.00E-15

  -Total Gradient:
     Atom            X                  Y                   Z
    ------   -----------------  -----------------  -----------------
       1        0.000000000000    -0.000000000000    -0.000011597839
       2        0.000000000000     0.000000000000     0.000047322197

*** tstop() called on Joses-MacBook-Pro-2.local at Thu Jul 17 11:41:27 2025
Module time:
	user time   =       2.75 seconds =       0.05 minutes
	system time =       0.84 seconds =       0.01 minutes
	total time  =          0 seconds =       0.00 minutes
Total time:
	user time   =     272.37 seconds =       4.54 minutes
	system time =      50.33 seconds =       0.84 minutes
	total time  =         33 seconds =       0.55 minutes

    			-----------------------------------------

    			 OPTKING 3.0: for geometry optimizations

    			     By R.A. King, Bethel University

    			        with contributions from

    			    A.V. Copan, J. Cayton, A. Heide

    			-----------------------------------------

	                            ===> Fragment 1 <==

	 Z (Atomic Numbers)          Masses                          Geom
	      13.000000            26.981539          0.00000000  0.00000000  2.54340225
	      17.000000            34.968853          0.00000000  0.00000000 -1.96245803

	 - Coordinate -           - BOHR/RAD -       - ANG/DEG -
	 R(1,2)           =         4.505860           2.384399

	        --- Internal Coordinate Step in ANG or DEG, aJ/ANG or AJ/DEG ---
	-------------------------------------------------------------------------------
	           Coordinate      Previous         Force          Change          New
	           ----------      --------        ------          ------        ------
	               R(1,2)       2.38440        0.00024        0.00025       2.38465
	-------------------------------------------------------------------------------

	                                 ==> Convergence Check <==

	Measures of convergence in internal coordinates in au.

	Criteria marked as inactive (o), active & met (*), and active & unmet ( ).

	----------------------------------------------------------------------------------------------
	   Step    Total Energy     Delta E     Max Force     RMS Force      Max Disp      RMS Disp
	----------------------------------------------------------------------------------------------
	  Convergence Criteria     1.00e-06 *    3.00e-04 *             o    1.20e-03 *             o
	----------------------------------------------------------------------------------------------
	    16    -702.71910885   -2.15e-07 *    2.95e-05 *    2.95e-05 o    4.81e-04 *    4.81e-04 o  ~
	----------------------------------------------------------------------------------------------

Next Geometry in Ang
	Fragment 1 (Ang)

	   Al   0.0000000000   0.0000000000   1.3460378846
	   Cl   0.0000000000   0.0000000000  -1.0386154432

    Final optimized geometry and variables:
    Molecular point group: c2v
    Full point group: C_inf_v

    Geometry (in Angstrom), charge = -1, multiplicity = 2:

    AL           0.000000000000     0.000000000000     1.345910509839
    CL           0.000000000000     0.000000000000    -1.038488068493

    Psi4 stopped on: Thursday, 17 July 2025 11:41AM
    Psi4 wall time for execution: 0:00:33.40

*** Psi4 exiting successfully. Buy a developer a beer!
