                               Psi4 1.9.1 release

  ==> Input File <==

--------------------------------------------------------------------------
molecule {
-1 2
O   0.00000        0.60000        0.00000
O   0.00000       -0.60000        0.00000
}

set {
basis              cc-pvdz
reference          uks
maxiter            500
geom_maxiter       500
DAMPING_PERCENTAGE 1
guess              SAP
}

optimize('b3lyp')
--------------------------------------------------------------------------

    Molecular point group: d2h
  Charge       = -1
  Multiplicity = 2
  Basis Set: CC-PVDZ
    Blend: CC-PVDZ
  Basis Set: (CC-PVDZ AUX)
    Blend: CC-PVDZ-JKFIT
  @DF-UKS Final Energy:  -150.28201137193807
    Total Energy =                       -150.2820113719380686
 Dipole X            :          0.0000000            0.0000000            0.0000000
 Dipole Y            :          0.0000000            0.0000000            0.0000000
 Dipole Z            :          0.0000000            0.0000000            0.0000000
 Magnitude           :                                                    0.0000000
    Molecular point group: d2h
  Basis Set: CC-PVDZ
    Blend: CC-PVDZ
  Basis Set: (CC-PVDZ AUX)
    Blend: CC-PVDZ-JKFIT
  Basis Set: CC-PVDZ
    Blend: CC-PVDZ
  Basis Set: (CC-PVDZ AUX)
    Blend: CC-PVDZ-JKFIT
  @DF-UKS Final Energy:  -150.30521952084351
    Total Energy =                       -150.3052195208435364
  Basis Set: CC-PVDZ
    Blend: CC-PVDZ
  Basis Set: (CC-PVDZ AUX)
    Blend: CC-PVDZ-JKFIT
  Basis Set: CC-PVDZ
    Blend: CC-PVDZ
  @DF-UKS Final Energy:  -150.30731104510474
    Total Energy =                       -150.3073110451047398
  @DF-UKS Final Energy:  -150.30759607181798
    Total Energy =                       -150.3075960718179829
  @DF-UKS Final Energy:  -150.30763869005520
    Total Energy =                       -150.3076386900551995
  Basis Set: (CC-PVDZ AUX)
    Blend: CC-PVDZ-JKFIT
  Basis Set: CC-PVDZ
    Blend: CC-PVDZ
  Basis Set: (CC-PVDZ AUX)
    Blend: CC-PVDZ-JKFIT
  @DF-UKS Final Energy:  -150.30764529859914
    Total Energy =                       -150.3076452985991409
  Basis Set: CC-PVDZ
    Blend: CC-PVDZ
  Basis Set: (CC-PVDZ AUX)
    Blend: CC-PVDZ-JKFIT
  Charge       = -1
  Multiplicity = 2
  Basis Set: CC-PVDZ
    Blend: CC-PVDZ
  Basis Set: (CC-PVDZ AUX)
    Blend: CC-PVDZ-JKFIT

    Orbital Energies [Eh]
    ---------------------

    Alpha Occupied:

       1Ag   -18.813157     1B2u  -18.813140     2Ag    -0.741862
       2B2u   -0.418578     1B1u   -0.082923     3Ag    -0.081051
       1B3u   -0.043027     1B3g    0.099980     1B1g    0.143441

    Alpha Virtual:

       3B2u    0.485262     4B2u    1.154608     2B1u    1.193510
       2B3u    1.224006     2B3g    1.293647     4Ag     1.312900
       2B1g    1.321480     5Ag     1.525920     5B2u    1.996015
       3B1u    2.559518     3B3u    2.591297     6Ag     2.839252
       1B2g    2.847204     7Ag     2.888274     1Au     3.013480
       6B2u    3.013558     3B3g    3.459597     3B1g    3.494080
       7B2u    4.166480

    Beta Occupied:

       1Ag   -18.799562     1B2u  -18.799501     2Ag    -0.711155
       2B2u   -0.375830     3Ag    -0.064563     1B3u   -0.030847
       1B1u    0.002946     1B1g    0.158482

    Beta Virtual:

       1B3g    0.266595     3B2u    0.505321     4B2u    1.164456
       2B3u    1.232675     2B1u    1.248162     4Ag     1.324375
       2B1g    1.329972     2B3g    1.346272     5Ag     1.538867
       5B2u    2.016427     3B3u    2.596274     3B1u    2.597614
       1B2g    2.887084     6Ag     2.887444     7Ag     2.903054
       1Au     3.056588     6B2u    3.058967     3B1g    3.500814
       3B3g    3.504252     7B2u    4.185293

    Final Occupation by Irrep:
             Ag   B1g   B2g   B3g    Au   B1u   B2u   B3u
    DOCC [     3,    1,    0,    0,    0,    1,    2,    1 ]
    SOCC [     0,    0,    0,    1,    0,    0,    0,    0 ]
    NA   [     3,    1,    0,    1,    0,    1,    2,    1 ]
    NB   [     3,    1,    0,    0,    0,    1,    2,    1 ]

  @DF-UKS Final Energy:  -150.30764650397970

   => Energetics <=

    Nuclear Repulsion Energy =             25.0094877002200313
    One-Electron Energy =                -263.1553934102311132
    Two-Electron Energy =                 101.9132735412030257
    DFT Exchange-Correlation Energy =     -14.0750143351716535
    Empirical Dispersion Energy =           0.0000000000000000
    VV10 Nonlocal Energy =                  0.0000000000000000
    Total Energy =                       -150.3076465039796972

  UHF NO Occupations:
  HONO-2 :    2B2u 1.9997676
  HONO-1 :    1B1u 1.9990473
  HONO-0 :    1B3g 1.0000000
  LUNO+0 :    2B1u 0.0009527
  LUNO+1 :    3B2u 0.0002324
  LUNO+2 :    4 Ag 0.0001015
  LUNO+3 :    2B3u 0.0000233

Computation Completed

Properties will be evaluated at   0.000000,   0.000000,   0.000000 [a0]

Properties computed using the SCF density matrix

 Multipole Moments:

 ------------------------------------------------------------------------------------
     Multipole            Electronic (a.u.)      Nuclear  (a.u.)        Total (a.u.)
 ------------------------------------------------------------------------------------

 L = 1.  Multiply by 2.5417464519 to convert [e a0] to [Debye]
 Dipole X            :          0.0000000            0.0000000            0.0000000
 Dipole Y            :          0.0000000            0.0000000            0.0000000
 Dipole Z            :          0.0000000            0.0000000            0.0000000
 Magnitude           :                                                    0.0000000

 ------------------------------------------------------------------------------------

*** tstop() called on Joses-MacBook-Pro-2.local at Thu Jul 17 10:38:19 2025
Module time:
	user time   =       2.95 seconds =       0.05 minutes
	system time =       2.82 seconds =       0.05 minutes
	total time  =          1 seconds =       0.02 minutes
Total time:
	user time   =      25.19 seconds =       0.42 minutes
	system time =      33.30 seconds =       0.56 minutes
	total time  =          6 seconds =       0.10 minutes

*** tstart() called on Joses-MacBook-Pro-2.local
*** at Thu Jul 17 10:38:19 2025

         ------------------------------------------------------------
                                   SCF GRAD
                          Rob Parrish, Justin Turney,
                       Andy Simmonett, and Alex Sokolov
         ------------------------------------------------------------

  ==> Geometry <==

    Molecular point group: d2h
    Full point group: D_inf_h

    Geometry (in Angstrom), charge = -1, multiplicity = 2:

       Center              X                  Y                   Z               Mass
    ------------   -----------------  -----------------  -----------------  -----------------
         O           -0.000000000000     0.677089868630     0.000000000000    15.994914619570
         O            0.000000000000    -0.677089868630     0.000000000000    15.994914619570

  Nuclear repulsion =   25.009487700220031

  ==> Basis Set <==

  Basis Set: CC-PVDZ
    Blend: CC-PVDZ
    Number of shells: 12
    Number of basis functions: 28
    Number of Cartesian functions: 30
    Spherical Harmonics?: true
    Max angular momentum: 2

  ==> DFJKGrad: Density-Fitted SCF Gradients <==

    Gradient:                    1
    J tasked:                  Yes
    K tasked:                  Yes
    wK tasked:                  No
    OpenMP threads:              1
    Integrals threads:           1
    Memory [MiB]:              375
    Schwarz Cutoff:          1E-12
    Fitting Condition:       1E-10

   => Auxiliary Basis Set <=

  Basis Set: (CC-PVDZ AUX)
    Blend: CC-PVDZ-JKFIT
    Number of shells: 48
    Number of basis functions: 140
    Number of Cartesian functions: 162
    Spherical Harmonics?: true
    Max angular momentum: 3

  ==> DFT Potential <==

   => LibXC <=

    Version 6.2.2
    S. Lehtola, C. Steigemann, M. J.T. Oliveira, and M. A.L. Marques.,  SoftwareX 7, 1â€“5 (2018) (10.1016/j.softx.2017.11.002)

   => Composite Functional: B3LYP <=

    B3LYP Hyb-GGA Exchange-Correlation Functional

    P. J. Stephens, F. J. Devlin, C. F. Chabalowski, and M. J. Frisch.,  J. Phys. Chem. 98, 11623 (1994) (10.1021/j100096a001)

    Deriv               =              1
    GGA                 =           TRUE
    Meta                =          FALSE

    Exchange Hybrid     =           TRUE
    MP2 Hybrid          =          FALSE

   => Exchange Functionals <=

    0.0800   Slater exchange
    0.7200         Becke 88

   => Exact (HF) Exchange <=

    0.2000               HF

   => Correlation Functionals <=

    0.1900   Vosko, Wilk & Nusair (VWN5_RPA)
    0.8100   Lee, Yang & Parr

   => LibXC Density Thresholds  <==

    XC_HYB_GGA_XC_B3LYP:  1.00E-15

   => Molecular Quadrature <=

    Radial Scheme          =       TREUTLER
    Pruning Scheme         =           NONE
    Nuclear Scheme         =       TREUTLER

    Blocking Scheme        =         OCTREE
    BS radius alpha        =              1
    Pruning alpha          =              1
    Radial Points          =             75
    Spherical Points       =            302
    Total Points           =          41462
    Total Blocks           =            374
    Max Points             =            254
    Max Functions          =             28
    Weights Tolerance      =       1.00E-15

  -Total Gradient:
     Atom            X                  Y                   Z
    ------   -----------------  -----------------  -----------------
       1        0.000000000000    -0.000159389384     0.000000000000
       2       -0.000000000000     0.000159389384    -0.000000000000

*** tstop() called on Joses-MacBook-Pro-2.local at Thu Jul 17 10:38:19 2025
Module time:
	user time   =       0.71 seconds =       0.01 minutes
	system time =       0.85 seconds =       0.01 minutes
	total time  =          0 seconds =       0.00 minutes
Total time:
	user time   =      25.91 seconds =       0.43 minutes
	system time =      34.15 seconds =       0.57 minutes
	total time  =          6 seconds =       0.10 minutes

    			-----------------------------------------

    			 OPTKING 3.0: for geometry optimizations

    			     By R.A. King, Bethel University

    			        with contributions from

    			    A.V. Copan, J. Cayton, A. Heide

    			-----------------------------------------

	                            ===> Fragment 1 <==

	 Z (Atomic Numbers)          Masses                          Geom
	       8.000000            15.994915         -0.00000000  1.27951441  0.00000000
	       8.000000            15.994915          0.00000000 -1.27951441  0.00000000

	 - Coordinate -           - BOHR/RAD -       - ANG/DEG -
	 R(1,2)           =         2.559029           1.354180

	        --- Internal Coordinate Step in ANG or DEG, aJ/ANG or AJ/DEG ---
	-------------------------------------------------------------------------------
	           Coordinate      Previous         Force          Change          New
	           ----------      --------        ------          ------        ------
	               R(1,2)       1.35418        0.00131        0.00018       1.35436
	-------------------------------------------------------------------------------

	                                 ==> Convergence Check <==

	Measures of convergence in internal coordinates in au.

	Criteria marked as inactive (o), active & met (*), and active & unmet ( ).

	----------------------------------------------------------------------------------------------
	   Step    Total Energy     Delta E     Max Force     RMS Force      Max Disp      RMS Disp
	----------------------------------------------------------------------------------------------
	  Convergence Criteria     1.00e-06 *    3.00e-04 *             o    1.20e-03 *             o
	----------------------------------------------------------------------------------------------
	     7    -150.30764650   -1.21e-06      1.59e-04 *    1.59e-04 o    3.49e-04 *    3.49e-04 o  ~
	----------------------------------------------------------------------------------------------

Next Geometry in Ang
	Fragment 1 (Ang)

	    O  -0.0000000000   0.6771821753   0.0000000000
	    O   0.0000000000  -0.6771821753   0.0000000000

    Final optimized geometry and variables:
    Molecular point group: d2h
    Full point group: D_inf_h

    Geometry (in Angstrom), charge = -1, multiplicity = 2:

    O           -0.000000000000     0.677089868630     0.000000000000
    O            0.000000000000    -0.677089868630     0.000000000000

    Psi4 stopped on: Thursday, 17 July 2025 10:38AM
    Psi4 wall time for execution: 0:00:06.65

*** Psi4 exiting successfully. Buy a developer a beer!
