                               Psi4 1.9.1 release

  ==> Input File <==

--------------------------------------------------------------------------
molecule {
-1 4
Mg   0.00000        0.60000        0.00000
Mg   0.00000       -0.60000        0.00000
}

set {
basis              cc-pvdz
reference          uks
maxiter            500
geom_maxiter       500
DAMPING_PERCENTAGE 1
guess              SAP
}

optimize('b3lyp')
--------------------------------------------------------------------------

    Molecular point group: d2h
  Charge       = -1
  Multiplicity = 4
  Basis Set: CC-PVDZ
    Blend: CC-PVDZ
  Basis Set: (CC-PVDZ AUX)
    Blend: DEF2-UNIVERSAL-JKFIT
  @DF-UKS Final Energy:  -399.41077653099762
    Total Energy =                       -399.4107765309976799
 Dipole X            :          0.0000000            0.0000000            0.0000000
 Dipole Y            :          0.0000000            0.0000000            0.0000000
 Dipole Z            :          0.0000000            0.0000000            0.0000000
 Magnitude           :                                                    0.0000000
    Molecular point group: d2h
  Basis Set: CC-PVDZ
    Blend: CC-PVDZ
  Basis Set: (CC-PVDZ AUX)
    Blend: DEF2-UNIVERSAL-JKFIT
  Basis Set: CC-PVDZ
    Blend: CC-PVDZ
  Basis Set: (CC-PVDZ AUX)
    Blend: DEF2-UNIVERSAL-JKFIT
  @DF-UKS Final Energy:  -399.41812068577661
    Total Energy =                       -399.4181206857766142
  Basis Set: CC-PVDZ
    Blend: CC-PVDZ
  Basis Set: (CC-PVDZ AUX)
    Blend: DEF2-UNIVERSAL-JKFIT
  Basis Set: CC-PVDZ
    Blend: CC-PVDZ
  @DF-UKS Final Energy:  -399.43233296617205
    Total Energy =                       -399.4323329661720550
  @DF-UKS Final Energy:  -399.48427701348839
    Total Energy =                       -399.4842770134883381
  @DF-UKS Final Energy:  -399.73004263906722
    Total Energy =                       -399.7300426390672214
  @DF-UKS Final Energy:  -399.88028785657474
    Total Energy =                       -399.8802878565747960
  @DF-UKS Final Energy:  -399.99665905674306
    Total Energy =                       -399.9966590567430558
  @DF-UKS Final Energy:  -400.07136892078739
    Total Energy =                       -400.0713689207873927
  @DF-UKS Final Energy:  -400.10937136534659
    Total Energy =                       -400.1093713653465898
  @DF-UKS Final Energy:  -400.12501149752239
    Total Energy =                       -400.1250114975224506
  @DF-UKS Final Energy:  -400.13006725893365
    Total Energy =                       -400.1300672589336500
  @DF-UKS Final Energy:  -400.13122123829322
    Total Energy =                       -400.1312212382932216
  @DF-UKS Final Energy:  -400.13133802339649
    Total Energy =                       -400.1313380233964949
  Basis Set: (CC-PVDZ AUX)
    Blend: DEF2-UNIVERSAL-JKFIT
  Basis Set: CC-PVDZ
    Blend: CC-PVDZ
  Basis Set: (CC-PVDZ AUX)
    Blend: DEF2-UNIVERSAL-JKFIT
  @DF-UKS Final Energy:  -400.13135140894548
    Total Energy =                       -400.1313514089455339
  Basis Set: CC-PVDZ
    Blend: CC-PVDZ
  Basis Set: (CC-PVDZ AUX)
    Blend: DEF2-UNIVERSAL-JKFIT
  Charge       = -1
  Multiplicity = 4
  Basis Set: CC-PVDZ
    Blend: CC-PVDZ
  Basis Set: (CC-PVDZ AUX)
    Blend: DEF2-UNIVERSAL-JKFIT

    Orbital Energies [Eh]
    ---------------------

    Alpha Occupied:

       1B2u  -46.669929     1Ag   -46.669927     2Ag    -2.951330
       2B2u   -2.951277     3Ag    -1.696209     1B3u   -1.694636
       1B1u   -1.694636     3B2u   -1.694593     1B1g   -1.694468
       1B3g   -1.694468     4Ag    -0.102782     4B2u   -0.029145
       2B3u    0.042542     2B1u    0.042542

    Alpha Virtual:

       5Ag     0.082761     2B1g    0.120796     2B3g    0.120796
       5B2u    0.167022     6Ag     0.219457     7Ag     0.256417
       3B1u    0.276254     3B3u    0.276254     6B2u    0.283273
       3B3g    0.317662     3B1g    0.317662     7B2u    0.400901
       4B1u    0.410633     4B3u    0.410633     8Ag     0.431509
       1B2g    0.431511     8B2u    0.500101     1Au     0.500103
       9Ag     0.539124     4B1g    0.628962     4B3g    0.628962
       9B2u    0.841255

    Beta Occupied:

       1B2u  -46.667899     1Ag   -46.667898     2Ag    -2.948042
       2B2u   -2.947992     3Ag    -1.694217     3B2u   -1.692543
       1B3u   -1.691123     1B1u   -1.691123     1B1g   -1.690941
       1B3g   -1.690941     4Ag    -0.068204

    Beta Virtual:

       4B2u    0.040676     2B3u    0.104819     2B1u    0.104819
       5Ag     0.105909     2B1g    0.152668     2B3g    0.152668
       5B2u    0.181957     6Ag     0.239275     7Ag     0.268689
       3B1u    0.294284     3B3u    0.294284     6B2u    0.304678
       3B3g    0.341249     3B1g    0.341249     7B2u    0.420073
       4B1u    0.438301     4B3u    0.438301     1B2g    0.467542
       8Ag     0.467543     1Au     0.535131     8B2u    0.535132
       9Ag     0.558975     4B1g    0.654978     4B3g    0.654978
       9B2u    0.855587

    Final Occupation by Irrep:
             Ag   B1g   B2g   B3g    Au   B1u   B2u   B3u
    DOCC [     4,    1,    0,    1,    0,    1,    3,    1 ]
    SOCC [     0,    0,    0,    0,    0,    1,    1,    1 ]
    NA   [     4,    1,    0,    1,    0,    2,    4,    2 ]
    NB   [     4,    1,    0,    1,    0,    1,    3,    1 ]

  @DF-UKS Final Energy:  -400.13135180756905

   => Energetics <=

    Nuclear Repulsion Energy =             28.1808137713703779
    One-Electron Energy =                -618.6818459869651861
    Two-Electron Energy =                 217.0271395703487087
    DFT Exchange-Correlation Energy =     -26.6574591623229260
    Empirical Dispersion Energy =           0.0000000000000000
    VV10 Nonlocal Energy =                  0.0000000000000000
    Total Energy =                       -400.1313518075690467

  UHF NO Occupations:
  HONO-2 :    4B2u 1.0000000
  HONO-1 :    2B3u 1.0000000
  HONO-0 :    2B1u 1.0000000
  LUNO+0 :    5 Ag 0.0071603
  LUNO+1 :    6 Ag 0.0000004
  LUNO+2 :    2B1g 0.0000003
  LUNO+3 :    2B3g 0.0000003

Computation Completed

Properties will be evaluated at   0.000000,   0.000000,   0.000000 [a0]

Properties computed using the SCF density matrix

 Multipole Moments:

 ------------------------------------------------------------------------------------
     Multipole            Electronic (a.u.)      Nuclear  (a.u.)        Total (a.u.)
 ------------------------------------------------------------------------------------

 L = 1.  Multiply by 2.5417464519 to convert [e a0] to [Debye]
 Dipole X            :          0.0000000            0.0000000            0.0000000
 Dipole Y            :          0.0000000            0.0000000            0.0000000
 Dipole Z            :          0.0000000            0.0000000            0.0000000
 Magnitude           :                                                    0.0000000

 ------------------------------------------------------------------------------------

*** tstop() called on Joses-MacBook-Pro-2.local at Thu Jul 17 11:22:42 2025
Module time:
	user time   =       6.49 seconds =       0.11 minutes
	system time =       3.11 seconds =       0.05 minutes
	total time  =          1 seconds =       0.02 minutes
Total time:
	user time   =     144.36 seconds =       2.41 minutes
	system time =      90.12 seconds =       1.50 minutes
	total time  =         23 seconds =       0.38 minutes

*** tstart() called on Joses-MacBook-Pro-2.local
*** at Thu Jul 17 11:22:42 2025

         ------------------------------------------------------------
                                   SCF GRAD
                          Rob Parrish, Justin Turney,
                       Andy Simmonett, and Alex Sokolov
         ------------------------------------------------------------

  ==> Geometry <==

    Molecular point group: d2h
    Full point group: D_inf_h

    Geometry (in Angstrom), charge = -1, multiplicity = 4:

       Center              X                  Y                   Z               Mass
    ------------   -----------------  -----------------  -----------------  -----------------
         MG          -0.000000000000     1.352010608258     0.000000000000    23.985041697000
         MG           0.000000000000    -1.352010608258     0.000000000000    23.985041697000

  Nuclear repulsion =   28.180813771370378

  ==> Basis Set <==

  Basis Set: CC-PVDZ
    Blend: CC-PVDZ
    Number of shells: 16
    Number of basis functions: 36
    Number of Cartesian functions: 38
    Spherical Harmonics?: true
    Max angular momentum: 2

  ==> DFJKGrad: Density-Fitted SCF Gradients <==

    Gradient:                    1
    J tasked:                  Yes
    K tasked:                  Yes
    wK tasked:                  No
    OpenMP threads:              1
    Integrals threads:           1
    Memory [MiB]:              375
    Schwarz Cutoff:          1E-12
    Fitting Condition:       1E-10

   => Auxiliary Basis Set <=

  Basis Set: (CC-PVDZ AUX)
    Blend: DEF2-UNIVERSAL-JKFIT
    Number of shells: 68
    Number of basis functions: 224
    Number of Cartesian functions: 274
    Spherical Harmonics?: true
    Max angular momentum: 4

  ==> DFT Potential <==

   => LibXC <=

    Version 6.2.2
    S. Lehtola, C. Steigemann, M. J.T. Oliveira, and M. A.L. Marques.,  SoftwareX 7, 1â€“5 (2018) (10.1016/j.softx.2017.11.002)

   => Composite Functional: B3LYP <=

    B3LYP Hyb-GGA Exchange-Correlation Functional

    P. J. Stephens, F. J. Devlin, C. F. Chabalowski, and M. J. Frisch.,  J. Phys. Chem. 98, 11623 (1994) (10.1021/j100096a001)

    Deriv               =              1
    GGA                 =           TRUE
    Meta                =          FALSE

    Exchange Hybrid     =           TRUE
    MP2 Hybrid          =          FALSE

   => Exchange Functionals <=

    0.0800   Slater exchange
    0.7200         Becke 88

   => Exact (HF) Exchange <=

    0.2000               HF

   => Correlation Functionals <=

    0.1900   Vosko, Wilk & Nusair (VWN5_RPA)
    0.8100   Lee, Yang & Parr

   => LibXC Density Thresholds  <==

    XC_HYB_GGA_XC_B3LYP:  1.00E-15

   => Molecular Quadrature <=

    Radial Scheme          =       TREUTLER
    Pruning Scheme         =           NONE
    Nuclear Scheme         =       TREUTLER

    Blocking Scheme        =         OCTREE
    BS radius alpha        =              1
    Pruning alpha          =              1
    Radial Points          =             75
    Spherical Points       =            302
    Total Points           =          42366
    Total Blocks           =            412
    Max Points             =            254
    Max Functions          =             36
    Weights Tolerance      =       1.00E-15

  -Total Gradient:
     Atom            X                  Y                   Z
    ------   -----------------  -----------------  -----------------
       1        0.000000000000    -0.000030124406    -0.000000000000
       2       -0.000000000000     0.000030124406    -0.000000000000

*** tstop() called on Joses-MacBook-Pro-2.local at Thu Jul 17 11:22:42 2025
Module time:
	user time   =       2.39 seconds =       0.04 minutes
	system time =       2.84 seconds =       0.05 minutes
	total time  =          0 seconds =       0.00 minutes
Total time:
	user time   =     146.75 seconds =       2.45 minutes
	system time =      92.97 seconds =       1.55 minutes
	total time  =         23 seconds =       0.38 minutes

    			-----------------------------------------

    			 OPTKING 3.0: for geometry optimizations

    			     By R.A. King, Bethel University

    			        with contributions from

    			    A.V. Copan, J. Cayton, A. Heide

    			-----------------------------------------

	                            ===> Fragment 1 <==

	 Z (Atomic Numbers)          Masses                          Geom
	      12.000000            23.985042         -0.00000000  2.55492977  0.00000000
	      12.000000            23.985042          0.00000000 -2.55492977  0.00000000

	 - Coordinate -           - BOHR/RAD -       - ANG/DEG -
	 R(1,2)           =         5.109860           2.704021

	        --- Internal Coordinate Step in ANG or DEG, aJ/ANG or AJ/DEG ---
	-------------------------------------------------------------------------------
	           Coordinate      Previous         Force          Change          New
	           ----------      --------        ------          ------        ------
	               R(1,2)       2.70402        0.00025        0.00039       2.70441
	-------------------------------------------------------------------------------

	                                 ==> Convergence Check <==

	Measures of convergence in internal coordinates in au.

	Criteria marked as inactive (o), active & met (*), and active & unmet ( ).

	----------------------------------------------------------------------------------------------
	   Step    Total Energy     Delta E     Max Force     RMS Force      Max Disp      RMS Disp
	----------------------------------------------------------------------------------------------
	  Convergence Criteria     1.00e-06 *    3.00e-04 *             o    1.20e-03 *             o
	----------------------------------------------------------------------------------------------
	    15    -400.13135181   -3.99e-07 *    3.01e-05 *    3.01e-05 o    7.38e-04 *    7.38e-04 o  ~
	----------------------------------------------------------------------------------------------

Next Geometry in Ang
	Fragment 1 (Ang)

	   Mg  -0.0000000000   1.3522057664   0.0000000000
	   Mg   0.0000000000  -1.3522057664   0.0000000000

    Final optimized geometry and variables:
    Molecular point group: d2h
    Full point group: D_inf_h

    Geometry (in Angstrom), charge = -1, multiplicity = 4:

    MG          -0.000000000000     1.352010608258     0.000000000000
    MG           0.000000000000    -1.352010608258     0.000000000000

    Psi4 stopped on: Thursday, 17 July 2025 11:22AM
    Psi4 wall time for execution: 0:00:23.89

*** Psi4 exiting successfully. Buy a developer a beer!
