                               Psi4 1.9.1 release

  ==> Input File <==

--------------------------------------------------------------------------
molecule {
-1 4
F   0.00000        0.60000        0.00000
Al   0.00000       -0.60000        0.00000
}

set {
basis              cc-pvdz
reference          uks
maxiter            500
geom_maxiter       500
DAMPING_PERCENTAGE 1
guess              SAP
}

optimize('b3lyp')
--------------------------------------------------------------------------

    Molecular point group: c2v
  Charge       = -1
  Multiplicity = 4
  Basis Set: CC-PVDZ
    Blend: CC-PVDZ
  Basis Set: (CC-PVDZ AUX)
    Blend: CC-PVDZ-JKFIT
  @DF-UKS Final Energy:  -341.88710000894429
    Total Energy =                       -341.8871000089442873
 Dipole X            :          0.0000000            0.0000000            0.0000000
 Dipole Y            :          0.0000000            0.0000000            0.0000000
 Dipole Z            :          1.0936379           -0.2044455            0.8891924
 Magnitude           :                                                    0.8891924
    Molecular point group: c2v
  Basis Set: CC-PVDZ
    Blend: CC-PVDZ
  Basis Set: (CC-PVDZ AUX)
    Blend: CC-PVDZ-JKFIT
  Basis Set: CC-PVDZ
    Blend: CC-PVDZ
  Basis Set: (CC-PVDZ AUX)
    Blend: CC-PVDZ-JKFIT
  @DF-UKS Final Energy:  -342.08638739598319
    Total Energy =                       -342.0863873959831949
  Basis Set: CC-PVDZ
    Blend: CC-PVDZ
  Basis Set: (CC-PVDZ AUX)
    Blend: CC-PVDZ-JKFIT
  Basis Set: CC-PVDZ
    Blend: CC-PVDZ
  @DF-UKS Final Energy:  -342.17317749418191
    Total Energy =                       -342.1731774941819140
  @DF-UKS Final Energy:  -342.20472622814526
    Total Energy =                       -342.2047262281452618
  @DF-UKS Final Energy:  -342.22316586994691
    Total Energy =                       -342.2231658699469108
  @DF-UKS Final Energy:  -342.23072526462272
    Total Energy =                       -342.2307252646227198
  @DF-UKS Final Energy:  -342.23251294082991
    Total Energy =                       -342.2325129408299063
  @DF-UKS Final Energy:  -342.23299838769719
    Total Energy =                       -342.2329983876971937
  @DF-UKS Final Energy:  -342.23316288318534
    Total Energy =                       -342.2331628831853436
  Basis Set: (CC-PVDZ AUX)
    Blend: CC-PVDZ-JKFIT
  Basis Set: CC-PVDZ
    Blend: CC-PVDZ
  Basis Set: (CC-PVDZ AUX)
    Blend: CC-PVDZ-JKFIT
  @DF-UKS Final Energy:  -342.23319949509067
    Total Energy =                       -342.2331994950907301
  Basis Set: CC-PVDZ
    Blend: CC-PVDZ
  Basis Set: (CC-PVDZ AUX)
    Blend: CC-PVDZ-JKFIT
  Charge       = -1
  Multiplicity = 4
  Basis Set: CC-PVDZ
    Blend: CC-PVDZ
  Basis Set: (CC-PVDZ AUX)
    Blend: CC-PVDZ-JKFIT

    Orbital Energies [Eh]
    ---------------------

    Alpha Occupied:

       1A1   -55.864374     2A1   -24.427818     3A1    -3.944006
       1B1    -2.497213     1B2    -2.497213     4A1    -2.496971
       5A1    -0.903828     6A1    -0.227455     2B1    -0.168251
       2B2    -0.168251     7A1    -0.089756     3B2     0.072760
       3B1     0.072760

    Alpha Virtual:

       8A1     0.194477     9A1     0.342734     4B2     0.391275
       4B1     0.391275     1A2     0.448159    10A1     0.448159
      11A1     0.451961     5B1     0.511176     5B2     0.511176
      12A1     0.676263     6B1     1.487436     6B2     1.487436
      13A1     1.508118    14A1     2.403855     2A2     3.824007
      15A1     3.824176     7B2     3.836751     7B1     3.836751
      16A1     3.889064

    Beta Occupied:

       1A1   -55.858202     2A1   -24.421087     3A1    -3.935122
       4A1    -2.490338     1B1    -2.487272     1B2    -2.487272
       5A1    -0.888449     6A1    -0.203039     2B2    -0.153136
       2B1    -0.153136

    Beta Virtual:

       7A1     0.052647     3B2     0.184949     3B1     0.184949
       8A1     0.226586     9A1     0.387479     4B2     0.444368
       4B1     0.444368    10A1     0.490887     1A2     0.531710
      11A1     0.531711     5B1     0.567501     5B2     0.567501
      12A1     0.713015     6B1     1.498909     6B2     1.498909
      13A1     1.519486    14A1     2.417542     2A2     3.834913
      15A1     3.835082     7B2     3.850457     7B1     3.850457
      16A1     3.903590

    Final Occupation by Irrep:
             A1    A2    B1    B2
    DOCC [     6,    0,    2,    2 ]
    SOCC [     1,    0,    1,    1 ]
    NA   [     7,    0,    3,    3 ]
    NB   [     6,    0,    2,    2 ]

  @DF-UKS Final Energy:  -342.23320325777598

   => Energetics <=

    Nuclear Repulsion Energy =             35.2682717701776625
    One-Electron Energy =                -551.8848357611468600
    Two-Electron Energy =                 198.0383382707397573
    DFT Exchange-Correlation Energy =     -23.6549775375465359
    Empirical Dispersion Energy =           0.0000000000000000
    VV10 Nonlocal Energy =                  0.0000000000000000
    Total Energy =                       -342.2332032577759833

  UHF NO Occupations:
  HONO-2 :    7 A1 1.0000000
  HONO-1 :    3 B1 1.0000000
  HONO-0 :    3 B2 1.0000000
  LUNO+0 :    8 A1 0.0001864
  LUNO+1 :    4 B2 0.0000829
  LUNO+2 :    4 B1 0.0000829
  LUNO+3 :    9 A1 0.0000060

Computation Completed

Properties will be evaluated at   0.000000,   0.000000,   0.000000 [a0]

Properties computed using the SCF density matrix

 Multipole Moments:

 ------------------------------------------------------------------------------------
     Multipole            Electronic (a.u.)      Nuclear  (a.u.)        Total (a.u.)
 ------------------------------------------------------------------------------------

 L = 1.  Multiply by 2.5417464519 to convert [e a0] to [Debye]
 Dipole X            :          0.0000000            0.0000000            0.0000000
 Dipole Y            :          0.0000000            0.0000000            0.0000000
 Dipole Z            :          0.8183049           -0.2990881            0.5192168
 Magnitude           :                                                    0.5192168

 ------------------------------------------------------------------------------------

*** tstop() called on Joses-MacBook-Pro-2.local at Thu Jul 17 10:52:44 2025
Module time:
	user time   =       3.43 seconds =       0.06 minutes
	system time =       4.10 seconds =       0.07 minutes
	total time  =          1 seconds =       0.02 minutes
Total time:
	user time   =      43.64 seconds =       0.73 minutes
	system time =      73.09 seconds =       1.22 minutes
	total time  =         13 seconds =       0.22 minutes

*** tstart() called on Joses-MacBook-Pro-2.local
*** at Thu Jul 17 10:52:44 2025

         ------------------------------------------------------------
                                   SCF GRAD
                          Rob Parrish, Justin Turney,
                       Andy Simmonett, and Alex Sokolov
         ------------------------------------------------------------

  ==> Geometry <==

    Molecular point group: c2v
    Full point group: C_inf_v

    Geometry (in Angstrom), charge = -1, multiplicity = 4:

       Center              X                  Y                   Z               Mass
    ------------   -----------------  -----------------  -----------------  -----------------
         F            0.000000000000     0.000000000000     1.030151525021    18.998403162730
         AL           0.000000000000     0.000000000000    -0.725356486595    26.981538530000

  Nuclear repulsion =   35.268271770177662

  ==> Basis Set <==

  Basis Set: CC-PVDZ
    Blend: CC-PVDZ
    Number of shells: 14
    Number of basis functions: 32
    Number of Cartesian functions: 34
    Spherical Harmonics?: true
    Max angular momentum: 2

  ==> DFJKGrad: Density-Fitted SCF Gradients <==

    Gradient:                    1
    J tasked:                  Yes
    K tasked:                  Yes
    wK tasked:                  No
    OpenMP threads:              1
    Integrals threads:           1
    Memory [MiB]:              375
    Schwarz Cutoff:          1E-12
    Fitting Condition:       1E-10

   => Auxiliary Basis Set <=

  Basis Set: (CC-PVDZ AUX)
    Blend: CC-PVDZ-JKFIT
    Number of shells: 60
    Number of basis functions: 182
    Number of Cartesian functions: 211
    Spherical Harmonics?: true
    Max angular momentum: 3

  ==> DFT Potential <==

   => LibXC <=

    Version 6.2.2
    S. Lehtola, C. Steigemann, M. J.T. Oliveira, and M. A.L. Marques.,  SoftwareX 7, 1â€“5 (2018) (10.1016/j.softx.2017.11.002)

   => Composite Functional: B3LYP <=

    B3LYP Hyb-GGA Exchange-Correlation Functional

    P. J. Stephens, F. J. Devlin, C. F. Chabalowski, and M. J. Frisch.,  J. Phys. Chem. 98, 11623 (1994) (10.1021/j100096a001)

    Deriv               =              1
    GGA                 =           TRUE
    Meta                =          FALSE

    Exchange Hybrid     =           TRUE
    MP2 Hybrid          =          FALSE

   => Exchange Functionals <=

    0.0800   Slater exchange
    0.7200         Becke 88

   => Exact (HF) Exchange <=

    0.2000               HF

   => Correlation Functionals <=

    0.1900   Vosko, Wilk & Nusair (VWN5_RPA)
    0.8100   Lee, Yang & Parr

   => LibXC Density Thresholds  <==

    XC_HYB_GGA_XC_B3LYP:  1.00E-15

   => Molecular Quadrature <=

    Radial Scheme          =       TREUTLER
    Pruning Scheme         =           NONE
    Nuclear Scheme         =       TREUTLER

    Blocking Scheme        =         OCTREE
    BS radius alpha        =              1
    Pruning alpha          =              1
    Radial Points          =             75
    Spherical Points       =            302
    Total Points           =          43422
    Total Blocks           =            405
    Max Points             =            255
    Max Functions          =             32
    Weights Tolerance      =       1.00E-15

  -Total Gradient:
     Atom            X                  Y                   Z
    ------   -----------------  -----------------  -----------------
       1        0.000000000000    -0.000000000000    -0.000289851472
       2       -0.000000000000    -0.000000000000     0.000196761010

*** tstop() called on Joses-MacBook-Pro-2.local at Thu Jul 17 10:52:44 2025
Module time:
	user time   =       0.69 seconds =       0.01 minutes
	system time =       1.99 seconds =       0.03 minutes
	total time  =          0 seconds =       0.00 minutes
Total time:
	user time   =      44.33 seconds =       0.74 minutes
	system time =      75.09 seconds =       1.25 minutes
	total time  =         13 seconds =       0.22 minutes

    			-----------------------------------------

    			 OPTKING 3.0: for geometry optimizations

    			     By R.A. King, Bethel University

    			        with contributions from

    			    A.V. Copan, J. Cayton, A. Heide

    			-----------------------------------------

	                            ===> Fragment 1 <==

	 Z (Atomic Numbers)          Masses                          Geom
	       9.000000            18.998403          0.00000000  0.00000000  1.94670425
	      13.000000            26.981539          0.00000000  0.00000000 -1.37072510

	 - Coordinate -           - BOHR/RAD -       - ANG/DEG -
	 R(1,2)           =         3.317429           1.755508

	        --- Internal Coordinate Step in ANG or DEG, aJ/ANG or AJ/DEG ---
	-------------------------------------------------------------------------------
	           Coordinate      Previous         Force          Change          New
	           ----------      --------        ------          ------        ------
	               R(1,2)       1.75551        0.00200        0.00057       1.75608
	-------------------------------------------------------------------------------

	                                 ==> Convergence Check <==

	Measures of convergence in internal coordinates in au.

	Criteria marked as inactive (o), active & met (*), and active & unmet ( ).

	----------------------------------------------------------------------------------------------
	   Step    Total Energy     Delta E     Max Force     RMS Force      Max Disp      RMS Disp
	----------------------------------------------------------------------------------------------
	  Convergence Criteria     1.00e-06 *    3.00e-04 *             o    1.20e-03 *             o
	----------------------------------------------------------------------------------------------
	    11    -342.23320326   -3.76e-06      2.43e-04 *    2.43e-04 o    1.07e-03 *    1.07e-03 o  ~
	----------------------------------------------------------------------------------------------

Next Geometry in Ang
	Fragment 1 (Ang)

	    F   0.0000000000   0.0000000000   1.0304358915
	   Al   0.0000000000   0.0000000000  -0.7256408531

    Final optimized geometry and variables:
    Molecular point group: c2v
    Full point group: C_inf_v

    Geometry (in Angstrom), charge = -1, multiplicity = 4:

    F            0.000000000000     0.000000000000     1.030151525021
    AL           0.000000000000     0.000000000000    -0.725356486595

    Psi4 stopped on: Thursday, 17 July 2025 10:52AM
    Psi4 wall time for execution: 0:00:13.26

*** Psi4 exiting successfully. Buy a developer a beer!
