                               Psi4 1.9.1 release

  ==> Input File <==

--------------------------------------------------------------------------
molecule {
-1 4
Mg   0.00000        0.60000        0.00000
Ar   0.00000       -0.60000        0.00000
}

set {
basis              cc-pvdz
reference          uks
maxiter            500
geom_maxiter       500
DAMPING_PERCENTAGE 1
guess              SAP
}

optimize('b3lyp')
--------------------------------------------------------------------------

    Molecular point group: c2v
  Charge       = -1
  Multiplicity = 4
  Basis Set: CC-PVDZ
    Blend: CC-PVDZ
  Basis Set: (CC-PVDZ AUX)
    Blend: CC-PVDZ-JKFIT + DEF2-UNIVERSAL-JKFIT
  @DF-UKS Final Energy:  -726.21996157264141
    Total Energy =                       -726.2199615726414095
 Dipole X            :          0.0000000            0.0000000            0.0000000
 Dipole Y            :          0.0000000            0.0000000            0.0000000
 Dipole Z            :         -4.5337170            1.6956924           -2.8380246
 Magnitude           :                                                    2.8380246
    Molecular point group: c2v
  Basis Set: CC-PVDZ
    Blend: CC-PVDZ
  Basis Set: (CC-PVDZ AUX)
    Blend: CC-PVDZ-JKFIT + DEF2-UNIVERSAL-JKFIT
  Basis Set: CC-PVDZ
    Blend: CC-PVDZ
  Basis Set: (CC-PVDZ AUX)
    Blend: CC-PVDZ-JKFIT + DEF2-UNIVERSAL-JKFIT
  @DF-UKS Final Energy:  -726.25018587319221
    Total Energy =                       -726.2501858731922084
  Basis Set: CC-PVDZ
    Blend: CC-PVDZ
  Basis Set: (CC-PVDZ AUX)
    Blend: CC-PVDZ-JKFIT + DEF2-UNIVERSAL-JKFIT
  Basis Set: CC-PVDZ
    Blend: CC-PVDZ
  @DF-UKS Final Energy:  -726.30742967436697
    Total Energy =                       -726.3074296743669720
  @DF-UKS Final Energy:  -726.50386346426308
    Total Energy =                       -726.5038634642630768
  @DF-UKS Final Energy:  -727.06887393823524
    Total Energy =                       -727.0688739382351287
  @DF-UKS Final Energy:  -727.26190904354598
    Total Energy =                       -727.2619090435459839
  @DF-UKS Final Energy:  -727.37976581105841
    Total Energy =                       -727.3797658110584052
  @DF-UKS Final Energy:  -727.44638229778036
    Total Energy =                       -727.4463822977803602
  @DF-UKS Final Energy:  -727.48260979300642
    Total Energy =                       -727.4826097930063042
  @DF-UKS Final Energy:  -727.50244736549212
    Total Energy =                       -727.5024473654921167
  @DF-UKS Final Energy:  -727.51364210266297
    Total Energy =                       -727.5136421026629705
  @DF-UKS Final Energy:  -727.52020765225416
    Total Energy =                       -727.5202076522541574
  @DF-UKS Final Energy:  -727.52419297082599
    Total Energy =                       -727.5241929708259931
  @DF-UKS Final Energy:  -727.52663040841730
    Total Energy =                       -727.5266304084173044
  @DF-UKS Final Energy:  -727.52807456434107
    Total Energy =                       -727.5280745643411819
  @DF-UKS Final Energy:  -727.52887602889393
    Total Energy =                       -727.5288760288939329
  @DF-UKS Final Energy:  -727.52928372223118
    Total Energy =                       -727.5292837222311846
  @DF-UKS Final Energy:  -727.52946849143530
    Total Energy =                       -727.5294684914354093
  @DF-UKS Final Energy:  -727.52954286409681
    Total Energy =                       -727.5295428640968112
  @DF-UKS Final Energy:  -727.52956860832796
    Total Energy =                       -727.5295686083279634
  @DF-UKS Final Energy:  -727.52957712225918
    Total Energy =                       -727.5295771222591839
  Basis Set: (CC-PVDZ AUX)
    Blend: CC-PVDZ-JKFIT + DEF2-UNIVERSAL-JKFIT
  Basis Set: CC-PVDZ
    Blend: CC-PVDZ
  Basis Set: (CC-PVDZ AUX)
    Blend: CC-PVDZ-JKFIT + DEF2-UNIVERSAL-JKFIT
  @DF-UKS Final Energy:  -727.52957833432424
    Total Energy =                       -727.5295783343242420
  Basis Set: CC-PVDZ
    Blend: CC-PVDZ
  Basis Set: (CC-PVDZ AUX)
    Blend: CC-PVDZ-JKFIT + DEF2-UNIVERSAL-JKFIT
  Charge       = -1
  Multiplicity = 4
  Basis Set: CC-PVDZ
    Blend: CC-PVDZ
  Basis Set: (CC-PVDZ AUX)
    Blend: CC-PVDZ-JKFIT + DEF2-UNIVERSAL-JKFIT

    Orbital Energies [Eh]
    ---------------------

    Alpha Occupied:

       1A1  -114.996811     2A1   -46.679323     3A1   -11.032854
       4A1    -8.582739     1B1    -8.582724     1B2    -8.582724
       5A1    -2.958379     6A1    -1.703505     2B1    -1.701084
       2B2    -1.701084     7A1    -0.861093     3B1    -0.318888
       3B2    -0.318888     8A1    -0.318493     9A1    -0.062675
       4B2     0.062970     4B1     0.062970

    Alpha Virtual:

      10A1     0.105962    11A1     0.231664     5B2     0.295215
       5B1     0.295215    12A1     0.305549    13A1     0.462726
       1A2     0.462727     6B2     0.465581     6B1     0.465581
      14A1     0.468248     7B1     0.687492     7B2     0.687492
      15A1     0.708596    16A1     0.874728     2A2     0.939012
      17A1     0.939049     8B2     0.939524     8B1     0.939524
      18A1     0.941368

    Beta Occupied:

       1A1  -114.996765     2A1   -46.675177     3A1   -11.032809
       1B1    -8.582672     1B2    -8.582672     4A1    -8.582656
       5A1    -2.951578     6A1    -1.699605     2B1    -1.694361
       2B2    -1.694361     7A1    -0.860908     3B1    -0.318820
       3B2    -0.318820     8A1    -0.318440

    Beta Virtual:

       9A1     0.052561    10A1     0.146987     4B2     0.166142
       4B1     0.166142    11A1     0.269087    12A1     0.329417
       5B1     0.344879     5B2     0.344879    13A1     0.513470
       6B2     0.522866     6B1     0.522866     1A2     0.538843
      14A1     0.538844     7B1     0.687473     7B2     0.687473
      15A1     0.709630    16A1     0.876739     2A2     0.939118
      17A1     0.939156     8B2     0.939698     8B1     0.939698
      18A1     0.941668

    Final Occupation by Irrep:
             A1    A2    B1    B2
    DOCC [     8,    0,    3,    3 ]
    SOCC [     1,    0,    1,    1 ]
    NA   [     9,    0,    4,    4 ]
    NB   [     8,    0,    3,    3 ]

  @DF-UKS Final Energy:  -727.52957865253109

   => Energetics <=

    Nuclear Repulsion Energy =             25.5298744712818255
    One-Electron Energy =               -1062.3212178849132670
    Two-Electron Energy =                 347.5175537637597927
    DFT Exchange-Correlation Energy =     -38.2557890026595189
    Empirical Dispersion Energy =           0.0000000000000000
    VV10 Nonlocal Energy =                  0.0000000000000000
    Total Energy =                       -727.5295786525311996

  UHF NO Occupations:
  HONO-2 :    4 B2 1.0000000
  HONO-1 :    9 A1 1.0000000
  HONO-0 :    4 B1 1.0000000
  LUNO+0 :   10 A1 0.0000014
  LUNO+1 :   11 A1 0.0000004
  LUNO+2 :    5 B2 0.0000002
  LUNO+3 :    5 B1 0.0000002

Computation Completed

Properties will be evaluated at   0.000000,   0.000000,   0.000000 [a0]

Properties computed using the SCF density matrix

 Multipole Moments:

 ------------------------------------------------------------------------------------
     Multipole            Electronic (a.u.)      Nuclear  (a.u.)        Total (a.u.)
 ------------------------------------------------------------------------------------

 L = 1.  Multiply by 2.5417464519 to convert [e a0] to [Debye]
 Dipole X            :          0.0000000            0.0000000            0.0000000
 Dipole Y            :          0.0000000            0.0000000            0.0000000
 Dipole Z            :        -11.6083337            6.3266241           -5.2817097
 Magnitude           :                                                    5.2817097

 ------------------------------------------------------------------------------------

*** tstop() called on Joses-MacBook-Pro-2.local at Thu Jul 17 11:33:12 2025
Module time:
	user time   =       5.44 seconds =       0.09 minutes
	system time =       3.20 seconds =       0.05 minutes
	total time  =          0 seconds =       0.00 minutes
Total time:
	user time   =     347.22 seconds =       5.79 minutes
	system time =     126.26 seconds =       2.10 minutes
	total time  =         46 seconds =       0.77 minutes

*** tstart() called on Joses-MacBook-Pro-2.local
*** at Thu Jul 17 11:33:12 2025

         ------------------------------------------------------------
                                   SCF GRAD
                          Rob Parrish, Justin Turney,
                       Andy Simmonett, and Alex Sokolov
         ------------------------------------------------------------

  ==> Geometry <==

    Molecular point group: c2v
    Full point group: C_inf_v

    Geometry (in Angstrom), charge = -1, multiplicity = 4:

       Center              X                  Y                   Z               Mass
    ------------   -----------------  -----------------  -----------------  -----------------
         MG           0.000000000000     0.000000000000     2.797915045219    23.985041697000
         AR           0.000000000000     0.000000000000    -1.679281959149    39.962383123700

  Nuclear repulsion =   25.529874471281826

  ==> Basis Set <==

  Basis Set: CC-PVDZ
    Blend: CC-PVDZ
    Number of shells: 16
    Number of basis functions: 36
    Number of Cartesian functions: 38
    Spherical Harmonics?: true
    Max angular momentum: 2

  ==> DFJKGrad: Density-Fitted SCF Gradients <==

    Gradient:                    1
    J tasked:                  Yes
    K tasked:                  Yes
    wK tasked:                  No
    OpenMP threads:              1
    Integrals threads:           1
    Memory [MiB]:              375
    Schwarz Cutoff:          1E-12
    Fitting Condition:       1E-10

   => Auxiliary Basis Set <=

  Basis Set: (CC-PVDZ AUX)
    Blend: CC-PVDZ-JKFIT + DEF2-UNIVERSAL-JKFIT
    Number of shells: 70
    Number of basis functions: 224
    Number of Cartesian functions: 267
    Spherical Harmonics?: true
    Max angular momentum: 4

  ==> DFT Potential <==

   => LibXC <=

    Version 6.2.2
    S. Lehtola, C. Steigemann, M. J.T. Oliveira, and M. A.L. Marques.,  SoftwareX 7, 1â€“5 (2018) (10.1016/j.softx.2017.11.002)

   => Composite Functional: B3LYP <=

    B3LYP Hyb-GGA Exchange-Correlation Functional

    P. J. Stephens, F. J. Devlin, C. F. Chabalowski, and M. J. Frisch.,  J. Phys. Chem. 98, 11623 (1994) (10.1021/j100096a001)

    Deriv               =              1
    GGA                 =           TRUE
    Meta                =          FALSE

    Exchange Hybrid     =           TRUE
    MP2 Hybrid          =          FALSE

   => Exchange Functionals <=

    0.0800   Slater exchange
    0.7200         Becke 88

   => Exact (HF) Exchange <=

    0.2000               HF

   => Correlation Functionals <=

    0.1900   Vosko, Wilk & Nusair (VWN5_RPA)
    0.8100   Lee, Yang & Parr

   => LibXC Density Thresholds  <==

    XC_HYB_GGA_XC_B3LYP:  1.00E-15

   => Molecular Quadrature <=

    Radial Scheme          =       TREUTLER
    Pruning Scheme         =           NONE
    Nuclear Scheme         =       TREUTLER

    Blocking Scheme        =         OCTREE
    BS radius alpha        =              1
    Pruning alpha          =              1
    Radial Points          =             75
    Spherical Points       =            302
    Total Points           =          43123
    Total Blocks           =            450
    Max Points             =            255
    Max Functions          =             36
    Weights Tolerance      =       1.00E-15

  -Total Gradient:
     Atom            X                  Y                   Z
    ------   -----------------  -----------------  -----------------
       1        0.000000000000     0.000000000000    -0.000007143560
       2       -0.000000000000    -0.000000000000    -0.000003412122

*** tstop() called on Joses-MacBook-Pro-2.local at Thu Jul 17 11:33:13 2025
Module time:
	user time   =       1.85 seconds =       0.03 minutes
	system time =       1.77 seconds =       0.03 minutes
	total time  =          1 seconds =       0.02 minutes
Total time:
	user time   =     349.07 seconds =       5.82 minutes
	system time =     128.04 seconds =       2.13 minutes
	total time  =         47 seconds =       0.78 minutes

    			-----------------------------------------

    			 OPTKING 3.0: for geometry optimizations

    			     By R.A. King, Bethel University

    			        with contributions from

    			    A.V. Copan, J. Cayton, A. Heide

    			-----------------------------------------

	                            ===> Fragment 1 <==

	 Z (Atomic Numbers)          Masses                          Geom
	      12.000000            23.985042          0.00000000  0.00000000  5.28729316
	      18.000000            39.962383          0.00000000  0.00000000 -3.17338299

	 - Coordinate -           - BOHR/RAD -       - ANG/DEG -
	 R(1,2)           =         8.460676           4.477197

	        --- Internal Coordinate Step in ANG or DEG, aJ/ANG or AJ/DEG ---
	-------------------------------------------------------------------------------
	           Coordinate      Previous         Force          Change          New
	           ----------      --------        ------          ------        ------
	               R(1,2)       4.47720        0.00002        0.00447       4.48167
	-------------------------------------------------------------------------------

	                                 ==> Convergence Check <==

	Measures of convergence in internal coordinates in au.

	Criteria marked as inactive (o), active & met (*), and active & unmet ( ).

	----------------------------------------------------------------------------------------------
	   Step    Total Energy     Delta E     Max Force     RMS Force      Max Disp      RMS Disp
	----------------------------------------------------------------------------------------------
	  Convergence Criteria     1.00e-06 *    3.00e-04 *             o    1.20e-03 *             o
	----------------------------------------------------------------------------------------------
	    23    -727.52957865   -3.18e-07 *    1.87e-06 *    1.87e-06 o    8.45e-03      8.45e-03 o  ~
	----------------------------------------------------------------------------------------------

Next Geometry in Ang
	Fragment 1 (Ang)

	   Mg   0.0000000000   0.0000000000   2.8001504113
	   Ar   0.0000000000   0.0000000000  -1.6815173252

    Final optimized geometry and variables:
    Molecular point group: c2v
    Full point group: C_inf_v

    Geometry (in Angstrom), charge = -1, multiplicity = 4:

    MG           0.000000000000     0.000000000000     2.797915045219
    AR           0.000000000000     0.000000000000    -1.679281959149

    Psi4 stopped on: Thursday, 17 July 2025 11:33AM
    Psi4 wall time for execution: 0:00:47.92

*** Psi4 exiting successfully. Buy a developer a beer!
