                               Psi4 1.9.1 release

  ==> Input File <==

--------------------------------------------------------------------------
molecule {
-1 4
C   0.00000        0.60000        0.00000
C   0.00000       -0.60000        0.00000
}

set {
basis              cc-pvdz
reference          uks
maxiter            500
geom_maxiter       500
DAMPING_PERCENTAGE 1
guess              SAP
}

optimize('b3lyp')
--------------------------------------------------------------------------

    Molecular point group: d2h
  Charge       = -1
  Multiplicity = 4
  Basis Set: CC-PVDZ
    Blend: CC-PVDZ
  Basis Set: (CC-PVDZ AUX)
    Blend: CC-PVDZ-JKFIT
  @DF-UKS Final Energy:   -75.80186536065609
    Total Energy =                        -75.8018653606561088
 Dipole X            :          0.0000000            0.0000000            0.0000000
 Dipole Y            :          0.0000000            0.0000000            0.0000000
 Dipole Z            :          0.0000000            0.0000000            0.0000000
 Magnitude           :                                                    0.0000000
    Molecular point group: d2h
  Basis Set: CC-PVDZ
    Blend: CC-PVDZ
  Basis Set: (CC-PVDZ AUX)
    Blend: CC-PVDZ-JKFIT
  Basis Set: CC-PVDZ
    Blend: CC-PVDZ
  Basis Set: (CC-PVDZ AUX)
    Blend: CC-PVDZ-JKFIT
  @DF-UKS Final Energy:   -75.86545904447047
    Total Energy =                        -75.8654590444704695
  Basis Set: CC-PVDZ
    Blend: CC-PVDZ
  Basis Set: (CC-PVDZ AUX)
    Blend: CC-PVDZ-JKFIT
  Basis Set: CC-PVDZ
    Blend: CC-PVDZ
  @DF-UKS Final Energy:   -75.87022282969900
    Total Energy =                        -75.8702228296990029
  @DF-UKS Final Energy:   -75.87137374379280
    Total Energy =                        -75.8713737437928017
  @DF-UKS Final Energy:   -75.87168713502319
    Total Energy =                        -75.8716871350231941
  @DF-UKS Final Energy:   -75.87177795243051
    Total Energy =                        -75.8717779524305058
  Basis Set: (CC-PVDZ AUX)
    Blend: CC-PVDZ-JKFIT
  Basis Set: CC-PVDZ
    Blend: CC-PVDZ
  Basis Set: (CC-PVDZ AUX)
    Blend: CC-PVDZ-JKFIT
  @DF-UKS Final Energy:   -75.87181475321749
    Total Energy =                        -75.8718147532175067
  Basis Set: CC-PVDZ
    Blend: CC-PVDZ
  Basis Set: (CC-PVDZ AUX)
    Blend: CC-PVDZ-JKFIT
  Charge       = -1
  Multiplicity = 4
  Basis Set: CC-PVDZ
    Blend: CC-PVDZ
  Basis Set: (CC-PVDZ AUX)
    Blend: CC-PVDZ-JKFIT

    Orbital Energies [Eh]
    ---------------------

    Alpha Occupied:

       1Ag    -9.941734     1B2u   -9.941465     2Ag    -0.437078
       2B2u   -0.155980     1B1u   -0.035103     3Ag    -0.021951
       1B3u    0.013694     1B3g    0.155863

    Alpha Virtual:

       1B1g    0.260543     3B2u    0.485636     4Ag     0.712419
       2B1u    0.716646     2B3u    0.743738     4B2u    0.780715
       2B3g    0.780778     2B1g    0.813458     5Ag     0.815907
       5B2u    1.208962     3B1u    1.294263     1B2g    1.319618
       3B3u    1.320240     6Ag     1.321036     1Au     1.583234
       6B2u    1.585346     7Ag     1.915711     3B3g    1.988648
       3B1g    2.014043     7B2u    2.152635

    Beta Occupied:

       1Ag    -9.921331     1B2u   -9.921170     2Ag    -0.358175
       2B2u   -0.049453     1B3u    0.037172

    Beta Virtual:

       3Ag     0.129686     1B1u    0.147396     1B1g    0.289452
       1B3g    0.338904     3B2u    0.521902     4Ag     0.755341
       2B3u    0.758261     2B1u    0.792637     2B1g    0.830805
       4B2u    0.861526     2B3g    0.864237     5Ag     0.866978
       5B2u    1.251331     3B3u    1.360015     1B2g    1.381124
       6Ag     1.384441     3B1u    1.393694     1Au     1.648783
       6B2u    1.652271     7Ag     1.982355     3B1g    2.051364
       3B3g    2.081609     7B2u    2.214116

    Final Occupation by Irrep:
             Ag   B1g   B2g   B3g    Au   B1u   B2u   B3u
    DOCC [     2,    0,    0,    0,    0,    0,    2,    1 ]
    SOCC [     1,    0,    0,    1,    0,    1,    0,    0 ]
    NA   [     3,    0,    0,    1,    0,    1,    2,    1 ]
    NB   [     2,    0,    0,    0,    0,    0,    2,    1 ]

  @DF-UKS Final Energy:   -75.87181711002549

   => Energetics <=

    Nuclear Repulsion Energy =             13.0387453670090707
    One-Electron Energy =                -130.9185201788078530
    Two-Electron Energy =                  50.7862788458891927
    DFT Exchange-Correlation Energy =      -8.7783211441158855
    Empirical Dispersion Energy =           0.0000000000000000
    VV10 Nonlocal Energy =                  0.0000000000000000
    Total Energy =                        -75.8718171100254892

  UHF NO Occupations:
  HONO-2 :    3 Ag 1.0000000
  HONO-1 :    1B1u 1.0000000
  HONO-0 :    1B3g 1.0000000
  LUNO+0 :    3B2u 0.0014780
  LUNO+1 :    4 Ag 0.0005755
  LUNO+2 :    2B3u 0.0001526
  LUNO+3 :    4B2u 0.0000004

Computation Completed

Properties will be evaluated at   0.000000,   0.000000,   0.000000 [a0]

Properties computed using the SCF density matrix

 Multipole Moments:

 ------------------------------------------------------------------------------------
     Multipole            Electronic (a.u.)      Nuclear  (a.u.)        Total (a.u.)
 ------------------------------------------------------------------------------------

 L = 1.  Multiply by 2.5417464519 to convert [e a0] to [Debye]
 Dipole X            :          0.0000000            0.0000000            0.0000000
 Dipole Y            :          0.0000000            0.0000000            0.0000000
 Dipole Z            :          0.0000000            0.0000000            0.0000000
 Magnitude           :                                                    0.0000000

 ------------------------------------------------------------------------------------

*** tstop() called on Joses-MacBook-Pro-2.local at Thu Jul 17 09:58:01 2025
Module time:
	user time   =       3.15 seconds =       0.05 minutes
	system time =       3.39 seconds =       0.06 minutes
	total time  =          0 seconds =       0.00 minutes
Total time:
	user time   =      32.05 seconds =       0.53 minutes
	system time =      37.22 seconds =       0.62 minutes
	total time  =          7 seconds =       0.12 minutes

*** tstart() called on Joses-MacBook-Pro-2.local
*** at Thu Jul 17 09:58:01 2025

         ------------------------------------------------------------
                                   SCF GRAD
                          Rob Parrish, Justin Turney,
                       Andy Simmonett, and Alex Sokolov
         ------------------------------------------------------------

  ==> Geometry <==

    Molecular point group: d2h
    Full point group: D_inf_h

    Geometry (in Angstrom), charge = -1, multiplicity = 4:

       Center              X                  Y                   Z               Mass
    ------------   -----------------  -----------------  -----------------  -----------------
         C           -0.000000000000     0.730529627196     0.000000000000    12.000000000000
         C            0.000000000000    -0.730529627196     0.000000000000    12.000000000000

  Nuclear repulsion =   13.038745367009071

  ==> Basis Set <==

  Basis Set: CC-PVDZ
    Blend: CC-PVDZ
    Number of shells: 12
    Number of basis functions: 28
    Number of Cartesian functions: 30
    Spherical Harmonics?: true
    Max angular momentum: 2

  ==> DFJKGrad: Density-Fitted SCF Gradients <==

    Gradient:                    1
    J tasked:                  Yes
    K tasked:                  Yes
    wK tasked:                  No
    OpenMP threads:              1
    Integrals threads:           1
    Memory [MiB]:              375
    Schwarz Cutoff:          1E-12
    Fitting Condition:       1E-10

   => Auxiliary Basis Set <=

  Basis Set: (CC-PVDZ AUX)
    Blend: CC-PVDZ-JKFIT
    Number of shells: 48
    Number of basis functions: 140
    Number of Cartesian functions: 162
    Spherical Harmonics?: true
    Max angular momentum: 3

  ==> DFT Potential <==

   => LibXC <=

    Version 6.2.2
    S. Lehtola, C. Steigemann, M. J.T. Oliveira, and M. A.L. Marques.,  SoftwareX 7, 1â€“5 (2018) (10.1016/j.softx.2017.11.002)

   => Composite Functional: B3LYP <=

    B3LYP Hyb-GGA Exchange-Correlation Functional

    P. J. Stephens, F. J. Devlin, C. F. Chabalowski, and M. J. Frisch.,  J. Phys. Chem. 98, 11623 (1994) (10.1021/j100096a001)

    Deriv               =              1
    GGA                 =           TRUE
    Meta                =          FALSE

    Exchange Hybrid     =           TRUE
    MP2 Hybrid          =          FALSE

   => Exchange Functionals <=

    0.0800   Slater exchange
    0.7200         Becke 88

   => Exact (HF) Exchange <=

    0.2000               HF

   => Correlation Functionals <=

    0.1900   Vosko, Wilk & Nusair (VWN5_RPA)
    0.8100   Lee, Yang & Parr

   => LibXC Density Thresholds  <==

    XC_HYB_GGA_XC_B3LYP:  1.00E-15

   => Molecular Quadrature <=

    Radial Scheme          =       TREUTLER
    Pruning Scheme         =           NONE
    Nuclear Scheme         =       TREUTLER

    Blocking Scheme        =         OCTREE
    BS radius alpha        =              1
    Pruning alpha          =              1
    Radial Points          =             75
    Spherical Points       =            302
    Total Points           =          42456
    Total Blocks           =            382
    Max Points             =            252
    Max Functions          =             28
    Weights Tolerance      =       1.00E-15

  -Total Gradient:
     Atom            X                  Y                   Z
    ------   -----------------  -----------------  -----------------
       1        0.000000000000    -0.000176253823     0.000000000000
       2       -0.000000000000     0.000176253823     0.000000000000

*** tstop() called on Joses-MacBook-Pro-2.local at Thu Jul 17 09:58:01 2025
Module time:
	user time   =       0.98 seconds =       0.02 minutes
	system time =       1.34 seconds =       0.02 minutes
	total time  =          0 seconds =       0.00 minutes
Total time:
	user time   =      33.03 seconds =       0.55 minutes
	system time =      38.57 seconds =       0.64 minutes
	total time  =          7 seconds =       0.12 minutes

    			-----------------------------------------

    			 OPTKING 3.0: for geometry optimizations

    			     By R.A. King, Bethel University

    			        with contributions from

    			    A.V. Copan, J. Cayton, A. Heide

    			-----------------------------------------

	                            ===> Fragment 1 <==

	 Z (Atomic Numbers)          Masses                          Geom
	       6.000000            12.000000         -0.00000000  1.38050092  0.00000000
	       6.000000            12.000000          0.00000000 -1.38050092  0.00000000

	 - Coordinate -           - BOHR/RAD -       - ANG/DEG -
	 R(1,2)           =         2.761002           1.461059

	        --- Internal Coordinate Step in ANG or DEG, aJ/ANG or AJ/DEG ---
	-------------------------------------------------------------------------------
	           Coordinate      Previous         Force          Change          New
	           ----------      --------        ------          ------        ------
	               R(1,2)       1.46106        0.00145        0.00026       1.46132
	-------------------------------------------------------------------------------

	                                 ==> Convergence Check <==

	Measures of convergence in internal coordinates in au.

	Criteria marked as inactive (o), active & met (*), and active & unmet ( ).

	----------------------------------------------------------------------------------------------
	   Step    Total Energy     Delta E     Max Force     RMS Force      Max Disp      RMS Disp
	----------------------------------------------------------------------------------------------
	  Convergence Criteria     1.00e-06 *    3.00e-04 *             o    1.20e-03 *             o
	----------------------------------------------------------------------------------------------
	     8     -75.87181711   -2.36e-06      1.76e-04 *    1.76e-04 o    4.95e-04 *    4.95e-04 o  ~
	----------------------------------------------------------------------------------------------

Next Geometry in Ang
	Fragment 1 (Ang)

	    C  -0.0000000000   0.7306606252   0.0000000000
	    C   0.0000000000  -0.7306606252   0.0000000000

    Final optimized geometry and variables:
    Molecular point group: d2h
    Full point group: D_inf_h

    Geometry (in Angstrom), charge = -1, multiplicity = 4:

    C           -0.000000000000     0.730529627196     0.000000000000
    C            0.000000000000    -0.730529627196     0.000000000000

    Psi4 stopped on: Thursday, 17 July 2025 09:58AM
    Psi4 wall time for execution: 0:00:07.66

*** Psi4 exiting successfully. Buy a developer a beer!
