                               Psi4 1.9.1 release

  ==> Input File <==

--------------------------------------------------------------------------
molecule {
-1 4
He   0.00000        0.60000        0.00000
S   0.00000       -0.60000        0.00000
}

set {
basis              cc-pvdz
reference          uks
maxiter            500
geom_maxiter       500
DAMPING_PERCENTAGE 1
guess              SAP
}

optimize('b3lyp')
--------------------------------------------------------------------------

    Molecular point group: c2v
  Charge       = -1
  Multiplicity = 4
  Basis Set: CC-PVDZ
    Blend: CC-PVDZ
  Basis Set: (CC-PVDZ AUX)
    Blend: CC-PVDZ-JKFIT + DEF2-UNIVERSAL-JKFIT
  @DF-UKS Final Energy:  -400.29062790824895
    Total Energy =                       -400.2906279082488936
 Dipole X            :          0.0000000            0.0000000            0.0000000
 Dipole Y            :          0.0000000            0.0000000            0.0000000
 Dipole Z            :          0.3366821           -0.0061465            0.3305355
 Magnitude           :                                                    0.3305355
    Molecular point group: c2v
  Basis Set: CC-PVDZ
    Blend: CC-PVDZ
  Basis Set: (CC-PVDZ AUX)
    Blend: CC-PVDZ-JKFIT + DEF2-UNIVERSAL-JKFIT
  Basis Set: CC-PVDZ
    Blend: CC-PVDZ
  Basis Set: (CC-PVDZ AUX)
    Blend: CC-PVDZ-JKFIT + DEF2-UNIVERSAL-JKFIT
  @DF-UKS Final Energy:  -400.39321485486715
    Total Energy =                       -400.3932148548671535
  Basis Set: CC-PVDZ
    Blend: CC-PVDZ
  Basis Set: (CC-PVDZ AUX)
    Blend: CC-PVDZ-JKFIT + DEF2-UNIVERSAL-JKFIT
  Basis Set: CC-PVDZ
    Blend: CC-PVDZ
  @DF-UKS Final Energy:  -400.40929812935696
    Total Energy =                       -400.4092981293569551
  @DF-UKS Final Energy:  -400.42382725942883
    Total Energy =                       -400.4238272594288333
  @DF-UKS Final Energy:  -400.43997733705123
    Total Energy =                       -400.4399773370512321
  @DF-UKS Final Energy:  -400.47303269301250
    Total Energy =                       -400.4730326930124420
  @DF-UKS Final Energy:  -400.47424318332611
    Total Energy =                       -400.4742431833261094
  @DF-UKS Final Energy:  -400.47858837435774
    Total Energy =                       -400.4785883743577415
  @DF-UKS Final Energy:  -400.48055452380066
    Total Energy =                       -400.4805545238006630
  @DF-UKS Final Energy:  -400.48103503952728
    Total Energy =                       -400.4810350395272849
  Basis Set: (CC-PVDZ AUX)
    Blend: CC-PVDZ-JKFIT + DEF2-UNIVERSAL-JKFIT
  Basis Set: CC-PVDZ
    Blend: CC-PVDZ
  Basis Set: (CC-PVDZ AUX)
    Blend: CC-PVDZ-JKFIT + DEF2-UNIVERSAL-JKFIT
  @DF-UKS Final Energy:  -400.48104844985551
    Total Energy =                       -400.4810484498555070
  Basis Set: CC-PVDZ
    Blend: CC-PVDZ
  Basis Set: (CC-PVDZ AUX)
    Blend: CC-PVDZ-JKFIT + DEF2-UNIVERSAL-JKFIT
  Charge       = -1
  Multiplicity = 4
  Basis Set: CC-PVDZ
    Blend: CC-PVDZ
  Basis Set: (CC-PVDZ AUX)
    Blend: CC-PVDZ-JKFIT + DEF2-UNIVERSAL-JKFIT

    Orbital Energies [Eh]
    ---------------------

    Alpha Occupied:

       1A1   -88.536904     2A1    -7.611095     1B2    -5.575153
       3A1    -5.575128     1B1    -5.557871     4A1    -0.475822
       5A1    -0.392205     2B2    -0.011916     6A1    -0.010917
       2B1     0.033598     7A1     0.658913

    Alpha Virtual:

       8A1     0.726427     3B2     0.727782     3B1     0.761134
       9A1     0.856810     4B2     0.857446     1A2     0.893868
       4B1     0.894450    10A1     0.907356    11A1     1.323659
       5B2     2.363511     5B1     2.363683    12A1     2.372044

    Beta Occupied:

       1A1   -88.519274     2A1    -7.591124     1B2    -5.549636
       3A1    -5.549126     1B1    -5.545308     4A1    -0.473394
       5A1    -0.284334     2B1     0.073120

    Beta Virtual:

       2B2     0.149561     6A1     0.151594     7A1     0.783179
       3B1     0.802635     3B2     0.808997     8A1     0.809135
       1A2     0.955393     4B1     0.956215     9A1     0.958442
      10A1     0.965579     4B2     0.966298    11A1     1.328065
       5B2     2.364278     5B1     2.364447    12A1     2.373369

    Final Occupation by Irrep:
             A1    A2    B1    B2
    DOCC [     5,    0,    2,    1 ]
    SOCC [     2,    0,    0,    1 ]
    NA   [     7,    0,    2,    2 ]
    NB   [     5,    0,    2,    1 ]

  @DF-UKS Final Energy:  -400.48104896881762

   => Energetics <=

    Nuclear Repulsion Energy =              5.3785811836603017
    One-Electron Energy =                -569.7271718990280078
    Two-Electron Energy =                 185.6452896762573914
    DFT Exchange-Correlation Energy =     -21.7777479297073633
    Empirical Dispersion Energy =           0.0000000000000000
    VV10 Nonlocal Energy =                  0.0000000000000000
    Total Energy =                       -400.4810489688176176

  UHF NO Occupations:
  HONO-2 :    6 A1 1.0000000
  HONO-1 :    2 B2 1.0000000
  HONO-0 :    7 A1 1.0000000
  LUNO+0 :    8 A1 0.0008237
  LUNO+1 :    3 B1 0.0000475
  LUNO+2 :    9 A1 0.0000024
  LUNO+3 :    3 B2 0.0000002

Computation Completed

Properties will be evaluated at   0.000000,   0.000000,   0.000000 [a0]

Properties computed using the SCF density matrix

 Multipole Moments:

 ------------------------------------------------------------------------------------
     Multipole            Electronic (a.u.)      Nuclear  (a.u.)        Total (a.u.)
 ------------------------------------------------------------------------------------

 L = 1.  Multiply by 2.5417464519 to convert [e a0] to [Debye]
 Dipole X            :          0.0000000            0.0000000            0.0000000
 Dipole Y            :          0.0000000            0.0000000            0.0000000
 Dipole Z            :          0.3423574           -0.0161262            0.3262311
 Magnitude           :                                                    0.3262311

 ------------------------------------------------------------------------------------

*** tstop() called on Joses-MacBook-Pro-2.local at Thu Jul 17 09:25:13 2025
Module time:
	user time   =       3.42 seconds =       0.06 minutes
	system time =       3.12 seconds =       0.05 minutes
	total time  =          1 seconds =       0.02 minutes
Total time:
	user time   =      61.19 seconds =       1.02 minutes
	system time =      53.68 seconds =       0.89 minutes
	total time  =         11 seconds =       0.18 minutes

*** tstart() called on Joses-MacBook-Pro-2.local
*** at Thu Jul 17 09:25:13 2025

         ------------------------------------------------------------
                                   SCF GRAD
                          Rob Parrish, Justin Turney,
                       Andy Simmonett, and Alex Sokolov
         ------------------------------------------------------------

  ==> Geometry <==

    Molecular point group: c2v
    Full point group: C_inf_v

    Geometry (in Angstrom), charge = -1, multiplicity = 4:

       Center              X                  Y                   Z               Mass
    ------------   -----------------  -----------------  -----------------  -----------------
         HE           0.000000000000     0.000000000000     2.798061666863     4.002603254130
         S            0.000000000000     0.000000000000    -0.350291060969    31.972071174400

  Nuclear repulsion =    5.378581183660302

  ==> Basis Set <==

  Basis Set: CC-PVDZ
    Blend: CC-PVDZ
    Number of shells: 11
    Number of basis functions: 23
    Number of Cartesian functions: 24
    Spherical Harmonics?: true
    Max angular momentum: 2

  ==> DFJKGrad: Density-Fitted SCF Gradients <==

    Gradient:                    1
    J tasked:                  Yes
    K tasked:                  Yes
    wK tasked:                  No
    OpenMP threads:              1
    Integrals threads:           1
    Memory [MiB]:              375
    Schwarz Cutoff:          1E-12
    Fitting Condition:       1E-10

   => Auxiliary Basis Set <=

  Basis Set: (CC-PVDZ AUX)
    Blend: CC-PVDZ-JKFIT + DEF2-UNIVERSAL-JKFIT
    Number of shells: 45
    Number of basis functions: 135
    Number of Cartesian functions: 155
    Spherical Harmonics?: true
    Max angular momentum: 3

  ==> DFT Potential <==

   => LibXC <=

    Version 6.2.2
    S. Lehtola, C. Steigemann, M. J.T. Oliveira, and M. A.L. Marques.,  SoftwareX 7, 1â€“5 (2018) (10.1016/j.softx.2017.11.002)

   => Composite Functional: B3LYP <=

    B3LYP Hyb-GGA Exchange-Correlation Functional

    P. J. Stephens, F. J. Devlin, C. F. Chabalowski, and M. J. Frisch.,  J. Phys. Chem. 98, 11623 (1994) (10.1021/j100096a001)

    Deriv               =              1
    GGA                 =           TRUE
    Meta                =          FALSE

    Exchange Hybrid     =           TRUE
    MP2 Hybrid          =          FALSE

   => Exchange Functionals <=

    0.0800   Slater exchange
    0.7200         Becke 88

   => Exact (HF) Exchange <=

    0.2000               HF

   => Correlation Functionals <=

    0.1900   Vosko, Wilk & Nusair (VWN5_RPA)
    0.8100   Lee, Yang & Parr

   => LibXC Density Thresholds  <==

    XC_HYB_GGA_XC_B3LYP:  1.00E-15

   => Molecular Quadrature <=

    Radial Scheme          =       TREUTLER
    Pruning Scheme         =           NONE
    Nuclear Scheme         =       TREUTLER

    Blocking Scheme        =         OCTREE
    BS radius alpha        =              1
    Pruning alpha          =              1
    Radial Points          =             75
    Spherical Points       =            302
    Total Points           =          42520
    Total Blocks           =            379
    Max Points             =            256
    Max Functions          =             23
    Weights Tolerance      =       1.00E-15

  -Total Gradient:
     Atom            X                  Y                   Z
    ------   -----------------  -----------------  -----------------
       1        0.000000000000     0.000000000000    -0.000022624559
       2        0.000000000000    -0.000000000000     0.000010308573

*** tstop() called on Joses-MacBook-Pro-2.local at Thu Jul 17 09:25:13 2025
Module time:
	user time   =       0.51 seconds =       0.01 minutes
	system time =       1.31 seconds =       0.02 minutes
	total time  =          0 seconds =       0.00 minutes
Total time:
	user time   =      61.71 seconds =       1.03 minutes
	system time =      54.99 seconds =       0.92 minutes
	total time  =         11 seconds =       0.18 minutes

    			-----------------------------------------

    			 OPTKING 3.0: for geometry optimizations

    			     By R.A. King, Bethel University

    			        with contributions from

    			    A.V. Copan, J. Cayton, A. Heide

    			-----------------------------------------

	                            ===> Fragment 1 <==

	 Z (Atomic Numbers)          Masses                          Geom
	       2.000000             4.002603          0.00000000  0.00000000  5.28757023
	      16.000000            31.972071          0.00000000  0.00000000 -0.66195417

	 - Coordinate -           - BOHR/RAD -       - ANG/DEG -
	 R(1,2)           =         5.949524           3.148353

	        --- Internal Coordinate Step in ANG or DEG, aJ/ANG or AJ/DEG ---
	-------------------------------------------------------------------------------
	           Coordinate      Previous         Force          Change          New
	           ----------      --------        ------          ------        ------
	               R(1,2)       3.14835        0.00014        0.00116       3.14952
	-------------------------------------------------------------------------------

	                                 ==> Convergence Check <==

	Measures of convergence in internal coordinates in au.

	Criteria marked as inactive (o), active & met (*), and active & unmet ( ).

	----------------------------------------------------------------------------------------------
	   Step    Total Energy     Delta E     Max Force     RMS Force      Max Disp      RMS Disp
	----------------------------------------------------------------------------------------------
	  Convergence Criteria     1.00e-06 *    3.00e-04 *             o    1.20e-03 *             o
	----------------------------------------------------------------------------------------------
	    12    -400.48104897   -5.19e-07 *    1.65e-05 *    1.65e-05 o    2.20e-03      2.20e-03 o  ~
	----------------------------------------------------------------------------------------------

Next Geometry in Ang
	Fragment 1 (Ang)

	   He   0.0000000000   0.0000000000   2.7986438580
	    S   0.0000000000   0.0000000000  -0.3508732521

    Final optimized geometry and variables:
    Molecular point group: c2v
    Full point group: C_inf_v

    Geometry (in Angstrom), charge = -1, multiplicity = 4:

    HE           0.000000000000     0.000000000000     2.798061666863
    S            0.000000000000     0.000000000000    -0.350291060969

    Psi4 stopped on: Thursday, 17 July 2025 09:25AM
    Psi4 wall time for execution: 0:00:11.83

*** Psi4 exiting successfully. Buy a developer a beer!
