                               Psi4 1.9.1 release

  ==> Input File <==

--------------------------------------------------------------------------
molecule {
-1 4
Be   0.00000        0.60000        0.00000
S   0.00000       -0.60000        0.00000
}

set {
basis              cc-pvdz
reference          uks
maxiter            500
geom_maxiter       500
DAMPING_PERCENTAGE 1
guess              SAP
}

optimize('b3lyp')
--------------------------------------------------------------------------

    Molecular point group: c2v
  Charge       = -1
  Multiplicity = 4
  Basis Set: CC-PVDZ
    Blend: CC-PVDZ
  Basis Set: (CC-PVDZ AUX)
    Blend: CC-PVDZ-JKFIT + DEF2-UNIVERSAL-JKFIT
  @DF-UKS Final Energy:  -412.33305934791139
    Total Energy =                       -412.3330593479113872
 Dipole X            :          0.0000000            0.0000000            0.0000000
 Dipole Y            :          0.0000000            0.0000000            0.0000000
 Dipole Z            :         -2.0542907           -0.9022516           -2.9565423
 Magnitude           :                                                    2.9565423
    Molecular point group: c2v
  Basis Set: CC-PVDZ
    Blend: CC-PVDZ
  Basis Set: (CC-PVDZ AUX)
    Blend: CC-PVDZ-JKFIT + DEF2-UNIVERSAL-JKFIT
  Basis Set: CC-PVDZ
    Blend: CC-PVDZ
  Basis Set: (CC-PVDZ AUX)
    Blend: CC-PVDZ-JKFIT + DEF2-UNIVERSAL-JKFIT
  @DF-UKS Final Energy:  -412.53689557356699
    Total Energy =                       -412.5368955735669942
  Basis Set: CC-PVDZ
    Blend: CC-PVDZ
  Basis Set: (CC-PVDZ AUX)
    Blend: CC-PVDZ-JKFIT + DEF2-UNIVERSAL-JKFIT
  Basis Set: CC-PVDZ
    Blend: CC-PVDZ
  @DF-UKS Final Energy:  -412.67496118692179
    Total Energy =                       -412.6749611869217915
  @DF-UKS Final Energy:  -412.75005338822240
    Total Energy =                       -412.7500533882223408
  @DF-UKS Final Energy:  -412.78452214680419
    Total Energy =                       -412.7845221468041927
  @DF-UKS Final Energy:  -412.79999472942126
    Total Energy =                       -412.7999947294212575
  @DF-UKS Final Energy:  -412.80599291156534
    Total Energy =                       -412.8059929115653404
  @DF-UKS Final Energy:  -412.80750667415793
    Total Energy =                       -412.8075066741579349
  @DF-UKS Final Energy:  -412.80806516519391
    Total Energy =                       -412.8080651651939661
  @DF-UKS Final Energy:  -412.80816782016774
    Total Energy =                       -412.8081678201677960
  @DF-UKS Final Energy:  -412.80818852100839
    Total Energy =                       -412.8081885210083897
  Basis Set: (CC-PVDZ AUX)
    Blend: CC-PVDZ-JKFIT + DEF2-UNIVERSAL-JKFIT
  Basis Set: CC-PVDZ
    Blend: CC-PVDZ
  Basis Set: (CC-PVDZ AUX)
    Blend: CC-PVDZ-JKFIT + DEF2-UNIVERSAL-JKFIT
  @DF-UKS Final Energy:  -412.80819359970189
    Total Energy =                       -412.8081935997018945
  Basis Set: CC-PVDZ
    Blend: CC-PVDZ
  Basis Set: (CC-PVDZ AUX)
    Blend: CC-PVDZ-JKFIT + DEF2-UNIVERSAL-JKFIT
  Charge       = -1
  Multiplicity = 4
  Basis Set: CC-PVDZ
    Blend: CC-PVDZ
  Basis Set: (CC-PVDZ AUX)
    Blend: CC-PVDZ-JKFIT + DEF2-UNIVERSAL-JKFIT

    Orbital Energies [Eh]
    ---------------------

    Alpha Occupied:

       1A1   -88.659239     2A1    -7.718854     3A1    -5.692120
       1B1    -5.674495     1B2    -5.673487     4A1    -3.886215
       5A1    -0.466329     6A1    -0.153337     2B2    -0.053259
       2B1    -0.051837     7A1    -0.014938     3B2     0.089774

    Alpha Virtual:

       3B1     0.147583     8A1     0.226979     4B2     0.353462
       9A1     0.356547    10A1     0.366935     4B1     0.370243
      11A1     0.587759     5B2     0.606743     5B1     0.610244
       1A2     0.647380    12A1     0.653726     6B1     0.731438
       6B2     0.734463    13A1     0.824026     2A2     0.851400
      14A1     0.852018    15A1     0.924262     7B2     0.985838
       7B1     0.987652    16A1     1.218025

    Beta Occupied:

       1A1   -88.654306     2A1    -7.713698     3A1    -5.677032
       1B1    -5.671659     1B2    -5.669106     4A1    -3.870075
       5A1    -0.419077     2B1    -0.039346     2B2    -0.030519

    Beta Virtual:

       6A1    -0.015779     7A1     0.127789     3B1     0.186310
       3B2     0.208396     8A1     0.258112     4B1     0.392605
       9A1     0.404984     4B2     0.415260    10A1     0.427575
      11A1     0.642421     5B1     0.669064     5B2     0.687070
       1A2     0.717602    12A1     0.718131     6B1     0.737751
       6B2     0.744880    13A1     0.866902     2A2     0.867390
      14A1     0.868800    15A1     0.981566     7B1     1.033851
       7B2     1.047932    16A1     1.258911

    Final Occupation by Irrep:
             A1    A2    B1    B2
    DOCC [     5,    0,    2,    2 ]
    SOCC [     2,    0,    0,    1 ]
    NA   [     7,    0,    2,    3 ]
    NB   [     5,    0,    2,    2 ]

  @DF-UKS Final Energy:  -412.80819405774514

   => Energetics <=

    Nuclear Repulsion Energy =             15.5386174310072711
    One-Electron Energy =                -604.5276273934564415
    Two-Electron Energy =                 199.2973819036273255
    DFT Exchange-Correlation Energy =     -23.1165659989232850
    Empirical Dispersion Energy =           0.0000000000000000
    VV10 Nonlocal Energy =                  0.0000000000000000
    Total Energy =                       -412.8081940577451405

  UHF NO Occupations:
  HONO-2 :    3 B2 1.0000000
  HONO-1 :    6 A1 1.0000000
  HONO-0 :    7 A1 1.0000000
  LUNO+0 :    8 A1 0.0011797
  LUNO+1 :    3 B1 0.0006438
  LUNO+2 :    4 B2 0.0005903
  LUNO+3 :    9 A1 0.0000003

Computation Completed

Properties will be evaluated at   0.000000,   0.000000,   0.000000 [a0]

Properties computed using the SCF density matrix

 Multipole Moments:

 ------------------------------------------------------------------------------------
     Multipole            Electronic (a.u.)      Nuclear  (a.u.)        Total (a.u.)
 ------------------------------------------------------------------------------------

 L = 1.  Multiply by 2.5417464519 to convert [e a0] to [Debye]
 Dipole X            :          0.0000000            0.0000000            0.0000000
 Dipole Y            :          0.0000000            0.0000000            0.0000000
 Dipole Z            :         -0.2060562           -1.6387593           -1.8448155
 Magnitude           :                                                    1.8448155

 ------------------------------------------------------------------------------------

*** tstop() called on Joses-MacBook-Pro-2.local at Thu Jul 17 09:46:28 2025
Module time:
	user time   =       4.72 seconds =       0.08 minutes
	system time =       4.60 seconds =       0.08 minutes
	total time  =          1 seconds =       0.02 minutes
Total time:
	user time   =      90.08 seconds =       1.50 minutes
	system time =      74.79 seconds =       1.25 minutes
	total time  =         17 seconds =       0.28 minutes

*** tstart() called on Joses-MacBook-Pro-2.local
*** at Thu Jul 17 09:46:28 2025

         ------------------------------------------------------------
                                   SCF GRAD
                          Rob Parrish, Justin Turney,
                       Andy Simmonett, and Alex Sokolov
         ------------------------------------------------------------

  ==> Geometry <==

    Molecular point group: c2v
    Full point group: C_inf_v

    Geometry (in Angstrom), charge = -1, multiplicity = 4:

       Center              X                  Y                   Z               Mass
    ------------   -----------------  -----------------  -----------------  -----------------
         BE           0.000000000000     0.000000000000     1.700287909556     9.012183065000
         S            0.000000000000     0.000000000000    -0.479271606163    31.972071174400

  Nuclear repulsion =   15.538617431007271

  ==> Basis Set <==

  Basis Set: CC-PVDZ
    Blend: CC-PVDZ
    Number of shells: 14
    Number of basis functions: 32
    Number of Cartesian functions: 34
    Spherical Harmonics?: true
    Max angular momentum: 2

  ==> DFJKGrad: Density-Fitted SCF Gradients <==

    Gradient:                    1
    J tasked:                  Yes
    K tasked:                  Yes
    wK tasked:                  No
    OpenMP threads:              1
    Integrals threads:           1
    Memory [MiB]:              375
    Schwarz Cutoff:          1E-12
    Fitting Condition:       1E-10

   => Auxiliary Basis Set <=

  Basis Set: (CC-PVDZ AUX)
    Blend: CC-PVDZ-JKFIT + DEF2-UNIVERSAL-JKFIT
    Number of shells: 53
    Number of basis functions: 163
    Number of Cartesian functions: 190
    Spherical Harmonics?: true
    Max angular momentum: 3

  ==> DFT Potential <==

   => LibXC <=

    Version 6.2.2
    S. Lehtola, C. Steigemann, M. J.T. Oliveira, and M. A.L. Marques.,  SoftwareX 7, 1â€“5 (2018) (10.1016/j.softx.2017.11.002)

   => Composite Functional: B3LYP <=

    B3LYP Hyb-GGA Exchange-Correlation Functional

    P. J. Stephens, F. J. Devlin, C. F. Chabalowski, and M. J. Frisch.,  J. Phys. Chem. 98, 11623 (1994) (10.1021/j100096a001)

    Deriv               =              1
    GGA                 =           TRUE
    Meta                =          FALSE

    Exchange Hybrid     =           TRUE
    MP2 Hybrid          =          FALSE

   => Exchange Functionals <=

    0.0800   Slater exchange
    0.7200         Becke 88

   => Exact (HF) Exchange <=

    0.2000               HF

   => Correlation Functionals <=

    0.1900   Vosko, Wilk & Nusair (VWN5_RPA)
    0.8100   Lee, Yang & Parr

   => LibXC Density Thresholds  <==

    XC_HYB_GGA_XC_B3LYP:  1.00E-15

   => Molecular Quadrature <=

    Radial Scheme          =       TREUTLER
    Pruning Scheme         =           NONE
    Nuclear Scheme         =       TREUTLER

    Blocking Scheme        =         OCTREE
    BS radius alpha        =              1
    Pruning alpha          =              1
    Radial Points          =             75
    Spherical Points       =            302
    Total Points           =          42774
    Total Blocks           =            396
    Max Points             =            255
    Max Functions          =             32
    Weights Tolerance      =       1.00E-15

  -Total Gradient:
     Atom            X                  Y                   Z
    ------   -----------------  -----------------  -----------------
       1       -0.000000000000    -0.000000000000    -0.000031235333
       2        0.000000000000     0.000000000000     0.000044448859

*** tstop() called on Joses-MacBook-Pro-2.local at Thu Jul 17 09:46:28 2025
Module time:
	user time   =       1.48 seconds =       0.02 minutes
	system time =       1.68 seconds =       0.03 minutes
	total time  =          0 seconds =       0.00 minutes
Total time:
	user time   =      91.56 seconds =       1.53 minutes
	system time =      76.47 seconds =       1.27 minutes
	total time  =         17 seconds =       0.28 minutes

    			-----------------------------------------

    			 OPTKING 3.0: for geometry optimizations

    			     By R.A. King, Bethel University

    			        with contributions from

    			    A.V. Copan, J. Cayton, A. Heide

    			-----------------------------------------

	                            ===> Fragment 1 <==

	 Z (Atomic Numbers)          Masses                          Geom
	       4.000000             9.012183          0.00000000  0.00000000  3.21307848
	      16.000000            31.972071          0.00000000  0.00000000 -0.90569208

	 - Coordinate -           - BOHR/RAD -       - ANG/DEG -
	 R(1,2)           =         4.118771           2.179560

	        --- Internal Coordinate Step in ANG or DEG, aJ/ANG or AJ/DEG ---
	-------------------------------------------------------------------------------
	           Coordinate      Previous         Force          Change          New
	           ----------      --------        ------          ------        ------
	               R(1,2)       2.17956        0.00031        0.00042       2.17998
	-------------------------------------------------------------------------------

	                                 ==> Convergence Check <==

	Measures of convergence in internal coordinates in au.

	Criteria marked as inactive (o), active & met (*), and active & unmet ( ).

	----------------------------------------------------------------------------------------------
	   Step    Total Energy     Delta E     Max Force     RMS Force      Max Disp      RMS Disp
	----------------------------------------------------------------------------------------------
	  Convergence Criteria     1.00e-06 *    3.00e-04 *             o    1.20e-03 *             o
	----------------------------------------------------------------------------------------------
	    13    -412.80819406   -4.58e-07 *    3.78e-05 *    3.78e-05 o    8.02e-04 *    8.02e-04 o  ~
	----------------------------------------------------------------------------------------------

Next Geometry in Ang
	Fragment 1 (Ang)

	   Be   0.0000000000   0.0000000000   1.7005000590
	    S   0.0000000000   0.0000000000  -0.4794837557

    Final optimized geometry and variables:
    Molecular point group: c2v
    Full point group: C_inf_v

    Geometry (in Angstrom), charge = -1, multiplicity = 4:

    BE           0.000000000000     0.000000000000     1.700287909556
    S            0.000000000000     0.000000000000    -0.479271606163

    Psi4 stopped on: Thursday, 17 July 2025 09:46AM
    Psi4 wall time for execution: 0:00:18.01

*** Psi4 exiting successfully. Buy a developer a beer!
