                               Psi4 1.9.1 release

  ==> Input File <==

--------------------------------------------------------------------------
molecule {
-1 4
Ar   0.00000        0.60000        0.00000
Ar   0.00000       -0.60000        0.00000
}

set {
basis              cc-pvdz
reference          uks
maxiter            500
geom_maxiter       500
DAMPING_PERCENTAGE 1
guess              SAP
}

optimize('b3lyp')
--------------------------------------------------------------------------

    Molecular point group: d2h
  Charge       = -1
  Multiplicity = 4
  Basis Set: CC-PVDZ
    Blend: CC-PVDZ
  Basis Set: (CC-PVDZ AUX)
    Blend: CC-PVDZ-JKFIT
  @DF-UKS Final Energy: -1052.47569668452343
    Total Energy =                      -1052.4756966845234274
 Dipole X            :          0.0000000            0.0000000            0.0000000
 Dipole Y            :          0.0000000            0.0000000            0.0000000
 Dipole Z            :          0.0000000            0.0000000            0.0000000
 Magnitude           :                                                    0.0000000
    Molecular point group: d2h
  Basis Set: CC-PVDZ
    Blend: CC-PVDZ
  Basis Set: (CC-PVDZ AUX)
    Blend: CC-PVDZ-JKFIT
  Basis Set: CC-PVDZ
    Blend: CC-PVDZ
  Basis Set: (CC-PVDZ AUX)
    Blend: CC-PVDZ-JKFIT
  @DF-UKS Final Energy: -1052.51894881441171
    Total Energy =                      -1052.5189488144117149
  Basis Set: CC-PVDZ
    Blend: CC-PVDZ
  Basis Set: (CC-PVDZ AUX)
    Blend: CC-PVDZ-JKFIT
  Basis Set: CC-PVDZ
    Blend: CC-PVDZ
  @DF-UKS Final Energy: -1052.59761118937035
    Total Energy =                      -1052.5976111893703546
  @DF-UKS Final Energy: -1052.84144774775996
    Total Energy =                      -1052.8414477477599576
  @DF-UKS Final Energy: -1053.24530130039534
    Total Energy =                      -1053.2453013003953401
  @DF-UKS Final Energy: -1053.37373601970035
    Total Energy =                      -1053.3737360197003454
  @DF-UKS Final Energy: -1053.43769357515566
    Total Energy =                      -1053.4376935751556630
  @DF-UKS Final Energy: -1053.54169661343167
    Total Energy =                      -1053.5416966134316681
  @DF-UKS Final Energy: -1053.59320798790463
    Total Energy =                      -1053.5932079879046341
  @DF-UKS Final Energy: -1053.59324746778634
    Total Energy =                      -1053.5932474677863411
  Basis Set: (CC-PVDZ AUX)
    Blend: CC-PVDZ-JKFIT
  Basis Set: CC-PVDZ
    Blend: CC-PVDZ
  Basis Set: (CC-PVDZ AUX)
    Blend: CC-PVDZ-JKFIT
  @DF-UKS Final Energy: -1053.59325231264506
    Total Energy =                      -1053.5932523126450633
  Basis Set: CC-PVDZ
    Blend: CC-PVDZ
  Basis Set: (CC-PVDZ AUX)
    Blend: CC-PVDZ-JKFIT
  Charge       = -1
  Multiplicity = 4
  Basis Set: CC-PVDZ
    Blend: CC-PVDZ
  Basis Set: (CC-PVDZ AUX)
    Blend: CC-PVDZ-JKFIT

    Orbital Energies [Eh]
    ---------------------

    Alpha Occupied:

       1B2u -114.811992     1Ag  -114.811991     2B2u  -10.856186
       2Ag   -10.856093     3Ag    -8.413855     3B2u   -8.413700
       1B3g   -8.403690     1B1g   -8.403690     1B1u   -8.403690
       1B3u   -8.403690     4Ag    -0.834673     4B2u   -0.664532
       5Ag    -0.318735     2B3u   -0.237908     2B1u   -0.237908
       2B1g   -0.132164     2B3g   -0.132164     5B2u   -0.007928
       6Ag     0.664995     6B2u    0.680469

    Alpha Virtual:

       3B3u    0.777223     3B1u    0.777223     3B1g    0.845107
       3B3g    0.845107     7Ag     0.908497     4B3u    0.952528
       4B1u    0.952528     8Ag     1.056148     1B2g    1.056149
       7B2u    1.097654     8B2u    1.103213     1Au     1.103214
       9Ag     1.129239     4B1g    1.287310     4B3g    1.287310
       9B2u    1.798310

    Beta Occupied:

       1Ag  -114.801648     1B2u -114.801648     2B2u  -10.845745
       2Ag   -10.845688     1B1u   -8.397199     1B3u   -8.397199
       1B3g   -8.397193     1B1g   -8.397193     3Ag    -8.383426
       3B2u   -8.383308     4Ag    -0.777728     4B2u   -0.613943
       5Ag    -0.223974     2B3u   -0.213899     2B1u   -0.213899
       2B1g   -0.108514     2B3g   -0.108514

    Beta Virtual:

       5B2u    0.154270     3B3u    0.796132     3B1u    0.796132
       6Ag     0.814561     6B2u    0.823421     3B1g    0.868428
       3B3g    0.868428     7Ag     0.969945     4B3u    0.993200
       4B1u    0.993200     8Ag     1.074248     1B2g    1.074249
       7B2u    1.121469     1Au     1.121470     8B2u    1.160552
       9Ag     1.182776     4B1g    1.329785     4B3g    1.329785
       9B2u    1.853794

    Final Occupation by Irrep:
             Ag   B1g   B2g   B3g    Au   B1u   B2u   B3u
    DOCC [     5,    2,    0,    2,    0,    2,    4,    2 ]
    SOCC [     1,    0,    0,    0,    0,    0,    2,    0 ]
    NA   [     6,    2,    0,    2,    0,    2,    6,    2 ]
    NB   [     5,    2,    0,    2,    0,    2,    4,    2 ]

  @DF-UKS Final Energy: -1053.59325289453022

   => Energetics <=

    Nuclear Repulsion Energy =             90.6827911358858501
    One-Electron Energy =               -1646.0291261361785473
    Two-Electron Energy =                 551.9277184203779143
    DFT Exchange-Correlation Energy =     -50.1746363146154692
    Empirical Dispersion Energy =           0.0000000000000000
    VV10 Nonlocal Energy =                  0.0000000000000000
    Total Energy =                      -1053.5932528945302238

  UHF NO Occupations:
  HONO-2 :    5B2u 1.0000000
  HONO-1 :    6 Ag 1.0000000
  HONO-0 :    6B2u 1.0000000
  LUNO+0 :    7 Ag 0.0003591
  LUNO+1 :    7B2u 0.0002725
  LUNO+2 :    8 Ag 0.0000951
  LUNO+3 :    3B3g 0.0000461

Computation Completed

Properties will be evaluated at   0.000000,   0.000000,   0.000000 [a0]

Properties computed using the SCF density matrix

 Multipole Moments:

 ------------------------------------------------------------------------------------
     Multipole            Electronic (a.u.)      Nuclear  (a.u.)        Total (a.u.)
 ------------------------------------------------------------------------------------

 L = 1.  Multiply by 2.5417464519 to convert [e a0] to [Debye]
 Dipole X            :          0.0000000            0.0000000            0.0000000
 Dipole Y            :          0.0000000            0.0000000            0.0000000
 Dipole Z            :          0.0000000            0.0000000            0.0000000
 Magnitude           :                                                    0.0000000

 ------------------------------------------------------------------------------------

*** tstop() called on Joses-MacBook-Pro-2.local at Thu Jul 17 12:12:44 2025
Module time:
	user time   =       5.61 seconds =       0.09 minutes
	system time =       1.94 seconds =       0.03 minutes
	total time  =          1 seconds =       0.02 minutes
Total time:
	user time   =     128.03 seconds =       2.13 minutes
	system time =      34.16 seconds =       0.57 minutes
	total time  =         15 seconds =       0.25 minutes

*** tstart() called on Joses-MacBook-Pro-2.local
*** at Thu Jul 17 12:12:44 2025

         ------------------------------------------------------------
                                   SCF GRAD
                          Rob Parrish, Justin Turney,
                       Andy Simmonett, and Alex Sokolov
         ------------------------------------------------------------

  ==> Geometry <==

    Molecular point group: d2h
    Full point group: D_inf_h

    Geometry (in Angstrom), charge = -1, multiplicity = 4:

       Center              X                  Y                   Z               Mass
    ------------   -----------------  -----------------  -----------------  -----------------
         AR          -0.000000000000     0.945347039441     0.000000000000    39.962383123700
         AR           0.000000000000    -0.945347039441     0.000000000000    39.962383123700

  Nuclear repulsion =   90.682791135885850

  ==> Basis Set <==

  Basis Set: CC-PVDZ
    Blend: CC-PVDZ
    Number of shells: 16
    Number of basis functions: 36
    Number of Cartesian functions: 38
    Spherical Harmonics?: true
    Max angular momentum: 2

  ==> DFJKGrad: Density-Fitted SCF Gradients <==

    Gradient:                    1
    J tasked:                  Yes
    K tasked:                  Yes
    wK tasked:                  No
    OpenMP threads:              1
    Integrals threads:           1
    Memory [MiB]:              375
    Schwarz Cutoff:          1E-12
    Fitting Condition:       1E-10

   => Auxiliary Basis Set <=

  Basis Set: (CC-PVDZ AUX)
    Blend: CC-PVDZ-JKFIT
    Number of shells: 72
    Number of basis functions: 224
    Number of Cartesian functions: 260
    Spherical Harmonics?: true
    Max angular momentum: 3

  ==> DFT Potential <==

   => LibXC <=

    Version 6.2.2
    S. Lehtola, C. Steigemann, M. J.T. Oliveira, and M. A.L. Marques.,  SoftwareX 7, 1â€“5 (2018) (10.1016/j.softx.2017.11.002)

   => Composite Functional: B3LYP <=

    B3LYP Hyb-GGA Exchange-Correlation Functional

    P. J. Stephens, F. J. Devlin, C. F. Chabalowski, and M. J. Frisch.,  J. Phys. Chem. 98, 11623 (1994) (10.1021/j100096a001)

    Deriv               =              1
    GGA                 =           TRUE
    Meta                =          FALSE

    Exchange Hybrid     =           TRUE
    MP2 Hybrid          =          FALSE

   => Exchange Functionals <=

    0.0800   Slater exchange
    0.7200         Becke 88

   => Exact (HF) Exchange <=

    0.2000               HF

   => Correlation Functionals <=

    0.1900   Vosko, Wilk & Nusair (VWN5_RPA)
    0.8100   Lee, Yang & Parr

   => LibXC Density Thresholds  <==

    XC_HYB_GGA_XC_B3LYP:  1.00E-15

   => Molecular Quadrature <=

    Radial Scheme          =       TREUTLER
    Pruning Scheme         =           NONE
    Nuclear Scheme         =       TREUTLER

    Blocking Scheme        =         OCTREE
    BS radius alpha        =              1
    Pruning alpha          =              1
    Radial Points          =             75
    Spherical Points       =            302
    Total Points           =          39090
    Total Blocks           =            364
    Max Points             =            256
    Max Functions          =             36
    Weights Tolerance      =       1.00E-15

  -Total Gradient:
     Atom            X                  Y                   Z
    ------   -----------------  -----------------  -----------------
       1       -0.000000000000     0.000288655993    -0.000000000000
       2        0.000000000000    -0.000288655993     0.000000000000

*** tstop() called on Joses-MacBook-Pro-2.local at Thu Jul 17 12:12:44 2025
Module time:
	user time   =       2.59 seconds =       0.04 minutes
	system time =       0.81 seconds =       0.01 minutes
	total time  =          0 seconds =       0.00 minutes
Total time:
	user time   =     130.62 seconds =       2.18 minutes
	system time =      34.97 seconds =       0.58 minutes
	total time  =         15 seconds =       0.25 minutes

    			-----------------------------------------

    			 OPTKING 3.0: for geometry optimizations

    			     By R.A. King, Bethel University

    			        with contributions from

    			    A.V. Copan, J. Cayton, A. Heide

    			-----------------------------------------

	                            ===> Fragment 1 <==

	 Z (Atomic Numbers)          Masses                          Geom
	      18.000000            39.962383         -0.00000000  1.78644700  0.00000000
	      18.000000            39.962383          0.00000000 -1.78644700  0.00000000

	 - Coordinate -           - BOHR/RAD -       - ANG/DEG -
	 R(1,2)           =         3.572894           1.890694

	        --- Internal Coordinate Step in ANG or DEG, aJ/ANG or AJ/DEG ---
	-------------------------------------------------------------------------------
	           Coordinate      Previous         Force          Change          New
	           ----------      --------        ------          ------        ------
	               R(1,2)       1.89069       -0.00238       -0.00019       1.89051
	-------------------------------------------------------------------------------

	                                 ==> Convergence Check <==

	Measures of convergence in internal coordinates in au.

	Criteria marked as inactive (o), active & met (*), and active & unmet ( ).

	----------------------------------------------------------------------------------------------
	   Step    Total Energy     Delta E     Max Force     RMS Force      Max Disp      RMS Disp
	----------------------------------------------------------------------------------------------
	  Convergence Criteria     1.00e-06 *    3.00e-04 *             o    1.20e-03 *             o
	----------------------------------------------------------------------------------------------
	    12   -1053.59325289   -5.82e-07 *    2.89e-04 *    2.89e-04 o    3.51e-04 *    3.51e-04 o  ~
	----------------------------------------------------------------------------------------------

Next Geometry in Ang
	Fragment 1 (Ang)

	   Ar  -0.0000000000   0.9452541522   0.0000000000
	   Ar   0.0000000000  -0.9452541522   0.0000000000

    Final optimized geometry and variables:
    Molecular point group: d2h
    Full point group: D_inf_h

    Geometry (in Angstrom), charge = -1, multiplicity = 4:

    AR          -0.000000000000     0.945347039441     0.000000000000
    AR           0.000000000000    -0.945347039441     0.000000000000

    Psi4 stopped on: Thursday, 17 July 2025 12:12PM
    Psi4 wall time for execution: 0:00:16.25

*** Psi4 exiting successfully. Buy a developer a beer!
