                               Psi4 1.9.1 release

  ==> Input File <==

--------------------------------------------------------------------------
molecule {
-1 4
C   0.00000        0.60000        0.00000
S   0.00000       -0.60000        0.00000
}

set {
basis              cc-pvdz
reference          uks
maxiter            500
geom_maxiter       500
DAMPING_PERCENTAGE 1
guess              SAP
}

optimize('b3lyp')
--------------------------------------------------------------------------

    Molecular point group: c2v
  Charge       = -1
  Multiplicity = 4
  Basis Set: CC-PVDZ
    Blend: CC-PVDZ
  Basis Set: (CC-PVDZ AUX)
    Blend: CC-PVDZ-JKFIT
  @DF-UKS Final Energy:  -435.77358728268621
    Total Energy =                       -435.7735872826862078
 Dipole X            :          0.0000000            0.0000000            0.0000000
 Dipole Y            :          0.0000000            0.0000000            0.0000000
 Dipole Z            :         -0.1191320           -0.0086419           -0.1277738
 Magnitude           :                                                    0.1277738
    Molecular point group: c2v
  Basis Set: CC-PVDZ
    Blend: CC-PVDZ
  Basis Set: (CC-PVDZ AUX)
    Blend: CC-PVDZ-JKFIT
  Basis Set: CC-PVDZ
    Blend: CC-PVDZ
  Basis Set: (CC-PVDZ AUX)
    Blend: CC-PVDZ-JKFIT
  @DF-UKS Final Energy:  -435.98293793131273
    Total Energy =                       -435.9829379313127333
  Basis Set: CC-PVDZ
    Blend: CC-PVDZ
  Basis Set: (CC-PVDZ AUX)
    Blend: CC-PVDZ-JKFIT
  Basis Set: CC-PVDZ
    Blend: CC-PVDZ
  @DF-UKS Final Energy:  -436.07161932754781
    Total Energy =                       -436.0716193275477508
  @DF-UKS Final Energy:  -436.10054283401212
    Total Energy =                       -436.1005428340121171
  @DF-UKS Final Energy:  -436.11617236025182
    Total Energy =                       -436.1161723602518236
  @DF-UKS Final Energy:  -436.12266372573117
    Total Energy =                       -436.1226637257311722
  @DF-UKS Final Energy:  -436.12425999330509
    Total Energy =                       -436.1242599933050315
  @DF-UKS Final Energy:  -436.12472625568984
    Total Energy =                       -436.1247262556897795
  @DF-UKS Final Energy:  -436.12490203747467
    Total Energy =                       -436.1249020374746692
  @DF-UKS Final Energy:  -436.12494733558947
    Total Energy =                       -436.1249473355894679
  Basis Set: (CC-PVDZ AUX)
    Blend: CC-PVDZ-JKFIT
  Basis Set: CC-PVDZ
    Blend: CC-PVDZ
  Basis Set: (CC-PVDZ AUX)
    Blend: CC-PVDZ-JKFIT
  @DF-UKS Final Energy:  -436.12495344639166
    Total Energy =                       -436.1249534463916575
  Basis Set: CC-PVDZ
    Blend: CC-PVDZ
  Basis Set: (CC-PVDZ AUX)
    Blend: CC-PVDZ-JKFIT
  Charge       = -1
  Multiplicity = 4
  Basis Set: CC-PVDZ
    Blend: CC-PVDZ
  Basis Set: (CC-PVDZ AUX)
    Blend: CC-PVDZ-JKFIT

    Orbital Energies [Eh]
    ---------------------

    Alpha Occupied:

       1A1   -88.610081     2A1    -9.972167     3A1    -7.667561
       4A1    -5.635520     1B1    -5.625278     1B2    -5.625278
       5A1    -0.485069     6A1    -0.271336     7A1    -0.082623
       2B1    -0.051714     2B2    -0.051714     3B2     0.086030
       3B1     0.086030

    Alpha Virtual:

       8A1     0.332868     9A1     0.655328    10A1     0.717817
       4B1     0.720614     4B2     0.720614    11A1     0.725032
       5B1     0.756249     5B2     0.756249    12A1     0.872464
       1A2     0.872464     6B2     0.876532     6B1     0.876532
      13A1     1.067337    14A1     1.261625     2A2     1.410299
      15A1     1.410301     7B2     1.612275     7B1     1.612275
      16A1     1.983596

    Beta Occupied:

       1A1   -88.606408     2A1    -9.937829     3A1    -7.663890
       4A1    -5.628799     1B1    -5.620215     1B2    -5.620215
       5A1    -0.440898     6A1    -0.171427     2B2    -0.003240
       2B1    -0.003240

    Beta Virtual:

       7A1     0.083988     3B2     0.236830     3B1     0.236830
       8A1     0.374305     9A1     0.696011    10A1     0.747996
       4B1     0.750028     4B2     0.750028    11A1     0.789551
       5B1     0.819568     5B2     0.819568    12A1     0.894443
       1A2     0.894444     6B2     0.915688     6B1     0.915688
      13A1     1.114771    14A1     1.299848     2A2     1.514792
      15A1     1.514793     7B2     1.697251     7B1     1.697251
      16A1     2.064525

    Final Occupation by Irrep:
             A1    A2    B1    B2
    DOCC [     6,    0,    2,    2 ]
    SOCC [     1,    0,    1,    1 ]
    NA   [     7,    0,    3,    3 ]
    NB   [     6,    0,    2,    2 ]

  @DF-UKS Final Energy:  -436.12495373523939

   => Energetics <=

    Nuclear Repulsion Energy =             29.2193789891528084
    One-Electron Energy =                -665.1251554411848019
    Two-Electron Energy =                 224.9844323666165451
    DFT Exchange-Correlation Energy =     -25.2036096498240134
    Empirical Dispersion Energy =           0.0000000000000000
    VV10 Nonlocal Energy =                  0.0000000000000000
    Total Energy =                       -436.1249537352394441

  UHF NO Occupations:
  HONO-2 :    3 B2 1.0000000
  HONO-1 :    7 A1 1.0000000
  HONO-0 :    3 B1 1.0000000
  LUNO+0 :    4 B1 0.0010731
  LUNO+1 :    4 B2 0.0010731
  LUNO+2 :    8 A1 0.0006609
  LUNO+3 :    9 A1 0.0002144

Computation Completed

Properties will be evaluated at   0.000000,   0.000000,   0.000000 [a0]

Properties computed using the SCF density matrix

 Multipole Moments:

 ------------------------------------------------------------------------------------
     Multipole            Electronic (a.u.)      Nuclear  (a.u.)        Total (a.u.)
 ------------------------------------------------------------------------------------

 L = 1.  Multiply by 2.5417464519 to convert [e a0] to [Debye]
 Dipole X            :          0.0000000            0.0000000            0.0000000
 Dipole Y            :          0.0000000            0.0000000            0.0000000
 Dipole Z            :         -0.4471579           -0.0125207           -0.4596786
 Magnitude           :                                                    0.4596786

 ------------------------------------------------------------------------------------

*** tstop() called on Joses-MacBook-Pro-2.local at Thu Jul 17 10:22:10 2025
Module time:
	user time   =       4.24 seconds =       0.07 minutes
	system time =       2.60 seconds =       0.04 minutes
	total time  =          1 seconds =       0.02 minutes
Total time:
	user time   =      82.57 seconds =       1.38 minutes
	system time =      45.51 seconds =       0.76 minutes
	total time  =         14 seconds =       0.23 minutes

*** tstart() called on Joses-MacBook-Pro-2.local
*** at Thu Jul 17 10:22:10 2025

         ------------------------------------------------------------
                                   SCF GRAD
                          Rob Parrish, Justin Turney,
                       Andy Simmonett, and Alex Sokolov
         ------------------------------------------------------------

  ==> Geometry <==

    Molecular point group: c2v
    Full point group: C_inf_v

    Geometry (in Angstrom), charge = -1, multiplicity = 4:

       Center              X                  Y                   Z               Mass
    ------------   -----------------  -----------------  -----------------  -----------------
         C            0.000000000000     0.000000000000     1.264140173670    12.000000000000
         S            0.000000000000     0.000000000000    -0.474466668152    31.972071174400

  Nuclear repulsion =   29.219378989152808

  ==> Basis Set <==

  Basis Set: CC-PVDZ
    Blend: CC-PVDZ
    Number of shells: 14
    Number of basis functions: 32
    Number of Cartesian functions: 34
    Spherical Harmonics?: true
    Max angular momentum: 2

  ==> DFJKGrad: Density-Fitted SCF Gradients <==

    Gradient:                    1
    J tasked:                  Yes
    K tasked:                  Yes
    wK tasked:                  No
    OpenMP threads:              1
    Integrals threads:           1
    Memory [MiB]:              375
    Schwarz Cutoff:          1E-12
    Fitting Condition:       1E-10

   => Auxiliary Basis Set <=

  Basis Set: (CC-PVDZ AUX)
    Blend: CC-PVDZ-JKFIT
    Number of shells: 60
    Number of basis functions: 182
    Number of Cartesian functions: 211
    Spherical Harmonics?: true
    Max angular momentum: 3

  ==> DFT Potential <==

   => LibXC <=

    Version 6.2.2
    S. Lehtola, C. Steigemann, M. J.T. Oliveira, and M. A.L. Marques.,  SoftwareX 7, 1â€“5 (2018) (10.1016/j.softx.2017.11.002)

   => Composite Functional: B3LYP <=

    B3LYP Hyb-GGA Exchange-Correlation Functional

    P. J. Stephens, F. J. Devlin, C. F. Chabalowski, and M. J. Frisch.,  J. Phys. Chem. 98, 11623 (1994) (10.1021/j100096a001)

    Deriv               =              1
    GGA                 =           TRUE
    Meta                =          FALSE

    Exchange Hybrid     =           TRUE
    MP2 Hybrid          =          FALSE

   => Exchange Functionals <=

    0.0800   Slater exchange
    0.7200         Becke 88

   => Exact (HF) Exchange <=

    0.2000               HF

   => Correlation Functionals <=

    0.1900   Vosko, Wilk & Nusair (VWN5_RPA)
    0.8100   Lee, Yang & Parr

   => LibXC Density Thresholds  <==

    XC_HYB_GGA_XC_B3LYP:  1.00E-15

   => Molecular Quadrature <=

    Radial Scheme          =       TREUTLER
    Pruning Scheme         =           NONE
    Nuclear Scheme         =       TREUTLER

    Blocking Scheme        =         OCTREE
    BS radius alpha        =              1
    Pruning alpha          =              1
    Radial Points          =             75
    Spherical Points       =            302
    Total Points           =          41373
    Total Blocks           =            367
    Max Points             =            255
    Max Functions          =             32
    Weights Tolerance      =       1.00E-15

  -Total Gradient:
     Atom            X                  Y                   Z
    ------   -----------------  -----------------  -----------------
       1       -0.000000000000    -0.000000000000    -0.000050588261
       2       -0.000000000000     0.000000000000     0.000038532122

*** tstop() called on Joses-MacBook-Pro-2.local at Thu Jul 17 10:22:10 2025
Module time:
	user time   =       1.13 seconds =       0.02 minutes
	system time =       1.26 seconds =       0.02 minutes
	total time  =          0 seconds =       0.00 minutes
Total time:
	user time   =      83.70 seconds =       1.40 minutes
	system time =      46.77 seconds =       0.78 minutes
	total time  =         14 seconds =       0.23 minutes

    			-----------------------------------------

    			 OPTKING 3.0: for geometry optimizations

    			     By R.A. King, Bethel University

    			        with contributions from

    			    A.V. Copan, J. Cayton, A. Heide

    			-----------------------------------------

	                            ===> Fragment 1 <==

	 Z (Atomic Numbers)          Masses                          Geom
	       6.000000            12.000000          0.00000000  0.00000000  2.38887871
	      16.000000            31.972071          0.00000000  0.00000000 -0.89661206

	 - Coordinate -           - BOHR/RAD -       - ANG/DEG -
	 R(1,2)           =         3.285491           1.738607

	        --- Internal Coordinate Step in ANG or DEG, aJ/ANG or AJ/DEG ---
	-------------------------------------------------------------------------------
	           Coordinate      Previous         Force          Change          New
	           ----------      --------        ------          ------        ------
	               R(1,2)       1.73861        0.00037        0.00011       1.73872
	-------------------------------------------------------------------------------

	                                 ==> Convergence Check <==

	Measures of convergence in internal coordinates in au.

	Criteria marked as inactive (o), active & met (*), and active & unmet ( ).

	----------------------------------------------------------------------------------------------
	   Step    Total Energy     Delta E     Max Force     RMS Force      Max Disp      RMS Disp
	----------------------------------------------------------------------------------------------
	  Convergence Criteria     1.00e-06 *    3.00e-04 *             o    1.20e-03 *             o
	----------------------------------------------------------------------------------------------
	    12    -436.12495374   -2.89e-07 *    4.46e-05 *    4.46e-05 o    2.10e-04 *    2.10e-04 o  ~
	----------------------------------------------------------------------------------------------

Next Geometry in Ang
	Fragment 1 (Ang)

	    C   0.0000000000   0.0000000000   1.2641958570
	    S   0.0000000000   0.0000000000  -0.4745223515

    Final optimized geometry and variables:
    Molecular point group: c2v
    Full point group: C_inf_v

    Geometry (in Angstrom), charge = -1, multiplicity = 4:

    C            0.000000000000     0.000000000000     1.264140173670
    S            0.000000000000     0.000000000000    -0.474466668152

    Psi4 stopped on: Thursday, 17 July 2025 10:22AM
    Psi4 wall time for execution: 0:00:14.93

*** Psi4 exiting successfully. Buy a developer a beer!
