                               Psi4 1.9.1 release

  ==> Input File <==

--------------------------------------------------------------------------
molecule {
-1 4
B   0.00000        0.60000        0.00000
Na   0.00000       -0.60000        0.00000
}

set {
basis              cc-pvdz
reference          uks
maxiter            500
geom_maxiter       500
DAMPING_PERCENTAGE 1
guess              SAP
}

optimize('b3lyp')
--------------------------------------------------------------------------

    Molecular point group: c2v
  Charge       = -1
  Multiplicity = 4
  Basis Set: CC-PVDZ
    Blend: CC-PVDZ
  Basis Set: (CC-PVDZ AUX)
    Blend: CC-PVDZ-JKFIT + DEF2-UNIVERSAL-JKFIT
  @DF-UKS Final Energy:  -186.61923037618337
    Total Energy =                       -186.6192303761833671
 Dipole X            :          0.0000000            0.0000000            0.0000000
 Dipole Y            :          0.0000000            0.0000000            0.0000000
 Dipole Z            :          1.3009147           -0.4104272            0.8904875
 Magnitude           :                                                    0.8904875
    Molecular point group: c2v
  Basis Set: CC-PVDZ
    Blend: CC-PVDZ
  Basis Set: (CC-PVDZ AUX)
    Blend: CC-PVDZ-JKFIT + DEF2-UNIVERSAL-JKFIT
  Basis Set: CC-PVDZ
    Blend: CC-PVDZ
  Basis Set: (CC-PVDZ AUX)
    Blend: CC-PVDZ-JKFIT + DEF2-UNIVERSAL-JKFIT
  @DF-UKS Final Energy:  -186.69790648460892
    Total Energy =                       -186.6979064846089216
  Basis Set: CC-PVDZ
    Blend: CC-PVDZ
  Basis Set: (CC-PVDZ AUX)
    Blend: CC-PVDZ-JKFIT + DEF2-UNIVERSAL-JKFIT
  Basis Set: CC-PVDZ
    Blend: CC-PVDZ
  @DF-UKS Final Energy:  -186.78843197126298
    Total Energy =                       -186.7884319712630088
  @DF-UKS Final Energy:  -186.89396425240005
    Total Energy =                       -186.8939642524000533
  @DF-UKS Final Energy:  -186.95450923815824
    Total Energy =                       -186.9545092381582378
  @DF-UKS Final Energy:  -186.98094968358342
    Total Energy =                       -186.9809496835834182
  @DF-UKS Final Energy:  -186.99137115309389
    Total Energy =                       -186.9913711530938656
  @DF-UKS Final Energy:  -186.99502959738305
    Total Energy =                       -186.9950295973830521
  @DF-UKS Final Energy:  -186.99602672905093
    Total Energy =                       -186.9960267290508966
  @DF-UKS Final Energy:  -186.99616608000827
    Total Energy =                       -186.9961660800082370
  @DF-UKS Final Energy:  -186.99618742510631
    Total Energy =                       -186.9961874251062852
  Basis Set: (CC-PVDZ AUX)
    Blend: CC-PVDZ-JKFIT + DEF2-UNIVERSAL-JKFIT
  Basis Set: CC-PVDZ
    Blend: CC-PVDZ
  Basis Set: (CC-PVDZ AUX)
    Blend: CC-PVDZ-JKFIT + DEF2-UNIVERSAL-JKFIT
  @DF-UKS Final Energy:  -186.99619129629150
    Total Energy =                       -186.9961912962914994
  Basis Set: CC-PVDZ
    Blend: CC-PVDZ
  Basis Set: (CC-PVDZ AUX)
    Blend: CC-PVDZ-JKFIT + DEF2-UNIVERSAL-JKFIT
  Charge       = -1
  Multiplicity = 4
  Basis Set: CC-PVDZ
    Blend: CC-PVDZ
  Basis Set: (CC-PVDZ AUX)
    Blend: CC-PVDZ-JKFIT + DEF2-UNIVERSAL-JKFIT

    Orbital Energies [Eh]
    ---------------------

    Alpha Occupied:

       1A1   -38.311789     2A1    -6.606390     3A1    -2.059317
       1B1    -0.990475     1B2    -0.990475     4A1    -0.990266
       5A1    -0.194022     6A1     0.013877     2B1     0.028027
       2B2     0.028027

    Alpha Virtual:

       7A1     0.088024     3B1     0.110480     3B2     0.110480
       8A1     0.127549     9A1     0.174375     4B1     0.207365
       4B2     0.207365    10A1     0.274108    11A1     0.306148
       1A2     0.306148     5B1     0.346455     5B2     0.346455
      12A1     0.424297     6B2     0.507068     6B1     0.507068
      13A1     0.564086    14A1     0.799122     2A2     0.904349
      15A1     0.904352     7B1     0.977943     7B2     0.977943
      16A1     1.089791

    Beta Occupied:

       1A1   -38.310559     2A1    -6.593378     3A1    -2.056972
       4A1    -0.988979     1B1    -0.988602     1B2    -0.988602
       5A1    -0.124693

    Beta Virtual:

       6A1     0.076454     2B1     0.105984     2B2     0.105984
       7A1     0.122537     8A1     0.139321     3B1     0.162484
       3B2     0.162484     9A1     0.195082     4B1     0.231756
       4B2     0.231756    10A1     0.298675    11A1     0.331146
       1A2     0.331147     5B1     0.377006     5B2     0.377006
      12A1     0.449104     6B2     0.553549     6B1     0.553549
      13A1     0.584750    14A1     0.834263     2A2     0.975108
      15A1     0.975115     7B1     1.024589     7B2     1.024589
      16A1     1.125932

    Final Occupation by Irrep:
             A1    A2    B1    B2
    DOCC [     5,    0,    1,    1 ]
    SOCC [     1,    0,    1,    1 ]
    NA   [     6,    0,    2,    2 ]
    NB   [     5,    0,    1,    1 ]

  @DF-UKS Final Energy:  -186.99619150006600

   => Energetics <=

    Nuclear Repulsion Energy =             11.7985173487855715
    One-Electron Energy =                -286.7600468613494513
    Two-Electron Energy =                 102.9054059066534563
    DFT Exchange-Correlation Energy =     -14.9400678941555967
    Empirical Dispersion Energy =           0.0000000000000000
    VV10 Nonlocal Energy =                  0.0000000000000000
    Total Energy =                       -186.9961915000659758

  UHF NO Occupations:
  HONO-2 :    6 A1 1.0000000
  HONO-1 :    2 B1 1.0000000
  HONO-0 :    2 B2 1.0000000
  LUNO+0 :    7 A1 0.0024551
  LUNO+1 :    8 A1 0.0000005
  LUNO+2 :    3 B1 0.0000002
  LUNO+3 :    3 B2 0.0000002

Computation Completed

Properties will be evaluated at   0.000000,   0.000000,   0.000000 [a0]

Properties computed using the SCF density matrix

 Multipole Moments:

 ------------------------------------------------------------------------------------
     Multipole            Electronic (a.u.)      Nuclear  (a.u.)        Total (a.u.)
 ------------------------------------------------------------------------------------

 L = 1.  Multiply by 2.5417464519 to convert [e a0] to [Debye]
 Dipole X            :          0.0000000            0.0000000            0.0000000
 Dipole Y            :          0.0000000            0.0000000            0.0000000
 Dipole Z            :          0.3954341           -0.8437062           -0.4482722
 Magnitude           :                                                    0.4482722

 ------------------------------------------------------------------------------------

*** tstop() called on Joses-MacBook-Pro-2.local at Thu Jul 17 09:52:10 2025
Module time:
	user time   =       3.32 seconds =       0.06 minutes
	system time =       4.94 seconds =       0.08 minutes
	total time  =          1 seconds =       0.02 minutes
Total time:
	user time   =      75.03 seconds =       1.25 minutes
	system time =      97.05 seconds =       1.62 minutes
	total time  =         18 seconds =       0.30 minutes

*** tstart() called on Joses-MacBook-Pro-2.local
*** at Thu Jul 17 09:52:10 2025

         ------------------------------------------------------------
                                   SCF GRAD
                          Rob Parrish, Justin Turney,
                       Andy Simmonett, and Alex Sokolov
         ------------------------------------------------------------

  ==> Geometry <==

    Molecular point group: c2v
    Full point group: C_inf_v

    Geometry (in Angstrom), charge = -1, multiplicity = 4:

       Center              X                  Y                   Z               Mass
    ------------   -----------------  -----------------  -----------------  -----------------
         B            0.000000000000     0.000000000000     1.668030174444    11.009305360000
         NA           0.000000000000     0.000000000000    -0.798783724834    22.989769282000

  Nuclear repulsion =   11.798517348785571

  ==> Basis Set <==

  Basis Set: CC-PVDZ
    Blend: CC-PVDZ
    Number of shells: 14
    Number of basis functions: 32
    Number of Cartesian functions: 34
    Spherical Harmonics?: true
    Max angular momentum: 2

  ==> DFJKGrad: Density-Fitted SCF Gradients <==

    Gradient:                    1
    J tasked:                  Yes
    K tasked:                  Yes
    wK tasked:                  No
    OpenMP threads:              1
    Integrals threads:           1
    Memory [MiB]:              375
    Schwarz Cutoff:          1E-12
    Fitting Condition:       1E-10

   => Auxiliary Basis Set <=

  Basis Set: (CC-PVDZ AUX)
    Blend: CC-PVDZ-JKFIT + DEF2-UNIVERSAL-JKFIT
    Number of shells: 58
    Number of basis functions: 182
    Number of Cartesian functions: 218
    Spherical Harmonics?: true
    Max angular momentum: 4

  ==> DFT Potential <==

   => LibXC <=

    Version 6.2.2
    S. Lehtola, C. Steigemann, M. J.T. Oliveira, and M. A.L. Marques.,  SoftwareX 7, 1â€“5 (2018) (10.1016/j.softx.2017.11.002)

   => Composite Functional: B3LYP <=

    B3LYP Hyb-GGA Exchange-Correlation Functional

    P. J. Stephens, F. J. Devlin, C. F. Chabalowski, and M. J. Frisch.,  J. Phys. Chem. 98, 11623 (1994) (10.1021/j100096a001)

    Deriv               =              1
    GGA                 =           TRUE
    Meta                =          FALSE

    Exchange Hybrid     =           TRUE
    MP2 Hybrid          =          FALSE

   => Exchange Functionals <=

    0.0800   Slater exchange
    0.7200         Becke 88

   => Exact (HF) Exchange <=

    0.2000               HF

   => Correlation Functionals <=

    0.1900   Vosko, Wilk & Nusair (VWN5_RPA)
    0.8100   Lee, Yang & Parr

   => LibXC Density Thresholds  <==

    XC_HYB_GGA_XC_B3LYP:  1.00E-15

   => Molecular Quadrature <=

    Radial Scheme          =       TREUTLER
    Pruning Scheme         =           NONE
    Nuclear Scheme         =       TREUTLER

    Blocking Scheme        =         OCTREE
    BS radius alpha        =              1
    Pruning alpha          =              1
    Radial Points          =             75
    Spherical Points       =            302
    Total Points           =          43843
    Total Blocks           =            436
    Max Points             =            254
    Max Functions          =             32
    Weights Tolerance      =       1.00E-15

  -Total Gradient:
     Atom            X                  Y                   Z
    ------   -----------------  -----------------  -----------------
       1       -0.000000000000    -0.000000000000    -0.000031190314
       2        0.000000000000     0.000000000000     0.000021741742

*** tstop() called on Joses-MacBook-Pro-2.local at Thu Jul 17 09:52:10 2025
Module time:
	user time   =       1.03 seconds =       0.02 minutes
	system time =       2.11 seconds =       0.04 minutes
	total time  =          0 seconds =       0.00 minutes
Total time:
	user time   =      76.06 seconds =       1.27 minutes
	system time =      99.17 seconds =       1.65 minutes
	total time  =         18 seconds =       0.30 minutes

    			-----------------------------------------

    			 OPTKING 3.0: for geometry optimizations

    			     By R.A. King, Bethel University

    			        with contributions from

    			    A.V. Copan, J. Cayton, A. Heide

    			-----------------------------------------

	                            ===> Fragment 1 <==

	 Z (Atomic Numbers)          Masses                          Geom
	       5.000000            11.009305          0.00000000  0.00000000  3.15212020
	      11.000000            22.989769          0.00000000  0.00000000 -1.50948247

	 - Coordinate -           - BOHR/RAD -       - ANG/DEG -
	 R(1,2)           =         4.661603           2.466814

	        --- Internal Coordinate Step in ANG or DEG, aJ/ANG or AJ/DEG ---
	-------------------------------------------------------------------------------
	           Coordinate      Previous         Force          Change          New
	           ----------      --------        ------          ------        ------
	               R(1,2)       2.46681        0.00022        0.00052       2.46733
	-------------------------------------------------------------------------------

	                                 ==> Convergence Check <==

	Measures of convergence in internal coordinates in au.

	Criteria marked as inactive (o), active & met (*), and active & unmet ( ).

	----------------------------------------------------------------------------------------------
	   Step    Total Energy     Delta E     Max Force     RMS Force      Max Disp      RMS Disp
	----------------------------------------------------------------------------------------------
	  Convergence Criteria     1.00e-06 *    3.00e-04 *             o    1.20e-03 *             o
	----------------------------------------------------------------------------------------------
	    13    -186.99619150   -2.04e-07 *    2.65e-05 *    2.65e-05 o    9.80e-04 *    9.80e-04 o  ~
	----------------------------------------------------------------------------------------------

Next Geometry in Ang
	Fragment 1 (Ang)

	    B   0.0000000000   0.0000000000   1.6682894282
	   Na   0.0000000000   0.0000000000  -0.7990429786

    Final optimized geometry and variables:
    Molecular point group: c2v
    Full point group: C_inf_v

    Geometry (in Angstrom), charge = -1, multiplicity = 4:

    B            0.000000000000     0.000000000000     1.668030174444
    NA           0.000000000000     0.000000000000    -0.798783724834

    Psi4 stopped on: Thursday, 17 July 2025 09:52AM
    Psi4 wall time for execution: 0:00:18.77

*** Psi4 exiting successfully. Buy a developer a beer!
