                               Psi4 1.9.1 release

  ==> Input File <==

--------------------------------------------------------------------------
molecule {
-1 4
Na   0.00000        0.60000        0.00000
P   0.00000       -0.60000        0.00000
}

set {
basis              cc-pvdz
reference          uks
maxiter            500
geom_maxiter       500
DAMPING_PERCENTAGE 1
guess              SAP
}

optimize('b3lyp')
--------------------------------------------------------------------------

    Molecular point group: c2v
  Charge       = -1
  Multiplicity = 4
  Basis Set: CC-PVDZ
    Blend: CC-PVDZ
  Basis Set: (CC-PVDZ AUX)
    Blend: CC-PVDZ-JKFIT + DEF2-UNIVERSAL-JKFIT
  @DF-UKS Final Energy:  -502.70637827630361
    Total Energy =                       -502.7063782763036102
 Dipole X            :          0.0000000            0.0000000            0.0000000
 Dipole Y            :          0.0000000            0.0000000            0.0000000
 Dipole Z            :         -1.2412855           -0.1737688           -1.4150543
 Magnitude           :                                                    1.4150543
    Molecular point group: c2v
  Basis Set: CC-PVDZ
    Blend: CC-PVDZ
  Basis Set: (CC-PVDZ AUX)
    Blend: CC-PVDZ-JKFIT + DEF2-UNIVERSAL-JKFIT
  Basis Set: CC-PVDZ
    Blend: CC-PVDZ
  Basis Set: (CC-PVDZ AUX)
    Blend: CC-PVDZ-JKFIT + DEF2-UNIVERSAL-JKFIT
  @DF-UKS Final Energy:  -502.71702161288573
    Total Energy =                       -502.7170216128857305
  Basis Set: CC-PVDZ
    Blend: CC-PVDZ
  Basis Set: (CC-PVDZ AUX)
    Blend: CC-PVDZ-JKFIT + DEF2-UNIVERSAL-JKFIT
  Basis Set: CC-PVDZ
    Blend: CC-PVDZ
  @DF-UKS Final Energy:  -502.73760023301679
    Total Energy =                       -502.7376002330167921
  @DF-UKS Final Energy:  -502.81260347341993
    Total Energy =                       -502.8126034734199266
  @DF-UKS Final Energy:  -503.15707159628471
    Total Energy =                       -503.1570715962847089
  @DF-UKS Final Energy:  -503.36318227669426
    Total Energy =                       -503.3631822766942605
  @DF-UKS Final Energy:  -503.49945554144574
    Total Energy =                       -503.4994555414457409
  @DF-UKS Final Energy:  -503.56392878194617
    Total Energy =                       -503.5639287819461742
  @DF-UKS Final Energy:  -503.59439909075661
    Total Energy =                       -503.5943990907566103
  @DF-UKS Final Energy:  -503.60819828376066
    Total Energy =                       -503.6081982837606574
  @DF-UKS Final Energy:  -503.61407155663136
    Total Energy =                       -503.6140715566313588
  @DF-UKS Final Energy:  -503.61613045639399
    Total Energy =                       -503.6161304563939893
  @DF-UKS Final Energy:  -503.61660647172562
    Total Energy =                       -503.6166064717256177
  @DF-UKS Final Energy:  -503.61665391106027
    Total Energy =                       -503.6166539110602685
  Basis Set: (CC-PVDZ AUX)
    Blend: CC-PVDZ-JKFIT + DEF2-UNIVERSAL-JKFIT
  Basis Set: CC-PVDZ
    Blend: CC-PVDZ
  Basis Set: (CC-PVDZ AUX)
    Blend: CC-PVDZ-JKFIT + DEF2-UNIVERSAL-JKFIT
  @DF-UKS Final Energy:  -503.61665850567022
    Total Energy =                       -503.6166585056702161
  Basis Set: CC-PVDZ
    Blend: CC-PVDZ
  Basis Set: (CC-PVDZ AUX)
    Blend: CC-PVDZ-JKFIT + DEF2-UNIVERSAL-JKFIT
  Charge       = -1
  Multiplicity = 4
  Basis Set: CC-PVDZ
    Blend: CC-PVDZ
  Basis Set: (CC-PVDZ AUX)
    Blend: CC-PVDZ-JKFIT + DEF2-UNIVERSAL-JKFIT

    Orbital Energies [Eh]
    ---------------------

    Alpha Occupied:

       1A1   -76.880103     2A1   -38.325855     3A1    -6.347395
       4A1    -4.514072     1B2    -4.513786     1B1    -4.501252
       5A1    -2.072344     2B2    -1.004022     2B1    -1.003417
       6A1    -1.003092     7A1    -0.361909     8A1    -0.064347
       3B2    -0.047012     3B1    -0.011584     9A1     0.024913

    Alpha Virtual:

       4B2     0.101634     4B1     0.104650    10A1     0.121252
      11A1     0.171373     5B2     0.200842     5B1     0.203795
      12A1     0.250510     1A2     0.303898    13A1     0.303932
       6B2     0.311815     6B1     0.319756    14A1     0.383784
       7B2     0.616679    15A1     0.629972    16A1     0.642974
       7B1     0.643749     2A2     0.682370    17A1     0.688305
       8B2     0.722649     8B1     0.748824    18A1     0.956438

    Beta Occupied:

       1A1   -76.872926     2A1   -38.324518     3A1    -6.339699
       4A1    -4.499573     1B2    -4.499325     1B1    -4.496393
       5A1    -2.069863     2B2    -1.002498     2B1    -1.002032
       6A1    -1.000372     7A1    -0.287071     3B1     0.010294

    Beta Virtual:

       8A1     0.049342     3B2     0.071540     9A1     0.096482
       4B1     0.113070     4B2     0.125042    10A1     0.130951
      11A1     0.190887     5B1     0.219791     5B2     0.223323
      12A1     0.285303     1A2     0.320526    13A1     0.324438
       6B1     0.349227     6B2     0.353140    14A1     0.418347
       7B1     0.660647     7B2     0.667075    15A1     0.671582
      16A1     0.707501     2A2     0.729801    17A1     0.734138
       8B1     0.788254     8B2     0.796725    18A1     0.994166

    Final Occupation by Irrep:
             A1    A2    B1    B2
    DOCC [     7,    0,    3,    2 ]
    SOCC [     2,    0,    0,    1 ]
    NA   [     9,    0,    3,    3 ]
    NB   [     7,    0,    3,    2 ]

  @DF-UKS Final Energy:  -503.61665885154980

   => Energetics <=

    Nuclear Repulsion Energy =             31.4349134019985854
    One-Electron Energy =                -767.3650454004402945
    Two-Electron Energy =                 262.7866486194443496
    DFT Exchange-Correlation Energy =     -30.4731754725523629
    Empirical Dispersion Energy =           0.0000000000000000
    VV10 Nonlocal Energy =                  0.0000000000000000
    Total Energy =                       -503.6166588515498006

  UHF NO Occupations:
  HONO-2 :    8 A1 1.0000000
  HONO-1 :    3 B2 1.0000000
  HONO-0 :    9 A1 1.0000000
  LUNO+0 :    4 B1 0.0022238
  LUNO+1 :   10 A1 0.0010499
  LUNO+2 :   11 A1 0.0000004
  LUNO+3 :    4 B2 0.0000003

Computation Completed

Properties will be evaluated at   0.000000,   0.000000,   0.000000 [a0]

Properties computed using the SCF density matrix

 Multipole Moments:

 ------------------------------------------------------------------------------------
     Multipole            Electronic (a.u.)      Nuclear  (a.u.)        Total (a.u.)
 ------------------------------------------------------------------------------------

 L = 1.  Multiply by 2.5417464519 to convert [e a0] to [Debye]
 Dipole X            :          0.0000000            0.0000000            0.0000000
 Dipole Y            :          0.0000000            0.0000000            0.0000000
 Dipole Z            :         -1.1095818           -0.4022197           -1.5118015
 Magnitude           :                                                    1.5118015

 ------------------------------------------------------------------------------------

*** tstop() called on Joses-MacBook-Pro-2.local at Thu Jul 17 11:13:09 2025
Module time:
	user time   =       7.01 seconds =       0.12 minutes
	system time =       3.17 seconds =       0.05 minutes
	total time  =          1 seconds =       0.02 minutes
Total time:
	user time   =     193.11 seconds =       3.22 minutes
	system time =      89.74 seconds =       1.50 minutes
	total time  =         28 seconds =       0.47 minutes

*** tstart() called on Joses-MacBook-Pro-2.local
*** at Thu Jul 17 11:13:09 2025

         ------------------------------------------------------------
                                   SCF GRAD
                          Rob Parrish, Justin Turney,
                       Andy Simmonett, and Alex Sokolov
         ------------------------------------------------------------

  ==> Geometry <==

    Molecular point group: c2v
    Full point group: C_inf_v

    Geometry (in Angstrom), charge = -1, multiplicity = 4:

       Center              X                  Y                   Z               Mass
    ------------   -----------------  -----------------  -----------------  -----------------
         NA           0.000000000000     0.000000000000     1.594286630659    22.989769282000
         P            0.000000000000     0.000000000000    -1.183333229270    30.973761998420

  Nuclear repulsion =   31.434913401998585

  ==> Basis Set <==

  Basis Set: CC-PVDZ
    Blend: CC-PVDZ
    Number of shells: 16
    Number of basis functions: 36
    Number of Cartesian functions: 38
    Spherical Harmonics?: true
    Max angular momentum: 2

  ==> DFJKGrad: Density-Fitted SCF Gradients <==

    Gradient:                    1
    J tasked:                  Yes
    K tasked:                  Yes
    wK tasked:                  No
    OpenMP threads:              1
    Integrals threads:           1
    Memory [MiB]:              375
    Schwarz Cutoff:          1E-12
    Fitting Condition:       1E-10

   => Auxiliary Basis Set <=

  Basis Set: (CC-PVDZ AUX)
    Blend: CC-PVDZ-JKFIT + DEF2-UNIVERSAL-JKFIT
    Number of shells: 70
    Number of basis functions: 224
    Number of Cartesian functions: 267
    Spherical Harmonics?: true
    Max angular momentum: 4

  ==> DFT Potential <==

   => LibXC <=

    Version 6.2.2
    S. Lehtola, C. Steigemann, M. J.T. Oliveira, and M. A.L. Marques.,  SoftwareX 7, 1â€“5 (2018) (10.1016/j.softx.2017.11.002)

   => Composite Functional: B3LYP <=

    B3LYP Hyb-GGA Exchange-Correlation Functional

    P. J. Stephens, F. J. Devlin, C. F. Chabalowski, and M. J. Frisch.,  J. Phys. Chem. 98, 11623 (1994) (10.1021/j100096a001)

    Deriv               =              1
    GGA                 =           TRUE
    Meta                =          FALSE

    Exchange Hybrid     =           TRUE
    MP2 Hybrid          =          FALSE

   => Exchange Functionals <=

    0.0800   Slater exchange
    0.7200         Becke 88

   => Exact (HF) Exchange <=

    0.2000               HF

   => Correlation Functionals <=

    0.1900   Vosko, Wilk & Nusair (VWN5_RPA)
    0.8100   Lee, Yang & Parr

   => LibXC Density Thresholds  <==

    XC_HYB_GGA_XC_B3LYP:  1.00E-15

   => Molecular Quadrature <=

    Radial Scheme          =       TREUTLER
    Pruning Scheme         =           NONE
    Nuclear Scheme         =       TREUTLER

    Blocking Scheme        =         OCTREE
    BS radius alpha        =              1
    Pruning alpha          =              1
    Radial Points          =             75
    Spherical Points       =            302
    Total Points           =          43844
    Total Blocks           =            442
    Max Points             =            256
    Max Functions          =             36
    Weights Tolerance      =       1.00E-15

  -Total Gradient:
     Atom            X                  Y                   Z
    ------   -----------------  -----------------  -----------------
       1       -0.000000000000     0.000000000000    -0.000028607543
       2        0.000000000000    -0.000000000000     0.000082764540

*** tstop() called on Joses-MacBook-Pro-2.local at Thu Jul 17 11:13:09 2025
Module time:
	user time   =       1.91 seconds =       0.03 minutes
	system time =       2.33 seconds =       0.04 minutes
	total time  =          0 seconds =       0.00 minutes
Total time:
	user time   =     195.02 seconds =       3.25 minutes
	system time =      92.08 seconds =       1.53 minutes
	total time  =         28 seconds =       0.47 minutes

    			-----------------------------------------

    			 OPTKING 3.0: for geometry optimizations

    			     By R.A. King, Bethel University

    			        with contributions from

    			    A.V. Copan, J. Cayton, A. Heide

    			-----------------------------------------

	                            ===> Fragment 1 <==

	 Z (Atomic Numbers)          Masses                          Geom
	      11.000000            22.989769          0.00000000  0.00000000  3.01276510
	      15.000000            30.973762          0.00000000  0.00000000 -2.23617572

	 - Coordinate -           - BOHR/RAD -       - ANG/DEG -
	 R(1,2)           =         5.248941           2.777620

	        --- Internal Coordinate Step in ANG or DEG, aJ/ANG or AJ/DEG ---
	-------------------------------------------------------------------------------
	           Coordinate      Previous         Force          Change          New
	           ----------      --------        ------          ------        ------
	               R(1,2)       2.77762        0.00046        0.00122       2.77884
	-------------------------------------------------------------------------------

	                                 ==> Convergence Check <==

	Measures of convergence in internal coordinates in au.

	Criteria marked as inactive (o), active & met (*), and active & unmet ( ).

	----------------------------------------------------------------------------------------------
	   Step    Total Energy     Delta E     Max Force     RMS Force      Max Disp      RMS Disp
	----------------------------------------------------------------------------------------------
	  Convergence Criteria     1.00e-06 *    3.00e-04 *             o    1.20e-03 *             o
	----------------------------------------------------------------------------------------------
	    16    -503.61665885   -3.46e-07 *    5.57e-05 *    5.57e-05 o    2.31e-03      2.31e-03 o  ~
	----------------------------------------------------------------------------------------------

Next Geometry in Ang
	Fragment 1 (Ang)

	   Na   0.0000000000   0.0000000000   1.5948983489
	    P   0.0000000000   0.0000000000  -1.1839449475

    Final optimized geometry and variables:
    Molecular point group: c2v
    Full point group: C_inf_v

    Geometry (in Angstrom), charge = -1, multiplicity = 4:

    NA           0.000000000000     0.000000000000     1.594286630659
    P            0.000000000000     0.000000000000    -1.183333229270

    Psi4 stopped on: Thursday, 17 July 2025 11:13AM
    Psi4 wall time for execution: 0:00:28.71

*** Psi4 exiting successfully. Buy a developer a beer!
