                               Psi4 1.9.1 release

  ==> Input File <==

--------------------------------------------------------------------------
molecule {
-1 4
He   0.00000        0.60000        0.00000
Mg   0.00000       -0.60000        0.00000
}

set {
basis              cc-pvdz
reference          uks
maxiter            500
geom_maxiter       500
DAMPING_PERCENTAGE 1
guess              SAP
}

optimize('b3lyp')
--------------------------------------------------------------------------

    Molecular point group: c2v
  Charge       = -1
  Multiplicity = 4
  Basis Set: CC-PVDZ
    Blend: CC-PVDZ
  Basis Set: (CC-PVDZ AUX)
    Blend: DEF2-UNIVERSAL-JKFIT
  @DF-UKS Final Energy:  -202.75524930634634
    Total Energy =                       -202.7552493063463430
 Dipole X            :          0.0000000            0.0000000            0.0000000
 Dipole Y            :          0.0000000            0.0000000            0.0000000
 Dipole Z            :          1.0700459           -0.0049551            1.0650909
 Magnitude           :                                                    1.0650909
    Molecular point group: c2v
  Basis Set: CC-PVDZ
    Blend: CC-PVDZ
  Basis Set: (CC-PVDZ AUX)
    Blend: DEF2-UNIVERSAL-JKFIT
  Basis Set: CC-PVDZ
    Blend: CC-PVDZ
  Basis Set: (CC-PVDZ AUX)
    Blend: DEF2-UNIVERSAL-JKFIT
  @DF-UKS Final Energy:  -202.85108684865224
    Total Energy =                       -202.8510868486522156
  Basis Set: CC-PVDZ
    Blend: CC-PVDZ
  Basis Set: (CC-PVDZ AUX)
    Blend: DEF2-UNIVERSAL-JKFIT
  Basis Set: CC-PVDZ
    Blend: CC-PVDZ
  @DF-UKS Final Energy:  -202.86656149484782
    Total Energy =                       -202.8665614948478151
  @DF-UKS Final Energy:  -202.87942907399099
    Total Energy =                       -202.8794290739909911
  @DF-UKS Final Energy:  -202.88444303814225
    Total Energy =                       -202.8844430381422228
  @DF-UKS Final Energy:  -202.88871791989507
    Total Energy =                       -202.8887179198951003
  @DF-UKS Final Energy:  -202.89106136130576
    Total Energy =                       -202.8910613613057308
  @DF-UKS Final Energy:  -202.89266194896257
    Total Energy =                       -202.8926619489625693
  @DF-UKS Final Energy:  -202.89369887675880
    Total Energy =                       -202.8936988767588048
  @DF-UKS Final Energy:  -202.89428237106873
    Total Energy =                       -202.8942823710687264
  @DF-UKS Final Energy:  -202.89454550513688
    Total Energy =                       -202.8945455051368754
  @DF-UKS Final Energy:  -202.89464097483378
    Total Energy =                       -202.8946409748337771
  @DF-UKS Final Energy:  -202.89466714234916
    Total Energy =                       -202.8946671423491637
  Basis Set: (CC-PVDZ AUX)
    Blend: DEF2-UNIVERSAL-JKFIT
  Basis Set: CC-PVDZ
    Blend: CC-PVDZ
  Basis Set: (CC-PVDZ AUX)
    Blend: DEF2-UNIVERSAL-JKFIT
  @DF-UKS Final Energy:  -202.89467112875369
    Total Energy =                       -202.8946711287536857
  Basis Set: CC-PVDZ
    Blend: CC-PVDZ
  Basis Set: (CC-PVDZ AUX)
    Blend: DEF2-UNIVERSAL-JKFIT
  Charge       = -1
  Multiplicity = 4
  Basis Set: CC-PVDZ
    Blend: CC-PVDZ
  Basis Set: (CC-PVDZ AUX)
    Blend: DEF2-UNIVERSAL-JKFIT

    Orbital Energies [Eh]
    ---------------------

    Alpha Occupied:

       1A1   -46.678623     2A1    -2.957722     3A1    -1.702849
       1B1    -1.700410     1B2    -1.700410     4A1    -0.536065
       5A1    -0.061619     2B1     0.063111     2B2     0.063111

    Alpha Virtual:

       6A1     0.111794     7A1     0.234445     3B2     0.295348
       3B1     0.295348     8A1     0.307650     9A1     0.463186
       1A2     0.463186     4B2     0.466144     4B1     0.466144
      10A1     0.471635    11A1     1.310164     5B1     2.304922
       5B2     2.304922    12A1     2.310609

    Beta Occupied:

       1A1   -46.674471     2A1    -2.950904     3A1    -1.698937
       1B1    -1.693689     1B2    -1.693689     4A1    -0.535577

    Beta Virtual:

       5A1     0.053930     6A1     0.152037     2B1     0.166790
       2B2     0.166790     7A1     0.272293     8A1     0.331068
       3B2     0.345312     3B1     0.345312     9A1     0.515906
       4B1     0.523684     4B2     0.523684    10A1     0.539900
       1A2     0.539901    11A1     1.312064     5B1     2.305347
       5B2     2.305347    12A1     2.311141

    Final Occupation by Irrep:
             A1    A2    B1    B2
    DOCC [     4,    0,    1,    1 ]
    SOCC [     1,    0,    1,    1 ]
    NA   [     5,    0,    2,    2 ]
    NB   [     4,    0,    1,    1 ]

  @DF-UKS Final Energy:  -202.89467137840825

   => Energetics <=

    Nuclear Repulsion Energy =              3.7823234060781910
    One-Electron Energy =                -292.7234727431356305
    Two-Electron Energy =                 100.2834355670471354
    DFT Exchange-Correlation Energy =     -14.2369576083979563
    Empirical Dispersion Energy =           0.0000000000000000
    VV10 Nonlocal Energy =                  0.0000000000000000
    Total Energy =                       -202.8946713784082192

  UHF NO Occupations:
  HONO-2 :    5 A1 1.0000000
  HONO-1 :    2 B2 1.0000000
  HONO-0 :    2 B1 1.0000000
  LUNO+0 :    6 A1 0.0000010
  LUNO+1 :    7 A1 0.0000004
  LUNO+2 :    3 B2 0.0000002
  LUNO+3 :    3 B1 0.0000002

Computation Completed

Properties will be evaluated at   0.000000,   0.000000,   0.000000 [a0]

Properties computed using the SCF density matrix

 Multipole Moments:

 ------------------------------------------------------------------------------------
     Multipole            Electronic (a.u.)      Nuclear  (a.u.)        Total (a.u.)
 ------------------------------------------------------------------------------------

 L = 1.  Multiply by 2.5417464519 to convert [e a0] to [Debye]
 Dipole X            :          0.0000000            0.0000000            0.0000000
 Dipole Y            :          0.0000000            0.0000000            0.0000000
 Dipole Z            :          0.9901312           -0.0138651            0.9762661
 Magnitude           :                                                    0.9762661

 ------------------------------------------------------------------------------------

*** tstop() called on Joses-MacBook-Pro-2.local at Thu Jul 17 09:22:06 2025
Module time:
	user time   =       2.33 seconds =       0.04 minutes
	system time =       2.69 seconds =       0.04 minutes
	total time  =          0 seconds =       0.00 minutes
Total time:
	user time   =      59.06 seconds =       0.98 minutes
	system time =      61.90 seconds =       1.03 minutes
	total time  =         13 seconds =       0.22 minutes

*** tstart() called on Joses-MacBook-Pro-2.local
*** at Thu Jul 17 09:22:06 2025

         ------------------------------------------------------------
                                   SCF GRAD
                          Rob Parrish, Justin Turney,
                       Andy Simmonett, and Alex Sokolov
         ------------------------------------------------------------

  ==> Geometry <==

    Molecular point group: c2v
    Full point group: C_inf_v

    Geometry (in Angstrom), charge = -1, multiplicity = 4:

       Center              X                  Y                   Z               Mass
    ------------   -----------------  -----------------  -----------------  -----------------
         HE           0.000000000000     0.000000000000     2.877582847850     4.002603254130
         MG           0.000000000000     0.000000000000    -0.480208565669    23.985041697000

  Nuclear repulsion =    3.782323406078191

  ==> Basis Set <==

  Basis Set: CC-PVDZ
    Blend: CC-PVDZ
    Number of shells: 11
    Number of basis functions: 23
    Number of Cartesian functions: 24
    Spherical Harmonics?: true
    Max angular momentum: 2

  ==> DFJKGrad: Density-Fitted SCF Gradients <==

    Gradient:                    1
    J tasked:                  Yes
    K tasked:                  Yes
    wK tasked:                  No
    OpenMP threads:              1
    Integrals threads:           1
    Memory [MiB]:              375
    Schwarz Cutoff:          1E-12
    Fitting Condition:       1E-10

   => Auxiliary Basis Set <=

  Basis Set: (CC-PVDZ AUX)
    Blend: DEF2-UNIVERSAL-JKFIT
    Number of shells: 43
    Number of basis functions: 135
    Number of Cartesian functions: 162
    Spherical Harmonics?: true
    Max angular momentum: 4

  ==> DFT Potential <==

   => LibXC <=

    Version 6.2.2
    S. Lehtola, C. Steigemann, M. J.T. Oliveira, and M. A.L. Marques.,  SoftwareX 7, 1â€“5 (2018) (10.1016/j.softx.2017.11.002)

   => Composite Functional: B3LYP <=

    B3LYP Hyb-GGA Exchange-Correlation Functional

    P. J. Stephens, F. J. Devlin, C. F. Chabalowski, and M. J. Frisch.,  J. Phys. Chem. 98, 11623 (1994) (10.1021/j100096a001)

    Deriv               =              1
    GGA                 =           TRUE
    Meta                =          FALSE

    Exchange Hybrid     =           TRUE
    MP2 Hybrid          =          FALSE

   => Exchange Functionals <=

    0.0800   Slater exchange
    0.7200         Becke 88

   => Exact (HF) Exchange <=

    0.2000               HF

   => Correlation Functionals <=

    0.1900   Vosko, Wilk & Nusair (VWN5_RPA)
    0.8100   Lee, Yang & Parr

   => LibXC Density Thresholds  <==

    XC_HYB_GGA_XC_B3LYP:  1.00E-15

   => Molecular Quadrature <=

    Radial Scheme          =       TREUTLER
    Pruning Scheme         =           NONE
    Nuclear Scheme         =       TREUTLER

    Blocking Scheme        =         OCTREE
    BS radius alpha        =              1
    Pruning alpha          =              1
    Radial Points          =             75
    Spherical Points       =            302
    Total Points           =          43547
    Total Blocks           =            405
    Max Points             =            256
    Max Functions          =             23
    Weights Tolerance      =       1.00E-15

  -Total Gradient:
     Atom            X                  Y                   Z
    ------   -----------------  -----------------  -----------------
       1       -0.000000000000     0.000000000000    -0.000002402209
       2        0.000000000000    -0.000000000000     0.000003865827

*** tstop() called on Joses-MacBook-Pro-2.local at Thu Jul 17 09:22:06 2025
Module time:
	user time   =       0.95 seconds =       0.02 minutes
	system time =       1.02 seconds =       0.02 minutes
	total time  =          0 seconds =       0.00 minutes
Total time:
	user time   =      60.01 seconds =       1.00 minutes
	system time =      62.92 seconds =       1.05 minutes
	total time  =         13 seconds =       0.22 minutes

    			-----------------------------------------

    			 OPTKING 3.0: for geometry optimizations

    			     By R.A. King, Bethel University

    			        with contributions from

    			    A.V. Copan, J. Cayton, A. Heide

    			-----------------------------------------

	                            ===> Fragment 1 <==

	 Z (Atomic Numbers)          Masses                          Geom
	       2.000000             4.002603          0.00000000  0.00000000  5.43784349
	      12.000000            23.985042          0.00000000  0.00000000 -0.90746267

	 - Coordinate -           - BOHR/RAD -       - ANG/DEG -
	 R(1,2)           =         6.345306           3.357791

	        --- Internal Coordinate Step in ANG or DEG, aJ/ANG or AJ/DEG ---
	-------------------------------------------------------------------------------
	           Coordinate      Previous         Force          Change          New
	           ----------      --------        ------          ------        ------
	               R(1,2)       3.35779        0.00003        0.00299       3.36078
	-------------------------------------------------------------------------------

	                                 ==> Convergence Check <==

	Measures of convergence in internal coordinates in au.

	Criteria marked as inactive (o), active & met (*), and active & unmet ( ).

	----------------------------------------------------------------------------------------------
	   Step    Total Energy     Delta E     Max Force     RMS Force      Max Disp      RMS Disp
	----------------------------------------------------------------------------------------------
	  Convergence Criteria     1.00e-06 *    3.00e-04 *             o    1.20e-03 *             o
	----------------------------------------------------------------------------------------------
	    15    -202.89467138   -2.50e-07 *    3.13e-06 *    3.13e-06 o    5.65e-03      5.65e-03 o  ~
	----------------------------------------------------------------------------------------------

Next Geometry in Ang
	Fragment 1 (Ang)

	   He   0.0000000000   0.0000000000   2.8790765719
	   Mg   0.0000000000   0.0000000000  -0.4817022898

    Final optimized geometry and variables:
    Molecular point group: c2v
    Full point group: C_inf_v

    Geometry (in Angstrom), charge = -1, multiplicity = 4:

    HE           0.000000000000     0.000000000000     2.877582847850
    MG           0.000000000000     0.000000000000    -0.480208565669

    Psi4 stopped on: Thursday, 17 July 2025 09:22AM
    Psi4 wall time for execution: 0:00:13.42

*** Psi4 exiting successfully. Buy a developer a beer!
