                               Psi4 1.9.1 release

  ==> Input File <==

--------------------------------------------------------------------------
molecule {
-1 4
Mg   0.00000        0.60000        0.00000
Si   0.00000       -0.60000        0.00000
}

set {
basis              cc-pvdz
reference          uks
maxiter            500
geom_maxiter       500
DAMPING_PERCENTAGE 1
guess              SAP
}

optimize('b3lyp')
--------------------------------------------------------------------------

    Molecular point group: c2v
  Charge       = -1
  Multiplicity = 4
  Basis Set: CC-PVDZ
    Blend: CC-PVDZ
  Basis Set: (CC-PVDZ AUX)
    Blend: CC-PVDZ-JKFIT + DEF2-UNIVERSAL-JKFIT
  @DF-UKS Final Energy:  -488.51764447905811
    Total Energy =                       -488.5176444790581058
 Dipole X            :          0.0000000            0.0000000            0.0000000
 Dipole Y            :          0.0000000            0.0000000            0.0000000
 Dipole Z            :         -0.9370570           -0.0029443           -0.9400012
 Magnitude           :                                                    0.9400012
    Molecular point group: c2v
  Basis Set: CC-PVDZ
    Blend: CC-PVDZ
  Basis Set: (CC-PVDZ AUX)
    Blend: CC-PVDZ-JKFIT + DEF2-UNIVERSAL-JKFIT
  Basis Set: CC-PVDZ
    Blend: CC-PVDZ
  Basis Set: (CC-PVDZ AUX)
    Blend: CC-PVDZ-JKFIT + DEF2-UNIVERSAL-JKFIT
  @DF-UKS Final Energy:  -488.52927753068900
    Total Energy =                       -488.5292775306890007
  Basis Set: CC-PVDZ
    Blend: CC-PVDZ
  Basis Set: (CC-PVDZ AUX)
    Blend: CC-PVDZ-JKFIT + DEF2-UNIVERSAL-JKFIT
  Basis Set: CC-PVDZ
    Blend: CC-PVDZ
  @DF-UKS Final Energy:  -488.55181033107527
    Total Energy =                       -488.5518103310752736
  @DF-UKS Final Energy:  -488.63432436680631
    Total Energy =                       -488.6343243668063110
  @DF-UKS Final Energy:  -489.01848293727966
    Total Energy =                       -489.0184829372796571
  @DF-UKS Final Energy:  -489.25914514215026
    Total Energy =                       -489.2591451421502597
  @DF-UKS Final Energy:  -489.39641749307668
    Total Energy =                       -489.3964174930766831
  @DF-UKS Final Energy:  -489.45302769017633
    Total Energy =                       -489.4530276901763273
  @DF-UKS Final Energy:  -489.52568082755295
    Total Energy =                       -489.5256808275529465
  @DF-UKS Final Energy:  -489.54964372899582
    Total Energy =                       -489.5496437289958180
  @DF-UKS Final Energy:  -489.55020219903440
    Total Energy =                       -489.5502021990344019
  @DF-UKS Final Energy:  -489.55298424729671
    Total Energy =                       -489.5529842472967061
  @DF-UKS Final Energy:  -489.55330742409490
    Total Energy =                       -489.5533074240948963
  @DF-UKS Final Energy:  -489.55334826615899
    Total Energy =                       -489.5533482661589915
  Basis Set: (CC-PVDZ AUX)
    Blend: CC-PVDZ-JKFIT + DEF2-UNIVERSAL-JKFIT
  Basis Set: CC-PVDZ
    Blend: CC-PVDZ
  Basis Set: (CC-PVDZ AUX)
    Blend: CC-PVDZ-JKFIT + DEF2-UNIVERSAL-JKFIT
  @DF-UKS Final Energy:  -489.55335385282990
    Total Energy =                       -489.5533538528299005
  Basis Set: CC-PVDZ
    Blend: CC-PVDZ
  Basis Set: (CC-PVDZ AUX)
    Blend: CC-PVDZ-JKFIT + DEF2-UNIVERSAL-JKFIT
  Charge       = -1
  Multiplicity = 4
  Basis Set: CC-PVDZ
    Blend: CC-PVDZ
  Basis Set: (CC-PVDZ AUX)
    Blend: CC-PVDZ-JKFIT + DEF2-UNIVERSAL-JKFIT

    Orbital Energies [Eh]
    ---------------------

    Alpha Occupied:

       1A1   -65.927987     2A1   -46.637519     3A1    -5.071727
       1B2    -3.431551     1B1    -3.431551     4A1    -3.429898
       5A1    -2.919698     2B2    -1.663910     2B1    -1.663910
       6A1    -1.662417     7A1    -0.253639     8A1    -0.050973
       3B1     0.004821     3B2     0.004821     9A1     0.024498

    Alpha Virtual:

       4B2     0.127871     4B1     0.127871    10A1     0.170094
      11A1     0.243197     5B2     0.310914     5B1     0.310914
      12A1     0.325011    13A1     0.437599     6B1     0.446324
       6B2     0.446324     1A2     0.480890    14A1     0.480890
       7B2     0.508937     7B1     0.508937    15A1     0.545374
       2A2     0.563551    16A1     0.563553    17A1     0.637872
       8B1     0.683140     8B2     0.683140    18A1     0.899684

    Beta Occupied:

       1A1   -65.922022     2A1   -46.636861     3A1    -5.065041
       1B1    -3.421390     1B2    -3.421390     4A1    -3.420888
       5A1    -2.918854     2B2    -1.663234     2B1    -1.663234
       6A1    -1.660126     7A1    -0.180946     8A1    -0.018981

    Beta Virtual:

       3B1     0.094643     3B2     0.094643     9A1     0.097742
       4B2     0.152781     4B1     0.152781    10A1     0.186093
      11A1     0.252697     5B2     0.315779     5B1     0.315779
      12A1     0.352148    13A1     0.464554     6B1     0.480681
       6B2     0.480681     1A2     0.491222    14A1     0.491222
       7B2     0.547344     7B1     0.547344    15A1     0.580043
       2A2     0.625959    16A1     0.625962    17A1     0.666868
       8B1     0.723631     8B2     0.723631    18A1     0.932286

    Final Occupation by Irrep:
             A1    A2    B1    B2
    DOCC [     8,    0,    2,    2 ]
    SOCC [     1,    0,    1,    1 ]
    NA   [     9,    0,    3,    3 ]
    NB   [     8,    0,    2,    2 ]

  @DF-UKS Final Energy:  -489.55335464021738

   => Energetics <=

    Nuclear Repulsion Energy =             32.7248030939474717
    One-Electron Energy =                -750.8964130193121491
    Two-Electron Energy =                 258.8415530876728212
    DFT Exchange-Correlation Energy =     -30.2232978025254972
    Empirical Dispersion Energy =           0.0000000000000000
    VV10 Nonlocal Energy =                  0.0000000000000000
    Total Energy =                       -489.5533546402173783

  UHF NO Occupations:
  HONO-2 :    9 A1 1.0000000
  HONO-1 :    3 B2 1.0000000
  HONO-0 :    3 B1 1.0000000
  LUNO+0 :   10 A1 0.0031760
  LUNO+1 :   11 A1 0.0001169
  LUNO+2 :   12 A1 0.0000001
  LUNO+3 :    4 B1 0.0000001

Computation Completed

Properties will be evaluated at   0.000000,   0.000000,   0.000000 [a0]

Properties computed using the SCF density matrix

 Multipole Moments:

 ------------------------------------------------------------------------------------
     Multipole            Electronic (a.u.)      Nuclear  (a.u.)        Total (a.u.)
 ------------------------------------------------------------------------------------

 L = 1.  Multiply by 2.5417464519 to convert [e a0] to [Debye]
 Dipole X            :          0.0000000            0.0000000            0.0000000
 Dipole Y            :          0.0000000            0.0000000            0.0000000
 Dipole Z            :         -0.4748751           -0.0066654           -0.4815405
 Magnitude           :                                                    0.4815405

 ------------------------------------------------------------------------------------

*** tstop() called on Joses-MacBook-Pro-2.local at Thu Jul 17 11:25:44 2025
Module time:
	user time   =       7.21 seconds =       0.12 minutes
	system time =       2.14 seconds =       0.04 minutes
	total time  =          1 seconds =       0.02 minutes
Total time:
	user time   =     204.85 seconds =       3.41 minutes
	system time =      83.50 seconds =       1.39 minutes
	total time  =         28 seconds =       0.47 minutes

*** tstart() called on Joses-MacBook-Pro-2.local
*** at Thu Jul 17 11:25:44 2025

         ------------------------------------------------------------
                                   SCF GRAD
                          Rob Parrish, Justin Turney,
                       Andy Simmonett, and Alex Sokolov
         ------------------------------------------------------------

  ==> Geometry <==

    Molecular point group: c2v
    Full point group: C_inf_v

    Geometry (in Angstrom), charge = -1, multiplicity = 4:

       Center              X                  Y                   Z               Mass
    ------------   -----------------  -----------------  -----------------  -----------------
         MG           0.000000000000     0.000000000000     1.462674809000    23.985041697000
         SI           0.000000000000     0.000000000000    -1.253973206798    27.976926534650

  Nuclear repulsion =   32.724803093947472

  ==> Basis Set <==

  Basis Set: CC-PVDZ
    Blend: CC-PVDZ
    Number of shells: 16
    Number of basis functions: 36
    Number of Cartesian functions: 38
    Spherical Harmonics?: true
    Max angular momentum: 2

  ==> DFJKGrad: Density-Fitted SCF Gradients <==

    Gradient:                    1
    J tasked:                  Yes
    K tasked:                  Yes
    wK tasked:                  No
    OpenMP threads:              1
    Integrals threads:           1
    Memory [MiB]:              375
    Schwarz Cutoff:          1E-12
    Fitting Condition:       1E-10

   => Auxiliary Basis Set <=

  Basis Set: (CC-PVDZ AUX)
    Blend: CC-PVDZ-JKFIT + DEF2-UNIVERSAL-JKFIT
    Number of shells: 70
    Number of basis functions: 224
    Number of Cartesian functions: 267
    Spherical Harmonics?: true
    Max angular momentum: 4

  ==> DFT Potential <==

   => LibXC <=

    Version 6.2.2
    S. Lehtola, C. Steigemann, M. J.T. Oliveira, and M. A.L. Marques.,  SoftwareX 7, 1â€“5 (2018) (10.1016/j.softx.2017.11.002)

   => Composite Functional: B3LYP <=

    B3LYP Hyb-GGA Exchange-Correlation Functional

    P. J. Stephens, F. J. Devlin, C. F. Chabalowski, and M. J. Frisch.,  J. Phys. Chem. 98, 11623 (1994) (10.1021/j100096a001)

    Deriv               =              1
    GGA                 =           TRUE
    Meta                =          FALSE

    Exchange Hybrid     =           TRUE
    MP2 Hybrid          =          FALSE

   => Exchange Functionals <=

    0.0800   Slater exchange
    0.7200         Becke 88

   => Exact (HF) Exchange <=

    0.2000               HF

   => Correlation Functionals <=

    0.1900   Vosko, Wilk & Nusair (VWN5_RPA)
    0.8100   Lee, Yang & Parr

   => LibXC Density Thresholds  <==

    XC_HYB_GGA_XC_B3LYP:  1.00E-15

   => Molecular Quadrature <=

    Radial Scheme          =       TREUTLER
    Pruning Scheme         =           NONE
    Nuclear Scheme         =       TREUTLER

    Blocking Scheme        =         OCTREE
    BS radius alpha        =              1
    Pruning alpha          =              1
    Radial Points          =             75
    Spherical Points       =            302
    Total Points           =          42954
    Total Blocks           =            421
    Max Points             =            255
    Max Functions          =             36
    Weights Tolerance      =       1.00E-15

  -Total Gradient:
     Atom            X                  Y                   Z
    ------   -----------------  -----------------  -----------------
       1        0.000000000000    -0.000000000000    -0.000075008555
       2       -0.000000000000     0.000000000000     0.000093732510

*** tstop() called on Joses-MacBook-Pro-2.local at Thu Jul 17 11:25:44 2025
Module time:
	user time   =       2.42 seconds =       0.04 minutes
	system time =       1.34 seconds =       0.02 minutes
	total time  =          0 seconds =       0.00 minutes
Total time:
	user time   =     207.27 seconds =       3.45 minutes
	system time =      84.84 seconds =       1.41 minutes
	total time  =         28 seconds =       0.47 minutes

    			-----------------------------------------

    			 OPTKING 3.0: for geometry optimizations

    			     By R.A. King, Bethel University

    			        with contributions from

    			    A.V. Copan, J. Cayton, A. Heide

    			-----------------------------------------

	                            ===> Fragment 1 <==

	 Z (Atomic Numbers)          Masses                          Geom
	      12.000000            23.985042          0.00000000  0.00000000  2.76405480
	      14.000000            27.976927          0.00000000  0.00000000 -2.36966593

	 - Coordinate -           - BOHR/RAD -       - ANG/DEG -
	 R(1,2)           =         5.133721           2.716648

	        --- Internal Coordinate Step in ANG or DEG, aJ/ANG or AJ/DEG ---
	-------------------------------------------------------------------------------
	           Coordinate      Previous         Force          Change          New
	           ----------      --------        ------          ------        ------
	               R(1,2)       2.71665        0.00070        0.00139       2.71804
	-------------------------------------------------------------------------------

	                                 ==> Convergence Check <==

	Measures of convergence in internal coordinates in au.

	Criteria marked as inactive (o), active & met (*), and active & unmet ( ).

	----------------------------------------------------------------------------------------------
	   Step    Total Energy     Delta E     Max Force     RMS Force      Max Disp      RMS Disp
	----------------------------------------------------------------------------------------------
	  Convergence Criteria     1.00e-06 *    3.00e-04 *             o    1.20e-03 *             o
	----------------------------------------------------------------------------------------------
	    16    -489.55335464   -7.87e-07 *    8.44e-05 *    8.44e-05 o    2.63e-03      2.63e-03 o  ~
	----------------------------------------------------------------------------------------------

Next Geometry in Ang
	Fragment 1 (Ang)

	   Mg   0.0000000000   0.0000000000   1.4633697556
	   Si   0.0000000000   0.0000000000  -1.2546681534

    Final optimized geometry and variables:
    Molecular point group: c2v
    Full point group: C_inf_v

    Geometry (in Angstrom), charge = -1, multiplicity = 4:

    MG           0.000000000000     0.000000000000     1.462674809000
    SI           0.000000000000     0.000000000000    -1.253973206798

    Psi4 stopped on: Thursday, 17 July 2025 11:25AM
    Psi4 wall time for execution: 0:00:28.98

*** Psi4 exiting successfully. Buy a developer a beer!
