                               Psi4 1.9.1 release

  ==> Input File <==

--------------------------------------------------------------------------
molecule {
-1 4
Si   0.00000        0.60000        0.00000
Si   0.00000       -0.60000        0.00000
}

set {
basis              cc-pvdz
reference          uks
maxiter            500
geom_maxiter       500
DAMPING_PERCENTAGE 1
guess              SAP
}

optimize('b3lyp')
--------------------------------------------------------------------------

    Molecular point group: d2h
  Charge       = -1
  Multiplicity = 4
  Basis Set: CC-PVDZ
    Blend: CC-PVDZ
  Basis Set: (CC-PVDZ AUX)
    Blend: CC-PVDZ-JKFIT
  @DF-UKS Final Energy:  -577.63346031242145
    Total Energy =                       -577.6334603124214482
 Dipole X            :          0.0000000            0.0000000            0.0000000
 Dipole Y            :          0.0000000            0.0000000            0.0000000
 Dipole Z            :          0.0000000            0.0000000            0.0000000
 Magnitude           :                                                    0.0000000
    Molecular point group: d2h
  Basis Set: CC-PVDZ
    Blend: CC-PVDZ
  Basis Set: (CC-PVDZ AUX)
    Blend: CC-PVDZ-JKFIT
  Basis Set: CC-PVDZ
    Blend: CC-PVDZ
  Basis Set: (CC-PVDZ AUX)
    Blend: CC-PVDZ-JKFIT
  @DF-UKS Final Energy:  -577.65525090443566
    Total Energy =                       -577.6552509044356611
  Basis Set: CC-PVDZ
    Blend: CC-PVDZ
  Basis Set: (CC-PVDZ AUX)
    Blend: CC-PVDZ-JKFIT
  Basis Set: CC-PVDZ
    Blend: CC-PVDZ
  @DF-UKS Final Energy:  -577.69709131836544
    Total Energy =                       -577.6970913183656648
  @DF-UKS Final Energy:  -577.84631786384500
    Total Energy =                       -577.8463178638448881
  @DF-UKS Final Energy:  -578.41492150816168
    Total Energy =                       -578.4149215081616831
  @DF-UKS Final Energy:  -578.68985495072479
    Total Energy =                       -578.6898549507247935
  @DF-UKS Final Energy:  -578.82422921539489
    Total Energy =                       -578.8242292153948938
  @DF-UKS Final Energy:  -578.86909401523178
    Total Energy =                       -578.8690940152316671
  @DF-UKS Final Energy:  -578.88832468363603
    Total Energy =                       -578.8883246836360286
  @DF-UKS Final Energy:  -578.89431222695453
    Total Energy =                       -578.8943122269545256
  @DF-UKS Final Energy:  -578.89542627466074
    Total Energy =                       -578.8954262746607355
  @DF-UKS Final Energy:  -578.89570543869081
    Total Energy =                       -578.8957054386908112
  @DF-UKS Final Energy:  -578.89573325422828
    Total Energy =                       -578.8957332542282757
  Basis Set: (CC-PVDZ AUX)
    Blend: CC-PVDZ-JKFIT
  Basis Set: CC-PVDZ
    Blend: CC-PVDZ
  Basis Set: (CC-PVDZ AUX)
    Blend: CC-PVDZ-JKFIT
  @DF-UKS Final Energy:  -578.89573619001430
    Total Energy =                       -578.8957361900143042
  Basis Set: CC-PVDZ
    Blend: CC-PVDZ
  Basis Set: (CC-PVDZ AUX)
    Blend: CC-PVDZ-JKFIT
  Charge       = -1
  Multiplicity = 4
  Basis Set: CC-PVDZ
    Blend: CC-PVDZ
  Basis Set: (CC-PVDZ AUX)
    Blend: CC-PVDZ-JKFIT

    Orbital Energies [Eh]
    ---------------------

    Alpha Occupied:

       1Ag   -65.926268     1B2u  -65.926268     2B2u   -5.069740
       2Ag    -5.069716     3Ag    -3.430494     3B2u   -3.429895
       1B3u   -3.429640     1B1g   -3.429597     1B1u   -3.426073
       1B3g   -3.426026     4Ag    -0.302878     4B2u   -0.175946
       5Ag    -0.026969     2B3u   -0.020407     2B1u    0.007817
       2B1g    0.065643

    Alpha Virtual:

       2B3g    0.129760     5B2u    0.221767     6Ag     0.387712
       7Ag     0.443535     3B3u    0.453319     3B1u    0.467610
       6B2u    0.477135     4B3u    0.512648     3B1g    0.523094
       4B1u    0.530312     1B2g    0.532171     8Ag     0.533443
       3B3g    0.539879     1Au     0.615166     7B2u    0.615230
       8B2u    0.621058     9Ag     0.753011     4B1g    0.769321
       4B3g    0.786709     9B2u    1.023988

    Beta Occupied:

       1B2u  -65.922020     1Ag   -65.922020     2B2u   -5.064977
       2Ag    -5.064925     1B1u   -3.423561     1B3g   -3.423520
       3Ag    -3.422829     3B2u   -3.422266     1B3u   -3.418997
       1B1g   -3.418957     4Ag    -0.250954     4B2u   -0.117590
       2B1u    0.020912

    Beta Virtual:

       5Ag     0.068422     2B3u    0.090042     2B3g    0.145730
       2B1g    0.175170     5B2u    0.253102     6Ag     0.418873
       7Ag     0.470636     3B1u    0.484886     3B3u    0.504226
       6B2u    0.512599     3B3g    0.546799     4B1u    0.548630
       3B1g    0.563299     4B3u    0.568793     1B2g    0.572872
       8Ag     0.575120     7B2u    0.639296     1Au     0.656313
       8B2u    0.658356     9Ag     0.787945     4B3g    0.808792
       4B1g    0.827979     9B2u    1.057552

    Final Occupation by Irrep:
             Ag   B1g   B2g   B3g    Au   B1u   B2u   B3u
    DOCC [     4,    1,    0,    1,    0,    2,    4,    1 ]
    SOCC [     1,    1,    0,    0,    0,    0,    0,    1 ]
    NA   [     5,    2,    0,    1,    0,    2,    4,    2 ]
    NB   [     4,    1,    0,    1,    0,    2,    4,    1 ]

  @DF-UKS Final Energy:  -578.89573653621903

   => Energetics <=

    Nuclear Repulsion Energy =             44.4105777404902824
    One-Electron Energy =                -896.6834628245469503
    Two-Electron Energy =                 307.1453186401959101
    DFT Exchange-Correlation Energy =     -33.7681700923581758
    Empirical Dispersion Energy =           0.0000000000000000
    VV10 Nonlocal Energy =                  0.0000000000000000
    Total Energy =                       -578.8957365362190330

  UHF NO Occupations:
  HONO-2 :    2B3u 1.0000000
  HONO-1 :    5 Ag 1.0000000
  HONO-0 :    2B1g 1.0000000
  LUNO+0 :    5B2u 0.0015503
  LUNO+1 :    6 Ag 0.0009276
  LUNO+2 :    3B1u 0.0000711
  LUNO+3 :    6B2u 0.0000000

Computation Completed

Properties will be evaluated at   0.000000,   0.000000,   0.000000 [a0]

Properties computed using the SCF density matrix

 Multipole Moments:

 ------------------------------------------------------------------------------------
     Multipole            Electronic (a.u.)      Nuclear  (a.u.)        Total (a.u.)
 ------------------------------------------------------------------------------------

 L = 1.  Multiply by 2.5417464519 to convert [e a0] to [Debye]
 Dipole X            :          0.0000000            0.0000000            0.0000000
 Dipole Y            :          0.0000000            0.0000000            0.0000000
 Dipole Z            :          0.0000000            0.0000000            0.0000000
 Magnitude           :                                                    0.0000000

 ------------------------------------------------------------------------------------

*** tstop() called on Joses-MacBook-Pro-2.local at Thu Jul 17 11:47:28 2025
Module time:
	user time   =      10.54 seconds =       0.18 minutes
	system time =       2.46 seconds =       0.04 minutes
	total time  =          2 seconds =       0.03 minutes
Total time:
	user time   =     230.67 seconds =       3.84 minutes
	system time =      41.96 seconds =       0.70 minutes
	total time  =         28 seconds =       0.47 minutes

*** tstart() called on Joses-MacBook-Pro-2.local
*** at Thu Jul 17 11:47:28 2025

         ------------------------------------------------------------
                                   SCF GRAD
                          Rob Parrish, Justin Turney,
                       Andy Simmonett, and Alex Sokolov
         ------------------------------------------------------------

  ==> Geometry <==

    Molecular point group: d2h
    Full point group: D_inf_h

    Geometry (in Angstrom), charge = -1, multiplicity = 4:

       Center              X                  Y                   Z               Mass
    ------------   -----------------  -----------------  -----------------  -----------------
         SI          -0.000000000000     1.167725557382     0.000000000000    27.976926534650
         SI           0.000000000000    -1.167725557382     0.000000000000    27.976926534650

  Nuclear repulsion =   44.410577740490282

  ==> Basis Set <==

  Basis Set: CC-PVDZ
    Blend: CC-PVDZ
    Number of shells: 16
    Number of basis functions: 36
    Number of Cartesian functions: 38
    Spherical Harmonics?: true
    Max angular momentum: 2

  ==> DFJKGrad: Density-Fitted SCF Gradients <==

    Gradient:                    1
    J tasked:                  Yes
    K tasked:                  Yes
    wK tasked:                  No
    OpenMP threads:              1
    Integrals threads:           1
    Memory [MiB]:              375
    Schwarz Cutoff:          1E-12
    Fitting Condition:       1E-10

   => Auxiliary Basis Set <=

  Basis Set: (CC-PVDZ AUX)
    Blend: CC-PVDZ-JKFIT
    Number of shells: 72
    Number of basis functions: 224
    Number of Cartesian functions: 260
    Spherical Harmonics?: true
    Max angular momentum: 3

  ==> DFT Potential <==

   => LibXC <=

    Version 6.2.2
    S. Lehtola, C. Steigemann, M. J.T. Oliveira, and M. A.L. Marques.,  SoftwareX 7, 1â€“5 (2018) (10.1016/j.softx.2017.11.002)

   => Composite Functional: B3LYP <=

    B3LYP Hyb-GGA Exchange-Correlation Functional

    P. J. Stephens, F. J. Devlin, C. F. Chabalowski, and M. J. Frisch.,  J. Phys. Chem. 98, 11623 (1994) (10.1021/j100096a001)

    Deriv               =              1
    GGA                 =           TRUE
    Meta                =          FALSE

    Exchange Hybrid     =           TRUE
    MP2 Hybrid          =          FALSE

   => Exchange Functionals <=

    0.0800   Slater exchange
    0.7200         Becke 88

   => Exact (HF) Exchange <=

    0.2000               HF

   => Correlation Functionals <=

    0.1900   Vosko, Wilk & Nusair (VWN5_RPA)
    0.8100   Lee, Yang & Parr

   => LibXC Density Thresholds  <==

    XC_HYB_GGA_XC_B3LYP:  1.00E-15

   => Molecular Quadrature <=

    Radial Scheme          =       TREUTLER
    Pruning Scheme         =           NONE
    Nuclear Scheme         =       TREUTLER

    Blocking Scheme        =         OCTREE
    BS radius alpha        =              1
    Pruning alpha          =              1
    Radial Points          =             75
    Spherical Points       =            302
    Total Points           =          41324
    Total Blocks           =            378
    Max Points             =            251
    Max Functions          =             36
    Weights Tolerance      =       1.00E-15

  -Total Gradient:
     Atom            X                  Y                   Z
    ------   -----------------  -----------------  -----------------
       1        0.000000000000    -0.000043456042     0.000000000000
       2       -0.000000000000     0.000043456042     0.000000000000

*** tstop() called on Joses-MacBook-Pro-2.local at Thu Jul 17 11:47:28 2025
Module time:
	user time   =       5.21 seconds =       0.09 minutes
	system time =       1.28 seconds =       0.02 minutes
	total time  =          0 seconds =       0.00 minutes
Total time:
	user time   =     235.89 seconds =       3.93 minutes
	system time =      43.24 seconds =       0.72 minutes
	total time  =         28 seconds =       0.47 minutes

    			-----------------------------------------

    			 OPTKING 3.0: for geometry optimizations

    			     By R.A. King, Bethel University

    			        with contributions from

    			    A.V. Copan, J. Cayton, A. Heide

    			-----------------------------------------

	                            ===> Fragment 1 <==

	 Z (Atomic Numbers)          Masses                          Geom
	      14.000000            27.976927         -0.00000000  2.20668149  0.00000000
	      14.000000            27.976927          0.00000000 -2.20668149  0.00000000

	 - Coordinate -           - BOHR/RAD -       - ANG/DEG -
	 R(1,2)           =         4.413363           2.335451

	        --- Internal Coordinate Step in ANG or DEG, aJ/ANG or AJ/DEG ---
	-------------------------------------------------------------------------------
	           Coordinate      Previous         Force          Change          New
	           ----------      --------        ------          ------        ------
	               R(1,2)       2.33545        0.00036        0.00023       2.33568
	-------------------------------------------------------------------------------

	                                 ==> Convergence Check <==

	Measures of convergence in internal coordinates in au.

	Criteria marked as inactive (o), active & met (*), and active & unmet ( ).

	----------------------------------------------------------------------------------------------
	   Step    Total Energy     Delta E     Max Force     RMS Force      Max Disp      RMS Disp
	----------------------------------------------------------------------------------------------
	  Convergence Criteria     1.00e-06 *    3.00e-04 *             o    1.20e-03 *             o
	----------------------------------------------------------------------------------------------
	    15    -578.89573654   -3.46e-07 *    4.35e-05 *    4.35e-05 o    4.39e-04 *    4.39e-04 o  ~
	----------------------------------------------------------------------------------------------

Next Geometry in Ang
	Fragment 1 (Ang)

	   Si  -0.0000000000   1.1678418211   0.0000000000
	   Si   0.0000000000  -1.1678418211   0.0000000000

    Final optimized geometry and variables:
    Molecular point group: d2h
    Full point group: D_inf_h

    Geometry (in Angstrom), charge = -1, multiplicity = 4:

    SI          -0.000000000000     1.167725557382     0.000000000000
    SI           0.000000000000    -1.167725557382     0.000000000000

    Psi4 stopped on: Thursday, 17 July 2025 11:47AM
    Psi4 wall time for execution: 0:00:29.29

*** Psi4 exiting successfully. Buy a developer a beer!
