                               Psi4 1.9.1 release

  ==> Input File <==

--------------------------------------------------------------------------
molecule {
-1 4
S   0.00000        0.60000        0.00000
Ar   0.00000       -0.60000        0.00000
}

set {
basis              cc-pvdz
reference          uks
maxiter            500
geom_maxiter       500
DAMPING_PERCENTAGE 1
guess              SAP
}

optimize('b3lyp')
--------------------------------------------------------------------------

    Molecular point group: c2v
  Charge       = -1
  Multiplicity = 4
  Basis Set: CC-PVDZ
    Blend: CC-PVDZ
  Basis Set: (CC-PVDZ AUX)
    Blend: CC-PVDZ-JKFIT
  @DF-UKS Final Energy:  -923.70530052097058
    Total Energy =                       -923.7053005209705816
 Dipole X            :          0.0000000            0.0000000            0.0000000
 Dipole Y            :          0.0000000            0.0000000            0.0000000
 Dipole Z            :         -2.8630298            2.0144189           -0.8486109
 Magnitude           :                                                    0.8486109
    Molecular point group: c2v
  Basis Set: CC-PVDZ
    Blend: CC-PVDZ
  Basis Set: (CC-PVDZ AUX)
    Blend: CC-PVDZ-JKFIT
  Basis Set: CC-PVDZ
    Blend: CC-PVDZ
  Basis Set: (CC-PVDZ AUX)
    Blend: CC-PVDZ-JKFIT
  @DF-UKS Final Energy:  -923.75366282280834
    Total Energy =                       -923.7536628228083373
  Basis Set: CC-PVDZ
    Blend: CC-PVDZ
  Basis Set: (CC-PVDZ AUX)
    Blend: CC-PVDZ-JKFIT
  Basis Set: CC-PVDZ
    Blend: CC-PVDZ
  @DF-UKS Final Energy:  -923.84225855107570
    Total Energy =                       -923.8422585510757017
  @DF-UKS Final Energy:  -924.12202351983797
    Total Energy =                       -924.1220235198379669
  @DF-UKS Final Energy:  -924.64063797413144
    Total Energy =                       -924.6406379741315504
  @DF-UKS Final Energy:  -924.83679636971749
    Total Energy =                       -924.8367963697173764
  @DF-UKS Final Energy:  -924.96680896785767
    Total Energy =                       -924.9668089678576735
  @DF-UKS Final Energy:  -925.02402054267054
    Total Energy =                       -925.0240205426705415
  @DF-UKS Final Energy:  -925.05165682654899
    Total Energy =                       -925.0516568265491060
  @DF-UKS Final Energy:  -925.06459483611661
    Total Energy =                       -925.0645948361166120
  @DF-UKS Final Energy:  -925.07163769400586
    Total Energy =                       -925.0716376940058581
  @DF-UKS Final Energy:  -925.08035539473633
    Total Energy =                       -925.0803553947363298
  @DF-UKS Final Energy:  -925.11061643972255
    Total Energy =                       -925.1106164397225484
  @DF-UKS Final Energy:  -925.11176349541370
    Total Energy =                       -925.1117634954136975
  @DF-UKS Final Energy:  -925.13401174826311
    Total Energy =                       -925.1340117482631058
  @DF-UKS Final Energy:  -925.13547299470974
    Total Energy =                       -925.1354729947097439
  @DF-UKS Final Energy:  -925.16296267485495
    Total Energy =                       -925.1629626748549526
  @DF-UKS Final Energy:  -925.16305214976876
    Total Energy =                       -925.1630521497687596
  Basis Set: (CC-PVDZ AUX)
    Blend: CC-PVDZ-JKFIT
  Basis Set: CC-PVDZ
    Blend: CC-PVDZ
  Basis Set: (CC-PVDZ AUX)
    Blend: CC-PVDZ-JKFIT
  @DF-UKS Final Energy:  -925.16375850600309
    Total Energy =                       -925.1637585060030915
  Basis Set: CC-PVDZ
    Blend: CC-PVDZ
  Basis Set: (CC-PVDZ AUX)
    Blend: CC-PVDZ-JKFIT
  Charge       = -1
  Multiplicity = 4
  Basis Set: CC-PVDZ
    Blend: CC-PVDZ
  Basis Set: (CC-PVDZ AUX)
    Blend: CC-PVDZ-JKFIT

    Orbital Energies [Eh]
    ---------------------

    Alpha Occupied:

       1A1  -114.847966     2A1   -88.588386     3A1   -10.891094
       1B2    -8.441058     1B1    -8.441025     4A1    -8.439929
       5A1    -7.661962     2B2    -5.628734     6A1    -5.628125
       2B1    -5.611053     7A1    -0.737607     8A1    -0.435202
       3B2    -0.200755     3B1    -0.200451     9A1    -0.195586
       4B2    -0.055362    10A1    -0.047701     4B1    -0.009151
      11A1     0.601579

    Alpha Virtual:

      12A1     0.687873     5B2     0.693587     5B1     0.723862
       6B2     0.789418     6B1     0.794295    13A1     0.796567
       7B2     0.817111    14A1     0.841878     1A2     0.842097
       7B1     0.852190    15A1     0.870425    16A1     1.002833
      17A1     1.059616     2A2     1.059638     8B2     1.066481
       8B1     1.066699    18A1     1.082205

    Beta Occupied:

       1A1  -114.845393     2A1   -88.572991     3A1   -10.888584
       1B2    -8.439468     1B1    -8.439442     4A1    -8.432907
       5A1    -7.645667     2B2    -5.605270     2B1    -5.600959
       6A1    -5.597851     7A1    -0.730553     8A1    -0.334467
       3B2    -0.197978     3B1    -0.197698     9A1    -0.181517
       4B1     0.023427

    Beta Virtual:

       4B2     0.101717    10A1     0.121337    11A1     0.720641
      12A1     0.737101     5B1     0.749169     5B2     0.754618
       6B1     0.801843     6B2     0.802620    13A1     0.856346
       1A2     0.901512    14A1     0.906043     7B1     0.913849
       7B2     0.924863    15A1     0.927755    16A1     1.031219
      17A1     1.061275     2A2     1.061297     8B2     1.072319
       8B1     1.072503    18A1     1.096999

    Final Occupation by Irrep:
             A1    A2    B1    B2
    DOCC [     9,    0,    4,    3 ]
    SOCC [     2,    0,    0,    1 ]
    NA   [    11,    0,    4,    4 ]
    NB   [     9,    0,    4,    3 ]

  @DF-UKS Final Energy:  -925.16376116715787

   => Energetics <=

    Nuclear Repulsion Energy =             42.6153087648402504
    One-Electron Energy =               -1371.8659545377554423
    Two-Electron Energy =                 449.8923874164274821
    DFT Exchange-Correlation Energy =     -45.8055028106700775
    Empirical Dispersion Energy =           0.0000000000000000
    VV10 Nonlocal Energy =                  0.0000000000000000
    Total Energy =                       -925.1637611671578725

  UHF NO Occupations:
  HONO-2 :   10 A1 1.0000000
  HONO-1 :    4 B2 1.0000000
  HONO-0 :   11 A1 1.0000000
  LUNO+0 :   12 A1 0.0010218
  LUNO+1 :    5 B1 0.0001948
  LUNO+2 :   13 A1 0.0000318
  LUNO+3 :   14 A1 0.0000080

Computation Completed

Properties will be evaluated at   0.000000,   0.000000,   0.000000 [a0]

Properties computed using the SCF density matrix

 Multipole Moments:

 ------------------------------------------------------------------------------------
     Multipole            Electronic (a.u.)      Nuclear  (a.u.)        Total (a.u.)
 ------------------------------------------------------------------------------------

 L = 1.  Multiply by 2.5417464519 to convert [e a0] to [Debye]
 Dipole X            :          0.0000000            0.0000000            0.0000000
 Dipole Y            :          0.0000000            0.0000000            0.0000000
 Dipole Z            :         -7.3709969            6.0033895           -1.3676074
 Magnitude           :                                                    1.3676074

 ------------------------------------------------------------------------------------

*** tstop() called on Joses-MacBook-Pro-2.local at Thu Jul 17 12:08:18 2025
Module time:
	user time   =       7.99 seconds =       0.13 minutes
	system time =       1.56 seconds =       0.03 minutes
	total time  =          1 seconds =       0.02 minutes
Total time:
	user time   =     241.20 seconds =       4.02 minutes
	system time =      51.04 seconds =       0.85 minutes
	total time  =         27 seconds =       0.45 minutes

*** tstart() called on Joses-MacBook-Pro-2.local
*** at Thu Jul 17 12:08:18 2025

         ------------------------------------------------------------
                                   SCF GRAD
                          Rob Parrish, Justin Turney,
                       Andy Simmonett, and Alex Sokolov
         ------------------------------------------------------------

  ==> Geometry <==

    Molecular point group: c2v
    Full point group: C_inf_v

    Geometry (in Angstrom), charge = -1, multiplicity = 4:

       Center              X                  Y                   Z               Mass
    ------------   -----------------  -----------------  -----------------  -----------------
         S            0.000000000000     0.000000000000     1.986746272478    31.972071174400
         AR           0.000000000000     0.000000000000    -1.589504635710    39.962383123700

  Nuclear repulsion =   42.615308764840250

  ==> Basis Set <==

  Basis Set: CC-PVDZ
    Blend: CC-PVDZ
    Number of shells: 16
    Number of basis functions: 36
    Number of Cartesian functions: 38
    Spherical Harmonics?: true
    Max angular momentum: 2

  ==> DFJKGrad: Density-Fitted SCF Gradients <==

    Gradient:                    1
    J tasked:                  Yes
    K tasked:                  Yes
    wK tasked:                  No
    OpenMP threads:              1
    Integrals threads:           1
    Memory [MiB]:              375
    Schwarz Cutoff:          1E-12
    Fitting Condition:       1E-10

   => Auxiliary Basis Set <=

  Basis Set: (CC-PVDZ AUX)
    Blend: CC-PVDZ-JKFIT
    Number of shells: 72
    Number of basis functions: 224
    Number of Cartesian functions: 260
    Spherical Harmonics?: true
    Max angular momentum: 3

  ==> DFT Potential <==

   => LibXC <=

    Version 6.2.2
    S. Lehtola, C. Steigemann, M. J.T. Oliveira, and M. A.L. Marques.,  SoftwareX 7, 1â€“5 (2018) (10.1016/j.softx.2017.11.002)

   => Composite Functional: B3LYP <=

    B3LYP Hyb-GGA Exchange-Correlation Functional

    P. J. Stephens, F. J. Devlin, C. F. Chabalowski, and M. J. Frisch.,  J. Phys. Chem. 98, 11623 (1994) (10.1021/j100096a001)

    Deriv               =              1
    GGA                 =           TRUE
    Meta                =          FALSE

    Exchange Hybrid     =           TRUE
    MP2 Hybrid          =          FALSE

   => Exchange Functionals <=

    0.0800   Slater exchange
    0.7200         Becke 88

   => Exact (HF) Exchange <=

    0.2000               HF

   => Correlation Functionals <=

    0.1900   Vosko, Wilk & Nusair (VWN5_RPA)
    0.8100   Lee, Yang & Parr

   => LibXC Density Thresholds  <==

    XC_HYB_GGA_XC_B3LYP:  1.00E-15

   => Molecular Quadrature <=

    Radial Scheme          =       TREUTLER
    Pruning Scheme         =           NONE
    Nuclear Scheme         =       TREUTLER

    Blocking Scheme        =         OCTREE
    BS radius alpha        =              1
    Pruning alpha          =              1
    Radial Points          =             75
    Spherical Points       =            302
    Total Points           =          40400
    Total Blocks           =            380
    Max Points             =            254
    Max Functions          =             36
    Weights Tolerance      =       1.00E-15

  -Total Gradient:
     Atom            X                  Y                   Z
    ------   -----------------  -----------------  -----------------
       1        0.000000000000    -0.000000000000    -0.000022565335
       2        0.000000000000    -0.000000000000     0.000019513012

*** tstop() called on Joses-MacBook-Pro-2.local at Thu Jul 17 12:08:18 2025
Module time:
	user time   =       2.33 seconds =       0.04 minutes
	system time =       0.81 seconds =       0.01 minutes
	total time  =          0 seconds =       0.00 minutes
Total time:
	user time   =     243.53 seconds =       4.06 minutes
	system time =      51.85 seconds =       0.86 minutes
	total time  =         27 seconds =       0.45 minutes

    			-----------------------------------------

    			 OPTKING 3.0: for geometry optimizations

    			     By R.A. King, Bethel University

    			        with contributions from

    			    A.V. Copan, J. Cayton, A. Heide

    			-----------------------------------------

	                            ===> Fragment 1 <==

	 Z (Atomic Numbers)          Masses                          Geom
	      16.000000            31.972071          0.00000000  0.00000000  3.75440634
	      18.000000            39.962383          0.00000000  0.00000000 -3.00372844

	 - Coordinate -           - BOHR/RAD -       - ANG/DEG -
	 R(1,2)           =         6.758135           3.576251

	        --- Internal Coordinate Step in ANG or DEG, aJ/ANG or AJ/DEG ---
	-------------------------------------------------------------------------------
	           Coordinate      Previous         Force          Change          New
	           ----------      --------        ------          ------        ------
	               R(1,2)       3.57625        0.00017        0.00026       3.57651
	-------------------------------------------------------------------------------

	                                 ==> Convergence Check <==

	Measures of convergence in internal coordinates in au.

	Criteria marked as inactive (o), active & met (*), and active & unmet ( ).

	----------------------------------------------------------------------------------------------
	   Step    Total Energy     Delta E     Max Force     RMS Force      Max Disp      RMS Disp
	----------------------------------------------------------------------------------------------
	  Convergence Criteria     1.00e-06 *    3.00e-04 *             o    1.20e-03 *             o
	----------------------------------------------------------------------------------------------
	    20    -925.16376117   -2.66e-06      2.10e-05 *    2.10e-05 o    4.86e-04 *    4.86e-04 o  ~
	----------------------------------------------------------------------------------------------

Next Geometry in Ang
	Fragment 1 (Ang)

	    S   0.0000000000   0.0000000000   1.9868749309
	   Ar   0.0000000000   0.0000000000  -1.5896332941

    Final optimized geometry and variables:
    Molecular point group: c2v
    Full point group: C_inf_v

    Geometry (in Angstrom), charge = -1, multiplicity = 4:

    S            0.000000000000     0.000000000000     1.986746272478
    AR           0.000000000000     0.000000000000    -1.589504635710

    Psi4 stopped on: Thursday, 17 July 2025 12:08PM
    Psi4 wall time for execution: 0:00:28.30

*** Psi4 exiting successfully. Buy a developer a beer!
