                               Psi4 1.9.1 release

  ==> Input File <==

--------------------------------------------------------------------------
molecule {
-1 4
C   0.00000        0.60000        0.00000
Si   0.00000       -0.60000        0.00000
}

set {
basis              cc-pvdz
reference          uks
maxiter            500
geom_maxiter       500
DAMPING_PERCENTAGE 1
guess              SAP
}

optimize('b3lyp')
--------------------------------------------------------------------------

    Molecular point group: c2v
  Charge       = -1
  Multiplicity = 4
  Basis Set: CC-PVDZ
    Blend: CC-PVDZ
  Basis Set: (CC-PVDZ AUX)
    Blend: CC-PVDZ-JKFIT
  @DF-UKS Final Energy:  -326.90293028305030
    Total Energy =                       -326.9029302830502957
 Dipole X            :          0.0000000            0.0000000            0.0000000
 Dipole Y            :          0.0000000            0.0000000            0.0000000
 Dipole Z            :         -0.3166681           -0.0078530           -0.3245211
 Magnitude           :                                                    0.3245211
    Molecular point group: c2v
  Basis Set: CC-PVDZ
    Blend: CC-PVDZ
  Basis Set: (CC-PVDZ AUX)
    Blend: CC-PVDZ-JKFIT
  Basis Set: CC-PVDZ
    Blend: CC-PVDZ
  Basis Set: (CC-PVDZ AUX)
    Blend: CC-PVDZ-JKFIT
  @DF-UKS Final Energy:  -327.15981482555713
    Total Energy =                       -327.1598148255571346
  Basis Set: CC-PVDZ
    Blend: CC-PVDZ
  Basis Set: (CC-PVDZ AUX)
    Blend: CC-PVDZ-JKFIT
  Basis Set: CC-PVDZ
    Blend: CC-PVDZ
  @DF-UKS Final Energy:  -327.30282496963827
    Total Energy =                       -327.3028249696382659
  @DF-UKS Final Energy:  -327.35445326347832
    Total Energy =                       -327.3544532634783195
  @DF-UKS Final Energy:  -327.37555249553577
    Total Energy =                       -327.3755524955357714
  @DF-UKS Final Energy:  -327.38067185975291
    Total Energy =                       -327.3806718597529084
  @DF-UKS Final Energy:  -327.38251632548196
    Total Energy =                       -327.3825163254819017
  @DF-UKS Final Energy:  -327.38286726596124
    Total Energy =                       -327.3828672659612948
  @DF-UKS Final Energy:  -327.38294229021710
    Total Energy =                       -327.3829422902171018
  Basis Set: (CC-PVDZ AUX)
    Blend: CC-PVDZ-JKFIT
  Basis Set: CC-PVDZ
    Blend: CC-PVDZ
  Basis Set: (CC-PVDZ AUX)
    Blend: CC-PVDZ-JKFIT
  @DF-UKS Final Energy:  -327.38296228404732
    Total Energy =                       -327.3829622840473235
  Basis Set: CC-PVDZ
    Blend: CC-PVDZ
  Basis Set: (CC-PVDZ AUX)
    Blend: CC-PVDZ-JKFIT
  Charge       = -1
  Multiplicity = 4
  Basis Set: CC-PVDZ
    Blend: CC-PVDZ
  Basis Set: (CC-PVDZ AUX)
    Blend: CC-PVDZ-JKFIT

    Orbital Energies [Eh]
    ---------------------

    Alpha Occupied:

       1A1   -65.899378     2A1    -9.983453     3A1    -5.041748
       1B1    -3.402181     4A1    -3.401416     1B2    -3.397895
       5A1    -0.382646     6A1    -0.163687     2B1    -0.033498
       7A1    -0.028619     2B2     0.003503     3B1     0.095222

    Alpha Virtual:

       3B2     0.172276     8A1     0.270793     9A1     0.468984
       4B1     0.518654     4B2     0.536464    10A1     0.561978
       1A2     0.598835    11A1     0.601222     5B1     0.637648
      12A1     0.638089     5B2     0.661191     6B1     0.737641
       6B2     0.759086    13A1     0.968354    14A1     1.078574
       2A2     1.405271    15A1     1.406179     7B1     1.541816
       7B2     1.562232    16A1     1.890566

    Beta Occupied:

       1A1   -65.896362     2A1    -9.958009     3A1    -5.038436
       1B2    -3.397932     4A1    -3.395785     1B1    -3.392761
       5A1    -0.300335     6A1    -0.091013     2B2     0.030382

    Beta Virtual:

       7A1     0.108172     2B1     0.113414     3B2     0.199003
       3B1     0.238055     8A1     0.299797     9A1     0.489453
       4B2     0.535136     4B1     0.556750    10A1     0.600122
       1A2     0.630448    11A1     0.633186     5B2     0.679768
      12A1     0.687445     5B1     0.706124     6B2     0.789382
       6B1     0.813922    13A1     1.021626    14A1     1.130267
       2A2     1.480843    15A1     1.483321     7B2     1.617672
       7B1     1.641249    16A1     1.960494

    Final Occupation by Irrep:
             A1    A2    B1    B2
    DOCC [     6,    0,    1,    2 ]
    SOCC [     1,    0,    2,    0 ]
    NA   [     7,    0,    3,    2 ]
    NB   [     6,    0,    1,    2 ]

  @DF-UKS Final Energy:  -327.38296433841339

   => Energetics <=

    Nuclear Repulsion Energy =             23.8526353855201769
    One-Electron Energy =                -504.2011790576785870
    Two-Electron Energy =                 174.2392509859169820
    DFT Exchange-Correlation Energy =     -21.2736716521719842
    Empirical Dispersion Energy =           0.0000000000000000
    VV10 Nonlocal Energy =                  0.0000000000000000
    Total Energy =                       -327.3829643384134442

  UHF NO Occupations:
  HONO-2 :    2 B1 1.0000000
  HONO-1 :    3 B1 1.0000000
  HONO-0 :    7 A1 1.0000000
  LUNO+0 :    3 B2 0.0241817
  LUNO+1 :    8 A1 0.0019819
  LUNO+2 :    9 A1 0.0008788
  LUNO+3 :   10 A1 0.0000002

Computation Completed

Properties will be evaluated at   0.000000,   0.000000,   0.000000 [a0]

Properties computed using the SCF density matrix

 Multipole Moments:

 ------------------------------------------------------------------------------------
     Multipole            Electronic (a.u.)      Nuclear  (a.u.)        Total (a.u.)
 ------------------------------------------------------------------------------------

 L = 1.  Multiply by 2.5417464519 to convert [e a0] to [Debye]
 Dipole X            :          0.0000000            0.0000000            0.0000000
 Dipole Y            :          0.0000000            0.0000000            0.0000000
 Dipole Z            :         -0.3044116           -0.0121954           -0.3166071
 Magnitude           :                                                    0.3166071

 ------------------------------------------------------------------------------------

*** tstop() called on Joses-MacBook-Pro-2.local at Thu Jul 17 10:20:42 2025
Module time:
	user time   =       4.05 seconds =       0.07 minutes
	system time =       3.77 seconds =       0.06 minutes
	total time  =          1 seconds =       0.02 minutes
Total time:
	user time   =      65.36 seconds =       1.09 minutes
	system time =      65.20 seconds =       1.09 minutes
	total time  =         13 seconds =       0.22 minutes

*** tstart() called on Joses-MacBook-Pro-2.local
*** at Thu Jul 17 10:20:42 2025

         ------------------------------------------------------------
                                   SCF GRAD
                          Rob Parrish, Justin Turney,
                       Andy Simmonett, and Alex Sokolov
         ------------------------------------------------------------

  ==> Geometry <==

    Molecular point group: c2v
    Full point group: C_inf_v

    Geometry (in Angstrom), charge = -1, multiplicity = 4:

       Center              X                  Y                   Z               Mass
    ------------   -----------------  -----------------  -----------------  -----------------
         C            0.000000000000     0.000000000000     1.304171332647    12.000000000000
         SI           0.000000000000     0.000000000000    -0.559391539038    27.976926534650

  Nuclear repulsion =   23.852635385520177

  ==> Basis Set <==

  Basis Set: CC-PVDZ
    Blend: CC-PVDZ
    Number of shells: 14
    Number of basis functions: 32
    Number of Cartesian functions: 34
    Spherical Harmonics?: true
    Max angular momentum: 2

  ==> DFJKGrad: Density-Fitted SCF Gradients <==

    Gradient:                    1
    J tasked:                  Yes
    K tasked:                  Yes
    wK tasked:                  No
    OpenMP threads:              1
    Integrals threads:           1
    Memory [MiB]:              375
    Schwarz Cutoff:          1E-12
    Fitting Condition:       1E-10

   => Auxiliary Basis Set <=

  Basis Set: (CC-PVDZ AUX)
    Blend: CC-PVDZ-JKFIT
    Number of shells: 60
    Number of basis functions: 182
    Number of Cartesian functions: 211
    Spherical Harmonics?: true
    Max angular momentum: 3

  ==> DFT Potential <==

   => LibXC <=

    Version 6.2.2
    S. Lehtola, C. Steigemann, M. J.T. Oliveira, and M. A.L. Marques.,  SoftwareX 7, 1â€“5 (2018) (10.1016/j.softx.2017.11.002)

   => Composite Functional: B3LYP <=

    B3LYP Hyb-GGA Exchange-Correlation Functional

    P. J. Stephens, F. J. Devlin, C. F. Chabalowski, and M. J. Frisch.,  J. Phys. Chem. 98, 11623 (1994) (10.1021/j100096a001)

    Deriv               =              1
    GGA                 =           TRUE
    Meta                =          FALSE

    Exchange Hybrid     =           TRUE
    MP2 Hybrid          =          FALSE

   => Exchange Functionals <=

    0.0800   Slater exchange
    0.7200         Becke 88

   => Exact (HF) Exchange <=

    0.2000               HF

   => Correlation Functionals <=

    0.1900   Vosko, Wilk & Nusair (VWN5_RPA)
    0.8100   Lee, Yang & Parr

   => LibXC Density Thresholds  <==

    XC_HYB_GGA_XC_B3LYP:  1.00E-15

   => Molecular Quadrature <=

    Radial Scheme          =       TREUTLER
    Pruning Scheme         =           NONE
    Nuclear Scheme         =       TREUTLER

    Blocking Scheme        =         OCTREE
    BS radius alpha        =              1
    Pruning alpha          =              1
    Radial Points          =             75
    Spherical Points       =            302
    Total Points           =          42453
    Total Blocks           =            390
    Max Points             =            255
    Max Functions          =             32
    Weights Tolerance      =       1.00E-15

  -Total Gradient:
     Atom            X                  Y                   Z
    ------   -----------------  -----------------  -----------------
       1       -0.000000000000     0.000000000000    -0.000175773853
       2        0.000000000000     0.000000000000     0.000159774619

*** tstop() called on Joses-MacBook-Pro-2.local at Thu Jul 17 10:20:42 2025
Module time:
	user time   =       0.91 seconds =       0.02 minutes
	system time =       1.17 seconds =       0.02 minutes
	total time  =          0 seconds =       0.00 minutes
Total time:
	user time   =      66.27 seconds =       1.10 minutes
	system time =      66.37 seconds =       1.11 minutes
	total time  =         13 seconds =       0.22 minutes

    			-----------------------------------------

    			 OPTKING 3.0: for geometry optimizations

    			     By R.A. King, Bethel University

    			        with contributions from

    			    A.V. Copan, J. Cayton, A. Heide

    			-----------------------------------------

	                            ===> Fragment 1 <==

	 Z (Atomic Numbers)          Masses                          Geom
	       6.000000            12.000000          0.00000000  0.00000000  2.46452664
	      14.000000            27.976927          0.00000000  0.00000000 -1.05709681

	 - Coordinate -           - BOHR/RAD -       - ANG/DEG -
	 R(1,2)           =         3.521623           1.863563

	        --- Internal Coordinate Step in ANG or DEG, aJ/ANG or AJ/DEG ---
	-------------------------------------------------------------------------------
	           Coordinate      Previous         Force          Change          New
	           ----------      --------        ------          ------        ------
	               R(1,2)       1.86356        0.00138        0.00050       1.86406
	-------------------------------------------------------------------------------

	                                 ==> Convergence Check <==

	Measures of convergence in internal coordinates in au.

	Criteria marked as inactive (o), active & met (*), and active & unmet ( ).

	----------------------------------------------------------------------------------------------
	   Step    Total Energy     Delta E     Max Force     RMS Force      Max Disp      RMS Disp
	----------------------------------------------------------------------------------------------
	  Convergence Criteria     1.00e-06 *    3.00e-04 *             o    1.20e-03 *             o
	----------------------------------------------------------------------------------------------
	    11    -327.38296434   -2.05e-06      1.68e-04 *    1.68e-04 o    9.37e-04 *    9.37e-04 o  ~
	----------------------------------------------------------------------------------------------

Next Geometry in Ang
	Fragment 1 (Ang)

	    C   0.0000000000   0.0000000000   1.3044193159
	   Si   0.0000000000   0.0000000000  -0.5596395223

    Final optimized geometry and variables:
    Molecular point group: c2v
    Full point group: C_inf_v

    Geometry (in Angstrom), charge = -1, multiplicity = 4:

    C            0.000000000000     0.000000000000     1.304171332647
    SI           0.000000000000     0.000000000000    -0.559391539038

    Psi4 stopped on: Thursday, 17 July 2025 10:20AM
    Psi4 wall time for execution: 0:00:14.30

*** Psi4 exiting successfully. Buy a developer a beer!
