                               Psi4 1.9.1 release

  ==> Input File <==

--------------------------------------------------------------------------
molecule {
-1 4
Ne   0.00000        0.60000        0.00000
S   0.00000       -0.60000        0.00000
}

set {
basis              cc-pvdz
reference          uks
maxiter            500
geom_maxiter       500
DAMPING_PERCENTAGE 1
guess              SAP
}

optimize('b3lyp')
--------------------------------------------------------------------------

    Molecular point group: c2v
  Charge       = -1
  Multiplicity = 4
  Basis Set: CC-PVDZ
    Blend: CC-PVDZ
  Basis Set: (CC-PVDZ AUX)
    Blend: CC-PVDZ-JKFIT
  @DF-UKS Final Energy:  -525.76434744683627
    Total Energy =                       -525.7643474468362683
 Dipole X            :          0.0000000            0.0000000            0.0000000
 Dipole Y            :          0.0000000            0.0000000            0.0000000
 Dipole Z            :          2.2952593           -0.0069094            2.2883499
 Magnitude           :                                                    2.2883499
    Molecular point group: c2v
  Basis Set: CC-PVDZ
    Blend: CC-PVDZ
  Basis Set: (CC-PVDZ AUX)
    Blend: CC-PVDZ-JKFIT
  Basis Set: CC-PVDZ
    Blend: CC-PVDZ
  Basis Set: (CC-PVDZ AUX)
    Blend: CC-PVDZ-JKFIT
  @DF-UKS Final Energy:  -526.01667474944963
    Total Energy =                       -526.0166747494496349
  Basis Set: CC-PVDZ
    Blend: CC-PVDZ
  Basis Set: (CC-PVDZ AUX)
    Blend: CC-PVDZ-JKFIT
  Basis Set: CC-PVDZ
    Blend: CC-PVDZ
  @DF-UKS Final Energy:  -526.25127509144340
    Total Energy =                       -526.2512750914434037
  @DF-UKS Final Energy:  -526.37738022541748
    Total Energy =                       -526.3773802254174825
  @DF-UKS Final Energy:  -526.41502425975489
    Total Energy =                       -526.4150242597548868
  @DF-UKS Final Energy:  -526.43069690032780
    Total Energy =                       -526.4306969003278027
  @DF-UKS Final Energy:  -526.43730760748110
    Total Energy =                       -526.4373076074811024
  @DF-UKS Final Energy:  -526.45221323639021
    Total Energy =                       -526.4522132363902074
  @DF-UKS Final Energy:  -526.47933374239574
    Total Energy =                       -526.4793337423957382
  @DF-UKS Final Energy:  -526.47956878361856
    Total Energy =                       -526.4795687836185607
  @DF-UKS Final Energy:  -526.48252933128094
    Total Energy =                       -526.4825293312809436
  @DF-UKS Final Energy:  -526.48335397913809
    Total Energy =                       -526.4833539791380872
  @DF-UKS Final Energy:  -526.48350920555936
    Total Energy =                       -526.4835092055593577
  Basis Set: (CC-PVDZ AUX)
    Blend: CC-PVDZ-JKFIT
  Basis Set: CC-PVDZ
    Blend: CC-PVDZ
  Basis Set: (CC-PVDZ AUX)
    Blend: CC-PVDZ-JKFIT
  @DF-UKS Final Energy:  -526.48351782759141
    Total Energy =                       -526.4835178275914132
  Basis Set: CC-PVDZ
    Blend: CC-PVDZ
  Basis Set: (CC-PVDZ AUX)
    Blend: CC-PVDZ-JKFIT
  Charge       = -1
  Multiplicity = 4
  Basis Set: CC-PVDZ
    Blend: CC-PVDZ
  Basis Set: (CC-PVDZ AUX)
    Blend: CC-PVDZ-JKFIT

    Orbital Energies [Eh]
    ---------------------

    Alpha Occupied:

       1A1   -88.536245     2A1   -30.793857     3A1    -7.610302
       4A1    -5.574315     1B1    -5.574290     1B2    -5.557013
       5A1    -1.260436     6A1    -0.392318     2B1    -0.369516
       2B2    -0.369338     7A1    -0.367203     3B1    -0.011033
       8A1    -0.009980     3B2     0.034463     9A1     0.659847

    Alpha Virtual:

      10A1     0.727975     4B1     0.728210     4B2     0.761560
      11A1     0.857817     5B1     0.858190     1A2     0.894972
       5B2     0.895189    12A1     0.908451     6B1     1.528602
       6B2     1.529004    13A1     1.561421    14A1     2.004676
       2A2     4.896124    15A1     4.896334     7B1     4.897334
       7B2     4.897436    16A1     4.898453

    Beta Occupied:

       1A1   -88.518572     2A1   -30.793353     3A1    -7.590222
       1B1    -5.548717     4A1    -5.548528     1B2    -5.544385
       5A1    -1.259778     2B1    -0.369227     2B2    -0.369062
       6A1    -0.366691     7A1    -0.282984     3B2     0.074200

    Beta Virtual:

       3B1     0.150576     8A1     0.151973     9A1     0.786442
       4B2     0.803391    10A1     0.808640     4B1     0.809698
       1A2     0.956545     5B2     0.956863    11A1     0.959526
      12A1     0.966528     5B1     0.966924     6B1     1.528582
       6B2     1.528967    13A1     1.563830    14A1     2.006081
       2A2     4.896319    15A1     4.896530     7B1     4.897948
       7B2     4.898044    16A1     4.899204

    Final Occupation by Irrep:
             A1    A2    B1    B2
    DOCC [     7,    0,    2,    3 ]
    SOCC [     2,    0,    1,    0 ]
    NA   [     9,    0,    3,    3 ]
    NB   [     7,    0,    2,    3 ]

  @DF-UKS Final Energy:  -526.48351872412866

   => Energetics <=

    Nuclear Repulsion Energy =             26.0637647526681917
    One-Electron Energy =                -791.1382048132855971
    Two-Electron Energy =                 269.6119473206032353
    DFT Exchange-Correlation Energy =     -31.0210259841143774
    Empirical Dispersion Energy =           0.0000000000000000
    VV10 Nonlocal Energy =                  0.0000000000000000
    Total Energy =                       -526.4835187241286576

  UHF NO Occupations:
  HONO-2 :    8 A1 1.0000000
  HONO-1 :    3 B1 1.0000000
  HONO-0 :    9 A1 1.0000000
  LUNO+0 :   10 A1 0.0008210
  LUNO+1 :    4 B2 0.0000364
  LUNO+2 :   11 A1 0.0000008
  LUNO+3 :    4 B1 0.0000002

Computation Completed

Properties will be evaluated at   0.000000,   0.000000,   0.000000 [a0]

Properties computed using the SCF density matrix

 Multipole Moments:

 ------------------------------------------------------------------------------------
     Multipole            Electronic (a.u.)      Nuclear  (a.u.)        Total (a.u.)
 ------------------------------------------------------------------------------------

 L = 1.  Multiply by 2.5417464519 to convert [e a0] to [Debye]
 Dipole X            :          0.0000000            0.0000000            0.0000000
 Dipole Y            :          0.0000000            0.0000000            0.0000000
 Dipole Z            :          2.1814766           -0.0187043            2.1627723
 Magnitude           :                                                    2.1627723

 ------------------------------------------------------------------------------------

*** tstop() called on Joses-MacBook-Pro-2.local at Thu Jul 17 11:03:09 2025
Module time:
	user time   =       3.78 seconds =       0.06 minutes
	system time =       4.02 seconds =       0.07 minutes
	total time  =          1 seconds =       0.02 minutes
Total time:
	user time   =      82.58 seconds =       1.38 minutes
	system time =      93.73 seconds =       1.56 minutes
	total time  =         18 seconds =       0.30 minutes

*** tstart() called on Joses-MacBook-Pro-2.local
*** at Thu Jul 17 11:03:09 2025

         ------------------------------------------------------------
                                   SCF GRAD
                          Rob Parrish, Justin Turney,
                       Andy Simmonett, and Alex Sokolov
         ------------------------------------------------------------

  ==> Geometry <==

    Molecular point group: c2v
    Full point group: C_inf_v

    Geometry (in Angstrom), charge = -1, multiplicity = 4:

       Center              X                  Y                   Z               Mass
    ------------   -----------------  -----------------  -----------------  -----------------
         NE           0.000000000000     0.000000000000     1.998701284951    19.992440176200
         S            0.000000000000     0.000000000000    -1.249806922158    31.972071174400

  Nuclear repulsion =   26.063764752668192

  ==> Basis Set <==

  Basis Set: CC-PVDZ
    Blend: CC-PVDZ
    Number of shells: 14
    Number of basis functions: 32
    Number of Cartesian functions: 34
    Spherical Harmonics?: true
    Max angular momentum: 2

  ==> DFJKGrad: Density-Fitted SCF Gradients <==

    Gradient:                    1
    J tasked:                  Yes
    K tasked:                  Yes
    wK tasked:                  No
    OpenMP threads:              1
    Integrals threads:           1
    Memory [MiB]:              375
    Schwarz Cutoff:          1E-12
    Fitting Condition:       1E-10

   => Auxiliary Basis Set <=

  Basis Set: (CC-PVDZ AUX)
    Blend: CC-PVDZ-JKFIT
    Number of shells: 60
    Number of basis functions: 182
    Number of Cartesian functions: 211
    Spherical Harmonics?: true
    Max angular momentum: 3

  ==> DFT Potential <==

   => LibXC <=

    Version 6.2.2
    S. Lehtola, C. Steigemann, M. J.T. Oliveira, and M. A.L. Marques.,  SoftwareX 7, 1â€“5 (2018) (10.1016/j.softx.2017.11.002)

   => Composite Functional: B3LYP <=

    B3LYP Hyb-GGA Exchange-Correlation Functional

    P. J. Stephens, F. J. Devlin, C. F. Chabalowski, and M. J. Frisch.,  J. Phys. Chem. 98, 11623 (1994) (10.1021/j100096a001)

    Deriv               =              1
    GGA                 =           TRUE
    Meta                =          FALSE

    Exchange Hybrid     =           TRUE
    MP2 Hybrid          =          FALSE

   => Exchange Functionals <=

    0.0800   Slater exchange
    0.7200         Becke 88

   => Exact (HF) Exchange <=

    0.2000               HF

   => Correlation Functionals <=

    0.1900   Vosko, Wilk & Nusair (VWN5_RPA)
    0.8100   Lee, Yang & Parr

   => LibXC Density Thresholds  <==

    XC_HYB_GGA_XC_B3LYP:  1.00E-15

   => Molecular Quadrature <=

    Radial Scheme          =       TREUTLER
    Pruning Scheme         =           NONE
    Nuclear Scheme         =       TREUTLER

    Blocking Scheme        =         OCTREE
    BS radius alpha        =              1
    Pruning alpha          =              1
    Radial Points          =             75
    Spherical Points       =            302
    Total Points           =          42309
    Total Blocks           =            387
    Max Points             =            256
    Max Functions          =             32
    Weights Tolerance      =       1.00E-15

  -Total Gradient:
     Atom            X                  Y                   Z
    ------   -----------------  -----------------  -----------------
       1        0.000000000000     0.000000000000    -0.000012785177
       2       -0.000000000000     0.000000000000     0.000014523571

*** tstop() called on Joses-MacBook-Pro-2.local at Thu Jul 17 11:03:09 2025
Module time:
	user time   =       1.06 seconds =       0.02 minutes
	system time =       0.99 seconds =       0.02 minutes
	total time  =          0 seconds =       0.00 minutes
Total time:
	user time   =      83.65 seconds =       1.39 minutes
	system time =      94.72 seconds =       1.58 minutes
	total time  =         18 seconds =       0.30 minutes

    			-----------------------------------------

    			 OPTKING 3.0: for geometry optimizations

    			     By R.A. King, Bethel University

    			        with contributions from

    			    A.V. Copan, J. Cayton, A. Heide

    			-----------------------------------------

	                            ===> Fragment 1 <==

	 Z (Atomic Numbers)          Masses                          Geom
	      10.000000            19.992440          0.00000000  0.00000000  3.77699804
	      16.000000            31.972071          0.00000000  0.00000000 -2.36179279

	 - Coordinate -           - BOHR/RAD -       - ANG/DEG -
	 R(1,2)           =         6.138791           3.248508

	        --- Internal Coordinate Step in ANG or DEG, aJ/ANG or AJ/DEG ---
	-------------------------------------------------------------------------------
	           Coordinate      Previous         Force          Change          New
	           ----------      --------        ------          ------        ------
	               R(1,2)       3.24851        0.00011        0.00106       3.24956
	-------------------------------------------------------------------------------

	                                 ==> Convergence Check <==

	Measures of convergence in internal coordinates in au.

	Criteria marked as inactive (o), active & met (*), and active & unmet ( ).

	----------------------------------------------------------------------------------------------
	   Step    Total Energy     Delta E     Max Force     RMS Force      Max Disp      RMS Disp
	----------------------------------------------------------------------------------------------
	  Convergence Criteria     1.00e-06 *    3.00e-04 *             o    1.20e-03 *             o
	----------------------------------------------------------------------------------------------
	    15    -526.48351872   -8.97e-07 *    1.37e-05 *    1.37e-05 o    2.00e-03      2.00e-03 o  ~
	----------------------------------------------------------------------------------------------

Next Geometry in Ang
	Fragment 1 (Ang)

	   Ne   0.0000000000   0.0000000000   1.9992296261
	    S   0.0000000000   0.0000000000  -1.2503352633

    Final optimized geometry and variables:
    Molecular point group: c2v
    Full point group: C_inf_v

    Geometry (in Angstrom), charge = -1, multiplicity = 4:

    NE           0.000000000000     0.000000000000     1.998701284951
    S            0.000000000000     0.000000000000    -1.249806922158

    Psi4 stopped on: Thursday, 17 July 2025 11:03AM
    Psi4 wall time for execution: 0:00:18.63

*** Psi4 exiting successfully. Buy a developer a beer!
