                               Psi4 1.9.1 release

  ==> Input File <==

--------------------------------------------------------------------------
molecule {
-1 4
Li   0.00000        0.60000        0.00000
Cl   0.00000       -0.60000        0.00000
}

set {
basis              cc-pvdz
reference          uks
maxiter            500
geom_maxiter       500
DAMPING_PERCENTAGE 1
guess              SAP
}

optimize('b3lyp')
--------------------------------------------------------------------------

    Molecular point group: c2v
  Charge       = -1
  Multiplicity = 4
  Basis Set: CC-PVDZ
    Blend: CC-PVDZ
  Basis Set: (CC-PVDZ AUX)
    Blend: CC-PVDZ-JKFIT + DEF2-UNIVERSAL-JKFIT
  @DF-UKS Final Energy:  -467.15343186028201
    Total Energy =                       -467.1534318602819553
 Dipole X            :          0.0000000            0.0000000            0.0000000
 Dipole Y            :          0.0000000            0.0000000            0.0000000
 Dipole Z            :         -2.5788040           -0.7759044           -3.3547083
 Magnitude           :                                                    3.3547083
    Molecular point group: c2v
  Basis Set: CC-PVDZ
    Blend: CC-PVDZ
  Basis Set: (CC-PVDZ AUX)
    Blend: CC-PVDZ-JKFIT + DEF2-UNIVERSAL-JKFIT
  Basis Set: CC-PVDZ
    Blend: CC-PVDZ
  Basis Set: (CC-PVDZ AUX)
    Blend: CC-PVDZ-JKFIT + DEF2-UNIVERSAL-JKFIT
  @DF-UKS Final Energy:  -467.29425260586834
    Total Energy =                       -467.2942526058683939
  Basis Set: CC-PVDZ
    Blend: CC-PVDZ
  Basis Set: (CC-PVDZ AUX)
    Blend: CC-PVDZ-JKFIT + DEF2-UNIVERSAL-JKFIT
  Basis Set: CC-PVDZ
    Blend: CC-PVDZ
  @DF-UKS Final Energy:  -467.41763261188225
    Total Energy =                       -467.4176326118822544
  @DF-UKS Final Energy:  -467.50114520241499
    Total Energy =                       -467.5011452024150458
  @DF-UKS Final Energy:  -467.55340800708143
    Total Energy =                       -467.5534080070814298
  @DF-UKS Final Energy:  -467.58202364865207
    Total Energy =                       -467.5820236486520685
  @DF-UKS Final Energy:  -467.59949788953543
    Total Energy =                       -467.5994978895354279
  @DF-UKS Final Energy:  -467.61087941061675
    Total Energy =                       -467.6108794106166897
  @DF-UKS Final Energy:  -467.61916146069507
    Total Energy =                       -467.6191614606950679
  @DF-UKS Final Energy:  -467.62564418627562
    Total Energy =                       -467.6256441862755651
  @DF-UKS Final Energy:  -467.62595780525641
    Total Energy =                       -467.6259578052564052
  @DF-UKS Final Energy:  -467.63092724096856
    Total Energy =                       -467.6309272409685605
  @DF-UKS Final Energy:  -467.63106346221230
    Total Energy =                       -467.6310634622122961
  @DF-UKS Final Energy:  -467.63390670183264
    Total Energy =                       -467.6339067018327000
  @DF-UKS Final Energy:  -467.63395953787597
    Total Energy =                       -467.6339595378759668
  @DF-UKS Final Energy:  -467.63550234281519
    Total Energy =                       -467.6355023428151867
  @DF-UKS Final Energy:  -467.63552104812942
    Total Energy =                       -467.6355210481294193
  @DF-UKS Final Energy:  -467.63635226643726
    Total Energy =                       -467.6363522664372567
  @DF-UKS Final Energy:  -467.63635850014555
    Total Energy =                       -467.6363585001455476
  @DF-UKS Final Energy:  -467.63636465957597
    Total Energy =                       -467.6363646595759178
  @DF-UKS Final Energy:  -467.63679775179929
    Total Energy =                       -467.6367977517993495
  @DF-UKS Final Energy:  -467.63679966011966
    Total Energy =                       -467.6367996601196637
  @DF-UKS Final Energy:  -467.63680155510190
    Total Energy =                       -467.6368015551018971
  @DF-UKS Final Energy:  -467.63680343572014
    Total Energy =                       -467.6368034357201395
  @DF-UKS Final Energy:  -467.63680530209353
    Total Energy =                       -467.6368053020935349
  Basis Set: (CC-PVDZ AUX)
    Blend: CC-PVDZ-JKFIT + DEF2-UNIVERSAL-JKFIT
  Basis Set: CC-PVDZ
    Blend: CC-PVDZ
  Basis Set: (CC-PVDZ AUX)
    Blend: CC-PVDZ-JKFIT + DEF2-UNIVERSAL-JKFIT
  @DF-UKS Final Energy:  -467.63701426516553
    Total Energy =                       -467.6370142651655328
  Basis Set: CC-PVDZ
    Blend: CC-PVDZ
  Basis Set: (CC-PVDZ AUX)
    Blend: CC-PVDZ-JKFIT + DEF2-UNIVERSAL-JKFIT
  Charge       = -1
  Multiplicity = 4
  Basis Set: CC-PVDZ
    Blend: CC-PVDZ
  Basis Set: (CC-PVDZ AUX)
    Blend: CC-PVDZ-JKFIT + DEF2-UNIVERSAL-JKFIT

    Orbital Energies [Eh]
    ---------------------

    Alpha Occupied:

       1A1  -101.498086     2A1    -9.412068     3A1    -7.185851
       1B2    -7.162307     1B1    -7.162272     4A1    -1.866732
       5A1    -0.749301     6A1    -0.310759     2B2    -0.256438
       2B1    -0.256096     7A1     0.009463     3B1     0.058720

    Alpha Virtual:

       3B2     0.097747     8A1     0.097773     4B1     0.193695
       4B2     0.206539     9A1     0.206672    10A1     0.210188
       5B1     0.363138     1A2     0.363789    11A1     0.364632
      12A1     0.370803     5B2     0.372616    13A1     0.603307
       6B2     0.624557     6B1     0.625202    14A1     0.709933
      15A1     0.750127     7B2     0.761216     7B1     0.761401
       2A2     0.804686    16A1     0.804725

    Beta Occupied:

       1A1  -101.491328     2A1    -9.405389     3A1    -7.163872
       1B2    -7.158291     1B1    -7.158236     4A1    -1.860341
       5A1    -0.695869     2B2    -0.240506     2B1    -0.240103

    Beta Virtual:

       6A1    -0.149187     7A1     0.093544     8A1     0.128187
       3B2     0.128968     3B1     0.134062     4B2     0.225824
       9A1     0.226171     4B1     0.236574    10A1     0.238736
      11A1     0.409865     5B2     0.412210     1A2     0.424121
       5B1     0.424371    12A1     0.427987     6B2     0.631773
       6B1     0.632496    13A1     0.645989    14A1     0.735229
       2A2     0.813082    15A1     0.813116     7B2     0.818949
       7B1     0.819178    16A1     0.828787

    Final Occupation by Irrep:
             A1    A2    B1    B2
    DOCC [     5,    0,    2,    2 ]
    SOCC [     2,    0,    1,    0 ]
    NA   [     7,    0,    3,    2 ]
    NB   [     5,    0,    2,    2 ]

  @DF-UKS Final Energy:  -467.63701477553525

   => Energetics <=

    Nuclear Repulsion Energy =              5.2675556895116751
    One-Electron Energy =                -657.3257895839265075
    Two-Electron Energy =                 208.7051577495734875
    DFT Exchange-Correlation Energy =     -24.2839386306939886
    Empirical Dispersion Energy =           0.0000000000000000
    VV10 Nonlocal Energy =                  0.0000000000000000
    Total Energy =                       -467.6370147755353059

  UHF NO Occupations:
  HONO-2 :    6 A1 1.0000000
  HONO-1 :    7 A1 1.0000000
  HONO-0 :    3 B1 1.0000000
  LUNO+0 :    8 A1 0.0008616
  LUNO+1 :    4 B1 0.0000292
  LUNO+2 :    3 B2 0.0000288
  LUNO+3 :    9 A1 0.0000004

Computation Completed

Properties will be evaluated at   0.000000,   0.000000,   0.000000 [a0]

Properties computed using the SCF density matrix

 Multipole Moments:

 ------------------------------------------------------------------------------------
     Multipole            Electronic (a.u.)      Nuclear  (a.u.)        Total (a.u.)
 ------------------------------------------------------------------------------------

 L = 1.  Multiply by 2.5417464519 to convert [e a0] to [Debye]
 Dipole X            :          0.0000000            0.0000000            0.0000000
 Dipole Y            :          0.0000000            0.0000000            0.0000000
 Dipole Z            :         -4.6803330           -3.3127536           -7.9930865
 Magnitude           :                                                    7.9930865

 ------------------------------------------------------------------------------------

*** tstop() called on Joses-MacBook-Pro-2.local at Thu Jul 17 09:37:09 2025
Module time:
	user time   =       2.11 seconds =       0.04 minutes
	system time =       2.43 seconds =       0.04 minutes
	total time  =          0 seconds =       0.00 minutes
Total time:
	user time   =     118.21 seconds =       1.97 minutes
	system time =     130.84 seconds =       2.18 minutes
	total time  =         23 seconds =       0.38 minutes

*** tstart() called on Joses-MacBook-Pro-2.local
*** at Thu Jul 17 09:37:09 2025

         ------------------------------------------------------------
                                   SCF GRAD
                          Rob Parrish, Justin Turney,
                       Andy Simmonett, and Alex Sokolov
         ------------------------------------------------------------

  ==> Geometry <==

    Molecular point group: c2v
    Full point group: C_inf_v

    Geometry (in Angstrom), charge = -1, multiplicity = 4:

       Center              X                  Y                   Z               Mass
    ------------   -----------------  -----------------  -----------------  -----------------
         LI           0.000000000000     0.000000000000     4.267277515203     7.016003436600
         CL           0.000000000000     0.000000000000    -0.856168601923    34.968852682000

  Nuclear repulsion =    5.267555689511675

  ==> Basis Set <==

  Basis Set: CC-PVDZ
    Blend: CC-PVDZ
    Number of shells: 14
    Number of basis functions: 32
    Number of Cartesian functions: 34
    Spherical Harmonics?: true
    Max angular momentum: 2

  ==> DFJKGrad: Density-Fitted SCF Gradients <==

    Gradient:                    1
    J tasked:                  Yes
    K tasked:                  Yes
    wK tasked:                  No
    OpenMP threads:              1
    Integrals threads:           1
    Memory [MiB]:              375
    Schwarz Cutoff:          1E-12
    Fitting Condition:       1E-10

   => Auxiliary Basis Set <=

  Basis Set: (CC-PVDZ AUX)
    Blend: CC-PVDZ-JKFIT + DEF2-UNIVERSAL-JKFIT
    Number of shells: 53
    Number of basis functions: 163
    Number of Cartesian functions: 190
    Spherical Harmonics?: true
    Max angular momentum: 3

  ==> DFT Potential <==

   => LibXC <=

    Version 6.2.2
    S. Lehtola, C. Steigemann, M. J.T. Oliveira, and M. A.L. Marques.,  SoftwareX 7, 1â€“5 (2018) (10.1016/j.softx.2017.11.002)

   => Composite Functional: B3LYP <=

    B3LYP Hyb-GGA Exchange-Correlation Functional

    P. J. Stephens, F. J. Devlin, C. F. Chabalowski, and M. J. Frisch.,  J. Phys. Chem. 98, 11623 (1994) (10.1021/j100096a001)

    Deriv               =              1
    GGA                 =           TRUE
    Meta                =          FALSE

    Exchange Hybrid     =           TRUE
    MP2 Hybrid          =          FALSE

   => Exchange Functionals <=

    0.0800   Slater exchange
    0.7200         Becke 88

   => Exact (HF) Exchange <=

    0.2000               HF

   => Correlation Functionals <=

    0.1900   Vosko, Wilk & Nusair (VWN5_RPA)
    0.8100   Lee, Yang & Parr

   => LibXC Density Thresholds  <==

    XC_HYB_GGA_XC_B3LYP:  1.00E-15

   => Molecular Quadrature <=

    Radial Scheme          =       TREUTLER
    Pruning Scheme         =           NONE
    Nuclear Scheme         =       TREUTLER

    Blocking Scheme        =         OCTREE
    BS radius alpha        =              1
    Pruning alpha          =              1
    Radial Points          =             75
    Spherical Points       =            302
    Total Points           =          44412
    Total Blocks           =            468
    Max Points             =            255
    Max Functions          =             32
    Weights Tolerance      =       1.00E-15

  -Total Gradient:
     Atom            X                  Y                   Z
    ------   -----------------  -----------------  -----------------
       1        0.000000000000     0.000000000000    -0.000240175320
       2       -0.000000000000     0.000000000000     0.000235460962

*** tstop() called on Joses-MacBook-Pro-2.local at Thu Jul 17 09:37:10 2025
Module time:
	user time   =       0.66 seconds =       0.01 minutes
	system time =       1.58 seconds =       0.03 minutes
	total time  =          1 seconds =       0.02 minutes
Total time:
	user time   =     118.87 seconds =       1.98 minutes
	system time =     132.42 seconds =       2.21 minutes
	total time  =         24 seconds =       0.40 minutes

    			-----------------------------------------

    			 OPTKING 3.0: for geometry optimizations

    			     By R.A. King, Bethel University

    			        with contributions from

    			    A.V. Copan, J. Cayton, A. Heide

    			-----------------------------------------

	                            ===> Fragment 1 <==

	 Z (Atomic Numbers)          Masses                          Geom
	       3.000000             7.016003          0.00000000  0.00000000  8.06398581
	      17.000000            34.968853          0.00000000  0.00000000 -1.61792417

	 - Coordinate -           - BOHR/RAD -       - ANG/DEG -
	 R(1,2)           =         9.681910           5.123446

	        --- Internal Coordinate Step in ANG or DEG, aJ/ANG or AJ/DEG ---
	-------------------------------------------------------------------------------
	           Coordinate      Previous         Force          Change          New
	           ----------      --------        ------          ------        ------
	               R(1,2)       5.12345        0.00196        0.00109       5.12454
	-------------------------------------------------------------------------------

	                                 ==> Convergence Check <==

	Measures of convergence in internal coordinates in au.

	Criteria marked as inactive (o), active & met (*), and active & unmet ( ).

	----------------------------------------------------------------------------------------------
	   Step    Total Energy     Delta E     Max Force     RMS Force      Max Disp      RMS Disp
	----------------------------------------------------------------------------------------------
	  Convergence Criteria     1.00e-06 *    3.00e-04 *             o    1.20e-03 *             o
	----------------------------------------------------------------------------------------------
	    27    -467.63701478   -5.10e-07 *    2.38e-04 *    2.38e-04 o    2.06e-03      2.06e-03 o  ~
	----------------------------------------------------------------------------------------------

Next Geometry in Ang
	Fragment 1 (Ang)

	   Li   0.0000000000   0.0000000000   4.2678234421
	   Cl   0.0000000000   0.0000000000  -0.8567145288

    Final optimized geometry and variables:
    Molecular point group: c2v
    Full point group: C_inf_v

    Geometry (in Angstrom), charge = -1, multiplicity = 4:

    LI           0.000000000000     0.000000000000     4.267277515203
    CL           0.000000000000     0.000000000000    -0.856168601923

    Psi4 stopped on: Thursday, 17 July 2025 09:37AM
    Psi4 wall time for execution: 0:00:24.89

*** Psi4 exiting successfully. Buy a developer a beer!
