                               Psi4 1.9.1 release

  ==> Input File <==

--------------------------------------------------------------------------
molecule {
-1 4
P   0.00000        0.60000        0.00000
Cl   0.00000       -0.60000        0.00000
}

set {
basis              cc-pvdz
reference          uks
maxiter            500
geom_maxiter       500
DAMPING_PERCENTAGE 1
guess              SAP
}

optimize('b3lyp')
--------------------------------------------------------------------------

    Molecular point group: c2v
  Charge       = -1
  Multiplicity = 4
  Basis Set: CC-PVDZ
    Blend: CC-PVDZ
  Basis Set: (CC-PVDZ AUX)
    Blend: CC-PVDZ-JKFIT
  @DF-UKS Final Energy:  -800.10604779221819
    Total Energy =                       -800.1060477922181917
 Dipole X            :          0.0000000            0.0000000            0.0000000
 Dipole Y            :          0.0000000            0.0000000            0.0000000
 Dipole Z            :         -1.7762361           -0.0695049           -1.8457410
 Magnitude           :                                                    1.8457410
    Molecular point group: c2v
  Basis Set: CC-PVDZ
    Blend: CC-PVDZ
  Basis Set: (CC-PVDZ AUX)
    Blend: CC-PVDZ-JKFIT
  Basis Set: CC-PVDZ
    Blend: CC-PVDZ
  Basis Set: (CC-PVDZ AUX)
    Blend: CC-PVDZ-JKFIT
  @DF-UKS Final Energy:  -800.14922289687217
    Total Energy =                       -800.1492228968722884
  Basis Set: CC-PVDZ
    Blend: CC-PVDZ
  Basis Set: (CC-PVDZ AUX)
    Blend: CC-PVDZ-JKFIT
  Basis Set: CC-PVDZ
    Blend: CC-PVDZ
  @DF-UKS Final Energy:  -800.22906940488087
    Total Energy =                       -800.2290694048808746
  @DF-UKS Final Energy:  -800.48674219190298
    Total Energy =                       -800.4867421919027493
  @DF-UKS Final Energy:  -801.01132472358165
    Total Energy =                       -801.0113247235816516
  @DF-UKS Final Energy:  -801.20364668898708
    Total Energy =                       -801.2036466889869644
  @DF-UKS Final Energy:  -801.34345519736087
    Total Energy =                       -801.3434551973607540
  @DF-UKS Final Energy:  -801.44063610320700
    Total Energy =                       -801.4406361032071118
  @DF-UKS Final Energy:  -801.50664201873508
    Total Energy =                       -801.5066420187349649
  @DF-UKS Final Energy:  -801.54038003968833
    Total Energy =                       -801.5403800396883298
  @DF-UKS Final Energy:  -801.55617800646519
    Total Energy =                       -801.5561780064651884
  @DF-UKS Final Energy:  -801.56270164100761
    Total Energy =                       -801.5627016410074930
  @DF-UKS Final Energy:  -801.56497410582381
    Total Energy =                       -801.5649741058238078
  @DF-UKS Final Energy:  -801.56554824612624
    Total Energy =                       -801.5655482461262409
  @DF-UKS Final Energy:  -801.56562026931238
    Total Energy =                       -801.5656202693123760
  @DF-UKS Final Energy:  -801.56563013884670
    Total Energy =                       -801.5656301388467000
  Basis Set: (CC-PVDZ AUX)
    Blend: CC-PVDZ-JKFIT
  Basis Set: CC-PVDZ
    Blend: CC-PVDZ
  Basis Set: (CC-PVDZ AUX)
    Blend: CC-PVDZ-JKFIT
  @DF-UKS Final Energy:  -801.56563151434682
    Total Energy =                       -801.5656315143468191
  Basis Set: CC-PVDZ
    Blend: CC-PVDZ
  Basis Set: (CC-PVDZ AUX)
    Blend: CC-PVDZ-JKFIT
  Charge       = -1
  Multiplicity = 4
  Basis Set: CC-PVDZ
    Blend: CC-PVDZ
  Basis Set: (CC-PVDZ AUX)
    Blend: CC-PVDZ-JKFIT

    Orbital Energies [Eh]
    ---------------------

    Alpha Occupied:

       1A1  -101.236183     2A1   -76.897706     3A1    -9.149622
       4A1    -6.909449     1B1    -6.905369     1B2    -6.905369
       5A1    -6.364417     2B2    -4.528528     2B1    -4.528528
       6A1    -4.525751     7A1    -0.497974     8A1    -0.377238
       9A1    -0.080473     3B1    -0.057006     3B2    -0.057006
       4B1    -0.028276     4B2    -0.028276    10A1     0.014673

    Alpha Virtual:

      11A1     0.532020     5B2     0.593987     5B1     0.593987
      12A1     0.611024    13A1     0.642052     1A2     0.642055
       6B2     0.643363     6B1     0.643363    14A1     0.670999
       7B2     0.834470     7B1     0.834470    15A1     0.840143
      16A1     0.969524     8B2     1.030386     8B1     1.030386
       2A2     1.030652    17A1     1.030665    18A1     1.210974

    Beta Occupied:

       1A1  -101.233948     2A1   -76.886707     3A1    -9.147394
       4A1    -6.903841     1B1    -6.903386     1B2    -6.903386
       5A1    -6.352719     2B2    -4.510987     2B1    -4.510987
       6A1    -4.509464     7A1    -0.483190     8A1    -0.272888
       9A1    -0.038570     3B1    -0.030142     3B2    -0.030142

    Beta Virtual:

       4B1     0.092802     4B2     0.092802    10A1     0.127426
      11A1     0.572414     5B2     0.642540     5B1     0.642540
      12A1     0.672480    13A1     0.720205     6B2     0.722101
       6B1     0.722101    14A1     0.736205     1A2     0.736210
       7B2     0.846522     7B1     0.846522    15A1     0.851729
      16A1     0.985049     2A2     1.036642    17A1     1.036655
       8B2     1.045423     8B1     1.045423    18A1     1.233290

    Final Occupation by Irrep:
             A1    A2    B1    B2
    DOCC [     9,    0,    3,    3 ]
    SOCC [     1,    0,    1,    1 ]
    NA   [    10,    0,    4,    4 ]
    NB   [     9,    0,    3,    3 ]

  @DF-UKS Final Energy:  -801.56563169424055

   => Energetics <=

    Nuclear Repulsion Energy =             46.2932318999275410
    One-Electron Energy =               -1208.3221572628935974
    Two-Electron Energy =                 402.1082181979462575
    DFT Exchange-Correlation Energy =     -41.6449245292208303
    Empirical Dispersion Energy =           0.0000000000000000
    VV10 Nonlocal Energy =                  0.0000000000000000
    Total Energy =                       -801.5656316942405510

  UHF NO Occupations:
  HONO-2 :    4 B1 1.0000000
  HONO-1 :   10 A1 1.0000000
  HONO-0 :    4 B2 1.0000000
  LUNO+0 :   11 A1 0.0004660
  LUNO+1 :   12 A1 0.0000715
  LUNO+2 :    5 B1 0.0000561
  LUNO+3 :    5 B2 0.0000561

Computation Completed

Properties will be evaluated at   0.000000,   0.000000,   0.000000 [a0]

Properties computed using the SCF density matrix

 Multipole Moments:

 ------------------------------------------------------------------------------------
     Multipole            Electronic (a.u.)      Nuclear  (a.u.)        Total (a.u.)
 ------------------------------------------------------------------------------------

 L = 1.  Multiply by 2.5417464519 to convert [e a0] to [Debye]
 Dipole X            :          0.0000000            0.0000000            0.0000000
 Dipole Y            :          0.0000000            0.0000000            0.0000000
 Dipole Z            :          0.9971045           -0.1688333            0.8282712
 Magnitude           :                                                    0.8282712

 ------------------------------------------------------------------------------------

*** tstop() called on Joses-MacBook-Pro-2.local at Thu Jul 17 12:02:41 2025
Module time:
	user time   =      11.93 seconds =       0.20 minutes
	system time =       2.79 seconds =       0.05 minutes
	total time  =          1 seconds =       0.02 minutes
Total time:
	user time   =     230.69 seconds =       3.84 minutes
	system time =      54.28 seconds =       0.90 minutes
	total time  =         27 seconds =       0.45 minutes

*** tstart() called on Joses-MacBook-Pro-2.local
*** at Thu Jul 17 12:02:41 2025

         ------------------------------------------------------------
                                   SCF GRAD
                          Rob Parrish, Justin Turney,
                       Andy Simmonett, and Alex Sokolov
         ------------------------------------------------------------

  ==> Geometry <==

    Molecular point group: c2v
    Full point group: C_inf_v

    Geometry (in Angstrom), charge = -1, multiplicity = 4:

       Center              X                  Y                   Z               Mass
    ------------   -----------------  -----------------  -----------------  -----------------
         P            0.000000000000     0.000000000000     1.545749205147    30.973761998420
         CL           0.000000000000     0.000000000000    -1.369151811324    34.968852682000

  Nuclear repulsion =   46.293231899927541

  ==> Basis Set <==

  Basis Set: CC-PVDZ
    Blend: CC-PVDZ
    Number of shells: 16
    Number of basis functions: 36
    Number of Cartesian functions: 38
    Spherical Harmonics?: true
    Max angular momentum: 2

  ==> DFJKGrad: Density-Fitted SCF Gradients <==

    Gradient:                    1
    J tasked:                  Yes
    K tasked:                  Yes
    wK tasked:                  No
    OpenMP threads:              1
    Integrals threads:           1
    Memory [MiB]:              375
    Schwarz Cutoff:          1E-12
    Fitting Condition:       1E-10

   => Auxiliary Basis Set <=

  Basis Set: (CC-PVDZ AUX)
    Blend: CC-PVDZ-JKFIT
    Number of shells: 72
    Number of basis functions: 224
    Number of Cartesian functions: 260
    Spherical Harmonics?: true
    Max angular momentum: 3

  ==> DFT Potential <==

   => LibXC <=

    Version 6.2.2
    S. Lehtola, C. Steigemann, M. J.T. Oliveira, and M. A.L. Marques.,  SoftwareX 7, 1â€“5 (2018) (10.1016/j.softx.2017.11.002)

   => Composite Functional: B3LYP <=

    B3LYP Hyb-GGA Exchange-Correlation Functional

    P. J. Stephens, F. J. Devlin, C. F. Chabalowski, and M. J. Frisch.,  J. Phys. Chem. 98, 11623 (1994) (10.1021/j100096a001)

    Deriv               =              1
    GGA                 =           TRUE
    Meta                =          FALSE

    Exchange Hybrid     =           TRUE
    MP2 Hybrid          =          FALSE

   => Exchange Functionals <=

    0.0800   Slater exchange
    0.7200         Becke 88

   => Exact (HF) Exchange <=

    0.2000               HF

   => Correlation Functionals <=

    0.1900   Vosko, Wilk & Nusair (VWN5_RPA)
    0.8100   Lee, Yang & Parr

   => LibXC Density Thresholds  <==

    XC_HYB_GGA_XC_B3LYP:  1.00E-15

   => Molecular Quadrature <=

    Radial Scheme          =       TREUTLER
    Pruning Scheme         =           NONE
    Nuclear Scheme         =       TREUTLER

    Blocking Scheme        =         OCTREE
    BS radius alpha        =              1
    Pruning alpha          =              1
    Radial Points          =             75
    Spherical Points       =            302
    Total Points           =          40932
    Total Blocks           =            374
    Max Points             =            249
    Max Functions          =             36
    Weights Tolerance      =       1.00E-15

  -Total Gradient:
     Atom            X                  Y                   Z
    ------   -----------------  -----------------  -----------------
       1        0.000000000000    -0.000000000000    -0.000019717522
       2        0.000000000000    -0.000000000000     0.000025176151

*** tstop() called on Joses-MacBook-Pro-2.local at Thu Jul 17 12:02:42 2025
Module time:
	user time   =       3.85 seconds =       0.06 minutes
	system time =       1.91 seconds =       0.03 minutes
	total time  =          1 seconds =       0.02 minutes
Total time:
	user time   =     234.54 seconds =       3.91 minutes
	system time =      56.19 seconds =       0.94 minutes
	total time  =         28 seconds =       0.47 minutes

    			-----------------------------------------

    			 OPTKING 3.0: for geometry optimizations

    			     By R.A. King, Bethel University

    			        with contributions from

    			    A.V. Copan, J. Cayton, A. Heide

    			-----------------------------------------

	                            ===> Fragment 1 <==

	 Z (Atomic Numbers)          Masses                          Geom
	      15.000000            30.973762          0.00000000  0.00000000  2.92104266
	      17.000000            34.968853          0.00000000  0.00000000 -2.58732195

	 - Coordinate -           - BOHR/RAD -       - ANG/DEG -
	 R(1,2)           =         5.508365           2.914901

	        --- Internal Coordinate Step in ANG or DEG, aJ/ANG or AJ/DEG ---
	-------------------------------------------------------------------------------
	           Coordinate      Previous         Force          Change          New
	           ----------      --------        ------          ------        ------
	               R(1,2)       2.91490        0.00018        0.00064       2.91554
	-------------------------------------------------------------------------------

	                                 ==> Convergence Check <==

	Measures of convergence in internal coordinates in au.

	Criteria marked as inactive (o), active & met (*), and active & unmet ( ).

	----------------------------------------------------------------------------------------------
	   Step    Total Energy     Delta E     Max Force     RMS Force      Max Disp      RMS Disp
	----------------------------------------------------------------------------------------------
	  Convergence Criteria     1.00e-06 *    3.00e-04 *             o    1.20e-03 *             o
	----------------------------------------------------------------------------------------------
	    18    -801.56563169   -1.80e-07 *    2.24e-05 *    2.24e-05 o    1.21e-03      1.21e-03 o  ~
	----------------------------------------------------------------------------------------------

Next Geometry in Ang
	Fragment 1 (Ang)

	    P   0.0000000000   0.0000000000   1.5460693635
	   Cl   0.0000000000   0.0000000000  -1.3694719697

    Final optimized geometry and variables:
    Molecular point group: c2v
    Full point group: C_inf_v

    Geometry (in Angstrom), charge = -1, multiplicity = 4:

    P            0.000000000000     0.000000000000     1.545749205147
    CL           0.000000000000     0.000000000000    -1.369151811324

    Psi4 stopped on: Thursday, 17 July 2025 12:02PM
    Psi4 wall time for execution: 0:00:28.84

*** Psi4 exiting successfully. Buy a developer a beer!
