                               Psi4 1.9.1 release

  ==> Input File <==

--------------------------------------------------------------------------
molecule {
-1 4
B   0.00000        0.60000        0.00000
P   0.00000       -0.60000        0.00000
}

set {
basis              cc-pvdz
reference          uks
maxiter            500
geom_maxiter       500
DAMPING_PERCENTAGE 1
guess              SAP
}

optimize('b3lyp')
--------------------------------------------------------------------------

    Molecular point group: c2v
  Charge       = -1
  Multiplicity = 4
  Basis Set: CC-PVDZ
    Blend: CC-PVDZ
  Basis Set: (CC-PVDZ AUX)
    Blend: CC-PVDZ-JKFIT
  @DF-UKS Final Energy:  -365.52412562314368
    Total Energy =                       -365.5241256231436751
 Dipole X            :          0.0000000            0.0000000            0.0000000
 Dipole Y            :          0.0000000            0.0000000            0.0000000
 Dipole Z            :         -0.7774487           -0.5547649           -1.3322136
 Magnitude           :                                                    1.3322136
    Molecular point group: c2v
  Basis Set: CC-PVDZ
    Blend: CC-PVDZ
  Basis Set: (CC-PVDZ AUX)
    Blend: CC-PVDZ-JKFIT
  Basis Set: CC-PVDZ
    Blend: CC-PVDZ
  Basis Set: (CC-PVDZ AUX)
    Blend: CC-PVDZ-JKFIT
  @DF-UKS Final Energy:  -365.74699930506898
    Total Energy =                       -365.7469993050689823
  Basis Set: CC-PVDZ
    Blend: CC-PVDZ
  Basis Set: (CC-PVDZ AUX)
    Blend: CC-PVDZ-JKFIT
  Basis Set: CC-PVDZ
    Blend: CC-PVDZ
  @DF-UKS Final Energy:  -365.94384410271311
    Total Energy =                       -365.9438441027131148
  @DF-UKS Final Energy:  -366.01991667061310
    Total Energy =                       -366.0199166706130995
  @DF-UKS Final Energy:  -366.03851243512730
    Total Energy =                       -366.0385124351272452
  @DF-UKS Final Energy:  -366.04493434561147
    Total Energy =                       -366.0449343456114661
  @DF-UKS Final Energy:  -366.04594958471546
    Total Energy =                       -366.0459495847154585
  @DF-UKS Final Energy:  -366.04614056173295
    Total Energy =                       -366.0461405617329547
  @DF-UKS Final Energy:  -366.04617986517167
    Total Energy =                       -366.0461798651716663
  Basis Set: (CC-PVDZ AUX)
    Blend: CC-PVDZ-JKFIT
  Basis Set: CC-PVDZ
    Blend: CC-PVDZ
  Basis Set: (CC-PVDZ AUX)
    Blend: CC-PVDZ-JKFIT
  @DF-UKS Final Energy:  -366.04618962416816
    Total Energy =                       -366.0461896241681643
  Basis Set: CC-PVDZ
    Blend: CC-PVDZ
  Basis Set: (CC-PVDZ AUX)
    Blend: CC-PVDZ-JKFIT
  Charge       = -1
  Multiplicity = 4
  Basis Set: CC-PVDZ
    Blend: CC-PVDZ
  Basis Set: (CC-PVDZ AUX)
    Blend: CC-PVDZ-JKFIT

    Orbital Energies [Eh]
    ---------------------

    Alpha Occupied:

       1A1   -76.837780     2A1    -6.552196     3A1    -6.305498
       1B1    -4.472300     4A1    -4.466766     1B2    -4.462647
       5A1    -0.361513     6A1    -0.147495     2B1    -0.034764
       7A1    -0.017057     2B2     0.002060     3B1     0.101507

    Alpha Virtual:

       3B2     0.181254     8A1     0.317017     9A1     0.451085
       4B1     0.502528     4B2     0.524785    10A1     0.546419
       5B1     0.632360    11A1     0.634839     5B2     0.655549
       1A2     0.697255    12A1     0.698220     6B1     0.710591
       6B2     0.735626    13A1     0.825787     2A2     0.957708
      14A1     0.960846    15A1     1.090547     7B1     1.166643
       7B2     1.185732    16A1     1.388015

    Beta Occupied:

       1A1   -76.833022     2A1    -6.535781     3A1    -6.300409
       4A1    -4.460556     1B2    -4.460282     1B1    -4.458369
       5A1    -0.311638     6A1    -0.082419     2B2     0.016223

    Beta Virtual:

       2B1     0.097563     7A1     0.117217     3B2     0.207685
       3B1     0.240304     8A1     0.346712     9A1     0.484733
       4B2     0.539210     4B1     0.563021    10A1     0.598294
       5B2     0.669895    11A1     0.671816     5B1     0.688460
       1A2     0.742988    12A1     0.746415     6B2     0.755121
       6B1     0.776776    13A1     0.854649     2A2     1.016218
      14A1     1.018087    15A1     1.129724     7B2     1.220841
       7B1     1.244837    16A1     1.438944

    Final Occupation by Irrep:
             A1    A2    B1    B2
    DOCC [     6,    0,    1,    2 ]
    SOCC [     1,    0,    2,    0 ]
    NA   [     7,    0,    3,    2 ]
    NB   [     6,    0,    1,    2 ]

  @DF-UKS Final Energy:  -366.04619065396582

   => Energetics <=

    Nuclear Repulsion Energy =             20.9781651020603022
    One-Electron Energy =                -551.3068315149889713
    Two-Electron Energy =                 186.3794083279461518
    DFT Exchange-Correlation Energy =     -22.0969325689833482
    Empirical Dispersion Energy =           0.0000000000000000
    VV10 Nonlocal Energy =                  0.0000000000000000
    Total Energy =                       -366.0461906539658230

  UHF NO Occupations:
  HONO-2 :    2 B1 1.0000000
  HONO-1 :    3 B1 1.0000000
  HONO-0 :    7 A1 1.0000000
  LUNO+0 :    3 B2 0.0013678
  LUNO+1 :    8 A1 0.0011412
  LUNO+2 :    9 A1 0.0007974
  LUNO+3 :   10 A1 0.0000001

Computation Completed

Properties will be evaluated at   0.000000,   0.000000,   0.000000 [a0]

Properties computed using the SCF density matrix

 Multipole Moments:

 ------------------------------------------------------------------------------------
     Multipole            Electronic (a.u.)      Nuclear  (a.u.)        Total (a.u.)
 ------------------------------------------------------------------------------------

 L = 1.  Multiply by 2.5417464519 to convert [e a0] to [Debye]
 Dipole X            :          0.0000000            0.0000000            0.0000000
 Dipole Y            :          0.0000000            0.0000000            0.0000000
 Dipole Z            :         -0.0198038           -0.8746265           -0.8944303
 Magnitude           :                                                    0.8944303

 ------------------------------------------------------------------------------------

*** tstop() called on Joses-MacBook-Pro-2.local at Thu Jul 17 09:54:58 2025
Module time:
	user time   =       3.56 seconds =       0.06 minutes
	system time =       4.31 seconds =       0.07 minutes
	total time  =          0 seconds =       0.00 minutes
Total time:
	user time   =      55.06 seconds =       0.92 minutes
	system time =      67.39 seconds =       1.12 minutes
	total time  =         11 seconds =       0.18 minutes

*** tstart() called on Joses-MacBook-Pro-2.local
*** at Thu Jul 17 09:54:58 2025

         ------------------------------------------------------------
                                   SCF GRAD
                          Rob Parrish, Justin Turney,
                       Andy Simmonett, and Alex Sokolov
         ------------------------------------------------------------

  ==> Geometry <==

    Molecular point group: c2v
    Full point group: C_inf_v

    Geometry (in Angstrom), charge = -1, multiplicity = 4:

       Center              X                  Y                   Z               Mass
    ------------   -----------------  -----------------  -----------------  -----------------
         B            0.000000000000     0.000000000000     1.395772663332    11.009305360000
         P            0.000000000000     0.000000000000    -0.496113047700    30.973761998420

  Nuclear repulsion =   20.978165102060302

  ==> Basis Set <==

  Basis Set: CC-PVDZ
    Blend: CC-PVDZ
    Number of shells: 14
    Number of basis functions: 32
    Number of Cartesian functions: 34
    Spherical Harmonics?: true
    Max angular momentum: 2

  ==> DFJKGrad: Density-Fitted SCF Gradients <==

    Gradient:                    1
    J tasked:                  Yes
    K tasked:                  Yes
    wK tasked:                  No
    OpenMP threads:              1
    Integrals threads:           1
    Memory [MiB]:              375
    Schwarz Cutoff:          1E-12
    Fitting Condition:       1E-10

   => Auxiliary Basis Set <=

  Basis Set: (CC-PVDZ AUX)
    Blend: CC-PVDZ-JKFIT
    Number of shells: 60
    Number of basis functions: 182
    Number of Cartesian functions: 211
    Spherical Harmonics?: true
    Max angular momentum: 3

  ==> DFT Potential <==

   => LibXC <=

    Version 6.2.2
    S. Lehtola, C. Steigemann, M. J.T. Oliveira, and M. A.L. Marques.,  SoftwareX 7, 1â€“5 (2018) (10.1016/j.softx.2017.11.002)

   => Composite Functional: B3LYP <=

    B3LYP Hyb-GGA Exchange-Correlation Functional

    P. J. Stephens, F. J. Devlin, C. F. Chabalowski, and M. J. Frisch.,  J. Phys. Chem. 98, 11623 (1994) (10.1021/j100096a001)

    Deriv               =              1
    GGA                 =           TRUE
    Meta                =          FALSE

    Exchange Hybrid     =           TRUE
    MP2 Hybrid          =          FALSE

   => Exchange Functionals <=

    0.0800   Slater exchange
    0.7200         Becke 88

   => Exact (HF) Exchange <=

    0.2000               HF

   => Correlation Functionals <=

    0.1900   Vosko, Wilk & Nusair (VWN5_RPA)
    0.8100   Lee, Yang & Parr

   => LibXC Density Thresholds  <==

    XC_HYB_GGA_XC_B3LYP:  1.00E-15

   => Molecular Quadrature <=

    Radial Scheme          =       TREUTLER
    Pruning Scheme         =           NONE
    Nuclear Scheme         =       TREUTLER

    Blocking Scheme        =         OCTREE
    BS radius alpha        =              1
    Pruning alpha          =              1
    Radial Points          =             75
    Spherical Points       =            302
    Total Points           =          41998
    Total Blocks           =            381
    Max Points             =            255
    Max Functions          =             32
    Weights Tolerance      =       1.00E-15

  -Total Gradient:
     Atom            X                  Y                   Z
    ------   -----------------  -----------------  -----------------
       1        0.000000000000    -0.000000000000    -0.000092606935
       2        0.000000000000    -0.000000000000     0.000083824780

*** tstop() called on Joses-MacBook-Pro-2.local at Thu Jul 17 09:54:59 2025
Module time:
	user time   =       0.51 seconds =       0.01 minutes
	system time =       1.77 seconds =       0.03 minutes
	total time  =          1 seconds =       0.02 minutes
Total time:
	user time   =      55.57 seconds =       0.93 minutes
	system time =      69.16 seconds =       1.15 minutes
	total time  =         12 seconds =       0.20 minutes

    			-----------------------------------------

    			 OPTKING 3.0: for geometry optimizations

    			     By R.A. King, Bethel University

    			        with contributions from

    			    A.V. Copan, J. Cayton, A. Heide

    			-----------------------------------------

	                            ===> Fragment 1 <==

	 Z (Atomic Numbers)          Masses                          Geom
	       5.000000            11.009305          0.00000000  0.00000000  2.63762807
	      15.000000            30.973762          0.00000000  0.00000000 -0.93751779

	 - Coordinate -           - BOHR/RAD -       - ANG/DEG -
	 R(1,2)           =         3.575146           1.891886

	        --- Internal Coordinate Step in ANG or DEG, aJ/ANG or AJ/DEG ---
	-------------------------------------------------------------------------------
	           Coordinate      Previous         Force          Change          New
	           ----------      --------        ------          ------        ------
	               R(1,2)       1.89189        0.00073        0.00027       1.89216
	-------------------------------------------------------------------------------

	                                 ==> Convergence Check <==

	Measures of convergence in internal coordinates in au.

	Criteria marked as inactive (o), active & met (*), and active & unmet ( ).

	----------------------------------------------------------------------------------------------
	   Step    Total Energy     Delta E     Max Force     RMS Force      Max Disp      RMS Disp
	----------------------------------------------------------------------------------------------
	  Convergence Criteria     1.00e-06 *    3.00e-04 *             o    1.20e-03 *             o
	----------------------------------------------------------------------------------------------
	    11    -366.04619065   -1.03e-06      8.82e-05 *    8.82e-05 o    5.09e-04 *    5.09e-04 o  ~
	----------------------------------------------------------------------------------------------

Next Geometry in Ang
	Fragment 1 (Ang)

	    B   0.0000000000   0.0000000000   1.3959073762
	    P   0.0000000000   0.0000000000  -0.4962477606

    Final optimized geometry and variables:
    Molecular point group: c2v
    Full point group: C_inf_v

    Geometry (in Angstrom), charge = -1, multiplicity = 4:

    B            0.000000000000     0.000000000000     1.395772663332
    P            0.000000000000     0.000000000000    -0.496113047700

    Psi4 stopped on: Thursday, 17 July 2025 09:54AM
    Psi4 wall time for execution: 0:00:12.55

*** Psi4 exiting successfully. Buy a developer a beer!
