                               Psi4 1.9.1 release

  ==> Input File <==

--------------------------------------------------------------------------
molecule {
-1 4
O   0.00000        0.60000        0.00000
S   0.00000       -0.60000        0.00000
}

set {
basis              cc-pvdz
reference          uks
maxiter            500
geom_maxiter       500
DAMPING_PERCENTAGE 1
guess              SAP
}

optimize('b3lyp')
--------------------------------------------------------------------------

    Molecular point group: c2v
  Charge       = -1
  Multiplicity = 4
  Basis Set: CC-PVDZ
    Blend: CC-PVDZ
  Basis Set: (CC-PVDZ AUX)
    Blend: CC-PVDZ-JKFIT
  @DF-UKS Final Energy:  -472.98752018723968
    Total Energy =                       -472.9875201872396815
 Dipole X            :          0.0000000            0.0000000            0.0000000
 Dipole Y            :          0.0000000            0.0000000            0.0000000
 Dipole Z            :          0.3883353           -0.0067162            0.3816191
 Magnitude           :                                                    0.3816191
    Molecular point group: c2v
  Basis Set: CC-PVDZ
    Blend: CC-PVDZ
  Basis Set: (CC-PVDZ AUX)
    Blend: CC-PVDZ-JKFIT
  Basis Set: CC-PVDZ
    Blend: CC-PVDZ
  Basis Set: (CC-PVDZ AUX)
    Blend: CC-PVDZ-JKFIT
  @DF-UKS Final Energy:  -473.13185170913300
    Total Energy =                       -473.1318517091330023
  Basis Set: CC-PVDZ
    Blend: CC-PVDZ
  Basis Set: (CC-PVDZ AUX)
    Blend: CC-PVDZ-JKFIT
  Basis Set: CC-PVDZ
    Blend: CC-PVDZ
  @DF-UKS Final Energy:  -473.20920030801074
    Total Energy =                       -473.2092003080107361
  @DF-UKS Final Energy:  -473.24142723459704
    Total Energy =                       -473.2414272345970403
  @DF-UKS Final Energy:  -473.26714236171989
    Total Energy =                       -473.2671423617198911
  @DF-UKS Final Energy:  -473.28754247867676
    Total Energy =                       -473.2875424786767553
  @DF-UKS Final Energy:  -473.29832729571910
    Total Energy =                       -473.2983272957191048
  @DF-UKS Final Energy:  -473.30159191202677
    Total Energy =                       -473.3015919120267654
  @DF-UKS Final Energy:  -473.30212797067787
    Total Energy =                       -473.3021279706778728
  @DF-UKS Final Energy:  -473.30217650866308
    Total Energy =                       -473.3021765086630808
  Basis Set: (CC-PVDZ AUX)
    Blend: CC-PVDZ-JKFIT
  Basis Set: CC-PVDZ
    Blend: CC-PVDZ
  Basis Set: (CC-PVDZ AUX)
    Blend: CC-PVDZ-JKFIT
  @DF-UKS Final Energy:  -473.30218164024978
    Total Energy =                       -473.3021816402497848
  Basis Set: CC-PVDZ
    Blend: CC-PVDZ
  Basis Set: (CC-PVDZ AUX)
    Blend: CC-PVDZ-JKFIT
  Charge       = -1
  Multiplicity = 4
  Basis Set: CC-PVDZ
    Blend: CC-PVDZ
  Basis Set: (CC-PVDZ AUX)
    Blend: CC-PVDZ-JKFIT

    Orbital Energies [Eh]
    ---------------------

    Alpha Occupied:

       1A1   -88.607421     2A1   -18.913384     3A1    -7.663023
       4A1    -5.625581     1B1    -5.624953     1B2    -5.624953
       5A1    -0.674627     6A1    -0.397483     7A1    -0.118856
       2B1    -0.094251     2B2    -0.094251     3B1     0.004565
       3B2     0.004565     8A1     0.099407

    Alpha Virtual:

       9A1     0.712472     4B1     0.742487     4B2     0.742487
      10A1     0.742556     5B1     0.849432     5B2     0.849432
       1A2     0.862013    11A1     0.862014    12A1     0.981394
       6B2     1.204525     6B1     1.204525    13A1     1.227787
      14A1     1.816118     2A2     2.819254    15A1     2.819301
       7B1     2.843743     7B2     2.843743    16A1     2.973446

    Beta Occupied:

       1A1   -88.599100     2A1   -18.871535     3A1    -7.654427
       1B1    -5.612945     1B2    -5.612945     4A1    -5.612622
       5A1    -0.560676     6A1    -0.328335     7A1    -0.034223
       2B1     0.014503     2B2     0.014503

    Beta Virtual:

       3B1     0.138318     3B2     0.138318     8A1     0.241506
       9A1     0.745706    10A1     0.773951     4B1     0.774365
       4B2     0.774365     5B2     0.905173     5B1     0.905173
       1A2     0.916485    11A1     0.916486    12A1     1.034936
       6B2     1.274283     6B1     1.274283    13A1     1.283743
      14A1     1.879517     2A2     2.920487    15A1     2.920537
       7B2     2.931345     7B1     2.931345    16A1     3.055284

    Final Occupation by Irrep:
             A1    A2    B1    B2
    DOCC [     7,    0,    2,    2 ]
    SOCC [     1,    0,    1,    1 ]
    NA   [     8,    0,    3,    3 ]
    NB   [     7,    0,    2,    2 ]

  @DF-UKS Final Energy:  -473.30218183711088

   => Energetics <=

    Nuclear Repulsion Energy =             33.4884251748039645
    One-Electron Energy =                -727.5981685621869701
    Two-Electron Energy =                 248.5712331278660088
    DFT Exchange-Correlation Energy =     -27.7636715775938860
    Empirical Dispersion Energy =           0.0000000000000000
    VV10 Nonlocal Energy =                  0.0000000000000000
    Total Energy =                       -473.3021818371108793

  UHF NO Occupations:
  HONO-2 :    8 A1 1.0000000
  HONO-1 :    3 B1 1.0000000
  HONO-0 :    3 B2 1.0000000
  LUNO+0 :    4 B1 0.0014595
  LUNO+1 :    4 B2 0.0014595
  LUNO+2 :    9 A1 0.0011514
  LUNO+3 :   10 A1 0.0002207

Computation Completed

Properties will be evaluated at   0.000000,   0.000000,   0.000000 [a0]

Properties computed using the SCF density matrix

 Multipole Moments:

 ------------------------------------------------------------------------------------
     Multipole            Electronic (a.u.)      Nuclear  (a.u.)        Total (a.u.)
 ------------------------------------------------------------------------------------

 L = 1.  Multiply by 2.5417464519 to convert [e a0] to [Debye]
 Dipole X            :          0.0000000            0.0000000            0.0000000
 Dipole Y            :          0.0000000            0.0000000            0.0000000
 Dipole Z            :         -0.0456572           -0.0113203           -0.0569776
 Magnitude           :                                                    0.0569776

 ------------------------------------------------------------------------------------

*** tstop() called on Joses-MacBook-Pro-2.local at Thu Jul 17 10:44:35 2025
Module time:
	user time   =       7.66 seconds =       0.13 minutes
	system time =       1.95 seconds =       0.03 minutes
	total time  =          1 seconds =       0.02 minutes
Total time:
	user time   =      59.30 seconds =       0.99 minutes
	system time =      73.61 seconds =       1.23 minutes
	total time  =         14 seconds =       0.23 minutes

*** tstart() called on Joses-MacBook-Pro-2.local
*** at Thu Jul 17 10:44:35 2025

         ------------------------------------------------------------
                                   SCF GRAD
                          Rob Parrish, Justin Turney,
                       Andy Simmonett, and Alex Sokolov
         ------------------------------------------------------------

  ==> Geometry <==

    Molecular point group: c2v
    Full point group: C_inf_v

    Geometry (in Angstrom), charge = -1, multiplicity = 4:

       Center              X                  Y                   Z               Mass
    ------------   -----------------  -----------------  -----------------  -----------------
         O            0.000000000000     0.000000000000     1.348170189902    15.994914619570
         S            0.000000000000     0.000000000000    -0.674459498182    31.972071174400

  Nuclear repulsion =   33.488425174803965

  ==> Basis Set <==

  Basis Set: CC-PVDZ
    Blend: CC-PVDZ
    Number of shells: 14
    Number of basis functions: 32
    Number of Cartesian functions: 34
    Spherical Harmonics?: true
    Max angular momentum: 2

  ==> DFJKGrad: Density-Fitted SCF Gradients <==

    Gradient:                    1
    J tasked:                  Yes
    K tasked:                  Yes
    wK tasked:                  No
    OpenMP threads:              1
    Integrals threads:           1
    Memory [MiB]:              375
    Schwarz Cutoff:          1E-12
    Fitting Condition:       1E-10

   => Auxiliary Basis Set <=

  Basis Set: (CC-PVDZ AUX)
    Blend: CC-PVDZ-JKFIT
    Number of shells: 60
    Number of basis functions: 182
    Number of Cartesian functions: 211
    Spherical Harmonics?: true
    Max angular momentum: 3

  ==> DFT Potential <==

   => LibXC <=

    Version 6.2.2
    S. Lehtola, C. Steigemann, M. J.T. Oliveira, and M. A.L. Marques.,  SoftwareX 7, 1â€“5 (2018) (10.1016/j.softx.2017.11.002)

   => Composite Functional: B3LYP <=

    B3LYP Hyb-GGA Exchange-Correlation Functional

    P. J. Stephens, F. J. Devlin, C. F. Chabalowski, and M. J. Frisch.,  J. Phys. Chem. 98, 11623 (1994) (10.1021/j100096a001)

    Deriv               =              1
    GGA                 =           TRUE
    Meta                =          FALSE

    Exchange Hybrid     =           TRUE
    MP2 Hybrid          =          FALSE

   => Exchange Functionals <=

    0.0800   Slater exchange
    0.7200         Becke 88

   => Exact (HF) Exchange <=

    0.2000               HF

   => Correlation Functionals <=

    0.1900   Vosko, Wilk & Nusair (VWN5_RPA)
    0.8100   Lee, Yang & Parr

   => LibXC Density Thresholds  <==

    XC_HYB_GGA_XC_B3LYP:  1.00E-15

   => Molecular Quadrature <=

    Radial Scheme          =       TREUTLER
    Pruning Scheme         =           NONE
    Nuclear Scheme         =       TREUTLER

    Blocking Scheme        =         OCTREE
    BS radius alpha        =              1
    Pruning alpha          =              1
    Radial Points          =             75
    Spherical Points       =            302
    Total Points           =          41913
    Total Blocks           =            374
    Max Points             =            255
    Max Functions          =             32
    Weights Tolerance      =       1.00E-15

  -Total Gradient:
     Atom            X                  Y                   Z
    ------   -----------------  -----------------  -----------------
       1        0.000000000000     0.000000000000    -0.000049959606
       2       -0.000000000000     0.000000000000     0.000028105958

*** tstop() called on Joses-MacBook-Pro-2.local at Thu Jul 17 10:44:35 2025
Module time:
	user time   =       0.67 seconds =       0.01 minutes
	system time =       2.06 seconds =       0.03 minutes
	total time  =          0 seconds =       0.00 minutes
Total time:
	user time   =      59.98 seconds =       1.00 minutes
	system time =      75.67 seconds =       1.26 minutes
	total time  =         14 seconds =       0.23 minutes

    			-----------------------------------------

    			 OPTKING 3.0: for geometry optimizations

    			     By R.A. King, Bethel University

    			        with contributions from

    			    A.V. Copan, J. Cayton, A. Heide

    			-----------------------------------------

	                            ===> Fragment 1 <==

	 Z (Atomic Numbers)          Masses                          Geom
	       8.000000            15.994915          0.00000000  0.00000000  2.54767243
	      16.000000            31.972071          0.00000000  0.00000000 -1.27454373

	 - Coordinate -           - BOHR/RAD -       - ANG/DEG -
	 R(1,2)           =         3.822216           2.022630

	        --- Internal Coordinate Step in ANG or DEG, aJ/ANG or AJ/DEG ---
	-------------------------------------------------------------------------------
	           Coordinate      Previous         Force          Change          New
	           ----------      --------        ------          ------        ------
	               R(1,2)       2.02263        0.00032        0.00024       2.02287
	-------------------------------------------------------------------------------

	                                 ==> Convergence Check <==

	Measures of convergence in internal coordinates in au.

	Criteria marked as inactive (o), active & met (*), and active & unmet ( ).

	----------------------------------------------------------------------------------------------
	   Step    Total Energy     Delta E     Max Force     RMS Force      Max Disp      RMS Disp
	----------------------------------------------------------------------------------------------
	  Convergence Criteria     1.00e-06 *    3.00e-04 *             o    1.20e-03 *             o
	----------------------------------------------------------------------------------------------
	    12    -473.30218184   -1.97e-07 *    3.90e-05 *    3.90e-05 o    4.49e-04 *    4.49e-04 o  ~
	----------------------------------------------------------------------------------------------

Next Geometry in Ang
	Fragment 1 (Ang)

	    O   0.0000000000   0.0000000000   1.3482891210
	    S   0.0000000000   0.0000000000  -0.6745784293

    Final optimized geometry and variables:
    Molecular point group: c2v
    Full point group: C_inf_v

    Geometry (in Angstrom), charge = -1, multiplicity = 4:

    O            0.000000000000     0.000000000000     1.348170189902
    S            0.000000000000     0.000000000000    -0.674459498182

    Psi4 stopped on: Thursday, 17 July 2025 10:44AM
    Psi4 wall time for execution: 0:00:14.41

*** Psi4 exiting successfully. Buy a developer a beer!
