                               Psi4 1.9.1 release

  ==> Input File <==

--------------------------------------------------------------------------
molecule {
-1 4
He   0.00000        0.60000        0.00000
C   0.00000       -0.60000        0.00000
}

set {
basis              cc-pvdz
reference          uks
maxiter            500
geom_maxiter       500
DAMPING_PERCENTAGE 1
guess              SAP
}

optimize('b3lyp')
--------------------------------------------------------------------------

    Molecular point group: c2v
  Charge       = -1
  Multiplicity = 4
  Basis Set: CC-PVDZ
    Blend: CC-PVDZ
  Basis Set: (CC-PVDZ AUX)
    Blend: CC-PVDZ-JKFIT + DEF2-UNIVERSAL-JKFIT
  @DF-UKS Final Energy:   -40.54202087457876
    Total Energy =                        -40.5420208745787534
 Dipole X            :          0.0000000            0.0000000            0.0000000
 Dipole Y            :          0.0000000            0.0000000            0.0000000
 Dipole Z            :          1.4232691           -0.0022134            1.4210557
 Magnitude           :                                                    1.4210557
    Molecular point group: c2v
  Basis Set: CC-PVDZ
    Blend: CC-PVDZ
  Basis Set: (CC-PVDZ AUX)
    Blend: CC-PVDZ-JKFIT + DEF2-UNIVERSAL-JKFIT
  Basis Set: CC-PVDZ
    Blend: CC-PVDZ
  Basis Set: (CC-PVDZ AUX)
    Blend: CC-PVDZ-JKFIT + DEF2-UNIVERSAL-JKFIT
  @DF-UKS Final Energy:   -40.66361403438532
    Total Energy =                        -40.6636140343853185
  Basis Set: CC-PVDZ
    Blend: CC-PVDZ
  Basis Set: (CC-PVDZ AUX)
    Blend: CC-PVDZ-JKFIT + DEF2-UNIVERSAL-JKFIT
  Basis Set: CC-PVDZ
    Blend: CC-PVDZ
  @DF-UKS Final Energy:   -40.71290346386478
    Total Energy =                        -40.7129034638647767
  @DF-UKS Final Energy:   -40.74062351609130
    Total Energy =                        -40.7406235160912971
  @DF-UKS Final Energy:   -40.75503306399700
    Total Energy =                        -40.7550330639970042
  @DF-UKS Final Energy:   -40.76284818842791
    Total Energy =                        -40.7628481884279168
  @DF-UKS Final Energy:   -40.76707886941115
    Total Energy =                        -40.7670788694111579
  @DF-UKS Final Energy:   -40.76930791163016
    Total Energy =                        -40.7693079116301647
  @DF-UKS Final Energy:   -40.77040582002716
    Total Energy =                        -40.7704058200271646
  @DF-UKS Final Energy:   -40.77090566856497
    Total Energy =                        -40.7709056685649642
  @DF-UKS Final Energy:   -40.77111900873378
    Total Energy =                        -40.7711190087337840
  @DF-UKS Final Energy:   -40.77120524680628
    Total Energy =                        -40.7712052468062822
  @DF-UKS Final Energy:   -40.77123767341891
    Total Energy =                        -40.7712376734189021
  @DF-UKS Final Energy:   -40.77124666896067
    Total Energy =                        -40.7712466689606714
  @DF-UKS Final Energy:   -40.77125087066866
    Total Energy =                        -40.7712508706686663
  Basis Set: (CC-PVDZ AUX)
    Blend: CC-PVDZ-JKFIT + DEF2-UNIVERSAL-JKFIT
  Basis Set: CC-PVDZ
    Blend: CC-PVDZ
  Basis Set: (CC-PVDZ AUX)
    Blend: CC-PVDZ-JKFIT + DEF2-UNIVERSAL-JKFIT
  @DF-UKS Final Energy:   -40.77125204732031
    Total Energy =                        -40.7712520473203170
  Basis Set: CC-PVDZ
    Blend: CC-PVDZ
  Basis Set: (CC-PVDZ AUX)
    Blend: CC-PVDZ-JKFIT + DEF2-UNIVERSAL-JKFIT
  Charge       = -1
  Multiplicity = 4
  Basis Set: CC-PVDZ
    Blend: CC-PVDZ
  Basis Set: (CC-PVDZ AUX)
    Blend: CC-PVDZ-JKFIT + DEF2-UNIVERSAL-JKFIT

    Orbital Energies [Eh]
    ---------------------

    Alpha Occupied:

       1A1    -9.851438     2A1    -0.505293     3A1    -0.201099
       1B2     0.125745     1B1     0.125745     4A1     0.125752

    Alpha Virtual:

       5A1     0.793734     2B2     0.795333     2B1     0.795333
       6A1     0.880388     7A1     1.268722     3B1     1.501735
       3B2     1.501735     1A2     1.501746     8A1     1.501746
       9A1     1.501766     4B2     2.333230     4B1     2.333230
      10A1     2.335357

    Beta Occupied:

       1A1    -9.820335     2A1    -0.505263     3A1    -0.058283

    Beta Virtual:

       4A1     0.302771     1B1     0.302785     1B2     0.302785
       5A1     0.881646     2B2     0.883674     2B1     0.883674
       6A1     0.960205     7A1     1.269221     3B1     1.612470
       3B2     1.612470     8A1     1.612482     9A1     1.612490
       1A2     1.612490     4B2     2.333262     4B1     2.333262
      10A1     2.335409

    Final Occupation by Irrep:
             A1    A2    B1    B2
    DOCC [     3,    0,    0,    0 ]
    SOCC [     1,    0,    1,    1 ]
    NA   [     4,    0,    1,    1 ]
    NB   [     3,    0,    0,    0 ]

  @DF-UKS Final Energy:   -40.77125245294226

   => Energetics <=

    Nuclear Repulsion Energy =              1.7353839637523263
    One-Electron Energy =                 -60.5926238788804881
    Two-Electron Energy =                  23.4360772267640520
    DFT Exchange-Correlation Energy =      -5.3500897645781418
    Empirical Dispersion Energy =           0.0000000000000000
    VV10 Nonlocal Energy =                  0.0000000000000000
    Total Energy =                        -40.7712524529422495

  UHF NO Occupations:
  HONO-2 :    4 A1 1.0000000
  HONO-1 :    1 B2 1.0000000
  HONO-0 :    1 B1 1.0000000
  LUNO+0 :    5 A1 0.0006588
  LUNO+1 :    6 A1 0.0000000
  LUNO+2 :    7 A1 0.0000000
  LUNO+3 :    8 A1 0.0000000

Computation Completed

Properties will be evaluated at   0.000000,   0.000000,   0.000000 [a0]

Properties computed using the SCF density matrix

 Multipole Moments:

 ------------------------------------------------------------------------------------
     Multipole            Electronic (a.u.)      Nuclear  (a.u.)        Total (a.u.)
 ------------------------------------------------------------------------------------

 L = 1.  Multiply by 2.5417464519 to convert [e a0] to [Debye]
 Dipole X            :          0.0000000            0.0000000            0.0000000
 Dipole Y            :          0.0000000            0.0000000            0.0000000
 Dipole Z            :          1.7292386           -0.0067494            1.7224892
 Magnitude           :                                                    1.7224892

 ------------------------------------------------------------------------------------

*** tstop() called on Joses-MacBook-Pro-2.local at Thu Jul 17 09:19:06 2025
Module time:
	user time   =       0.66 seconds =       0.01 minutes
	system time =       3.15 seconds =       0.05 minutes
	total time  =          0 seconds =       0.00 minutes
Total time:
	user time   =      19.51 seconds =       0.33 minutes
	system time =      68.09 seconds =       1.13 minutes
	total time  =          9 seconds =       0.15 minutes

*** tstart() called on Joses-MacBook-Pro-2.local
*** at Thu Jul 17 09:19:06 2025

         ------------------------------------------------------------
                                   SCF GRAD
                          Rob Parrish, Justin Turney,
                       Andy Simmonett, and Alex Sokolov
         ------------------------------------------------------------

  ==> Geometry <==

    Molecular point group: c2v
    Full point group: C_inf_v

    Geometry (in Angstrom), charge = -1, multiplicity = 4:

       Center              X                  Y                   Z               Mass
    ------------   -----------------  -----------------  -----------------  -----------------
         HE           0.000000000000     0.000000000000     2.743957666572     4.002603254130
         C            0.000000000000     0.000000000000    -0.915247823785    12.000000000000

  Nuclear repulsion =    1.735383963752326

  ==> Basis Set <==

  Basis Set: CC-PVDZ
    Blend: CC-PVDZ
    Number of shells: 9
    Number of basis functions: 19
    Number of Cartesian functions: 20
    Spherical Harmonics?: true
    Max angular momentum: 2

  ==> DFJKGrad: Density-Fitted SCF Gradients <==

    Gradient:                    1
    J tasked:                  Yes
    K tasked:                  Yes
    wK tasked:                  No
    OpenMP threads:              1
    Integrals threads:           1
    Memory [MiB]:              375
    Schwarz Cutoff:          1E-12
    Fitting Condition:       1E-10

   => Auxiliary Basis Set <=

  Basis Set: (CC-PVDZ AUX)
    Blend: CC-PVDZ-JKFIT + DEF2-UNIVERSAL-JKFIT
    Number of shells: 33
    Number of basis functions: 93
    Number of Cartesian functions: 106
    Spherical Harmonics?: true
    Max angular momentum: 3

  ==> DFT Potential <==

   => LibXC <=

    Version 6.2.2
    S. Lehtola, C. Steigemann, M. J.T. Oliveira, and M. A.L. Marques.,  SoftwareX 7, 1â€“5 (2018) (10.1016/j.softx.2017.11.002)

   => Composite Functional: B3LYP <=

    B3LYP Hyb-GGA Exchange-Correlation Functional

    P. J. Stephens, F. J. Devlin, C. F. Chabalowski, and M. J. Frisch.,  J. Phys. Chem. 98, 11623 (1994) (10.1021/j100096a001)

    Deriv               =              1
    GGA                 =           TRUE
    Meta                =          FALSE

    Exchange Hybrid     =           TRUE
    MP2 Hybrid          =          FALSE

   => Exchange Functionals <=

    0.0800   Slater exchange
    0.7200         Becke 88

   => Exact (HF) Exchange <=

    0.2000               HF

   => Correlation Functionals <=

    0.1900   Vosko, Wilk & Nusair (VWN5_RPA)
    0.8100   Lee, Yang & Parr

   => LibXC Density Thresholds  <==

    XC_HYB_GGA_XC_B3LYP:  1.00E-15

   => Molecular Quadrature <=

    Radial Scheme          =       TREUTLER
    Pruning Scheme         =           NONE
    Nuclear Scheme         =       TREUTLER

    Blocking Scheme        =         OCTREE
    BS radius alpha        =              1
    Pruning alpha          =              1
    Radial Points          =             75
    Spherical Points       =            302
    Total Points           =          43682
    Total Blocks           =            387
    Max Points             =            256
    Max Functions          =             19
    Weights Tolerance      =       1.00E-15

  -Total Gradient:
     Atom            X                  Y                   Z
    ------   -----------------  -----------------  -----------------
       1        0.000000000000     0.000000000000    -0.000006358623
       2       -0.000000000000     0.000000000000     0.000009937602

*** tstop() called on Joses-MacBook-Pro-2.local at Thu Jul 17 09:19:06 2025
Module time:
	user time   =       0.28 seconds =       0.00 minutes
	system time =       0.85 seconds =       0.01 minutes
	total time  =          0 seconds =       0.00 minutes
Total time:
	user time   =      19.79 seconds =       0.33 minutes
	system time =      68.94 seconds =       1.15 minutes
	total time  =          9 seconds =       0.15 minutes

    			-----------------------------------------

    			 OPTKING 3.0: for geometry optimizations

    			     By R.A. King, Bethel University

    			        with contributions from

    			    A.V. Copan, J. Cayton, A. Heide

    			-----------------------------------------

	                            ===> Fragment 1 <==

	 Z (Atomic Numbers)          Masses                          Geom
	       2.000000             4.002603          0.00000000  0.00000000  5.18532849
	       6.000000            12.000000          0.00000000  0.00000000 -1.72956772

	 - Coordinate -           - BOHR/RAD -       - ANG/DEG -
	 R(1,2)           =         6.914896           3.659205

	        --- Internal Coordinate Step in ANG or DEG, aJ/ANG or AJ/DEG ---
	-------------------------------------------------------------------------------
	           Coordinate      Previous         Force          Change          New
	           ----------      --------        ------          ------        ------
	               R(1,2)       3.65921        0.00007        0.01468       3.67388
	-------------------------------------------------------------------------------

	                                 ==> Convergence Check <==

	Measures of convergence in internal coordinates in au.

	Criteria marked as inactive (o), active & met (*), and active & unmet ( ).

	----------------------------------------------------------------------------------------------
	   Step    Total Energy     Delta E     Max Force     RMS Force      Max Disp      RMS Disp
	----------------------------------------------------------------------------------------------
	  Convergence Criteria     1.00e-06 *    3.00e-04 *             o    1.20e-03 *             o
	----------------------------------------------------------------------------------------------
	    17     -40.77125245   -4.06e-07 *    8.15e-06 *    8.15e-06 o    2.77e-02      2.77e-02 o  ~
	----------------------------------------------------------------------------------------------

Next Geometry in Ang
	Fragment 1 (Ang)

	   He   0.0000000000   0.0000000000   2.7512971707
	    C   0.0000000000   0.0000000000  -0.9225873279

    Final optimized geometry and variables:
    Molecular point group: c2v
    Full point group: C_inf_v

    Geometry (in Angstrom), charge = -1, multiplicity = 4:

    HE           0.000000000000     0.000000000000     2.743957666572
    C            0.000000000000     0.000000000000    -0.915247823785

    Psi4 stopped on: Thursday, 17 July 2025 09:19AM
    Psi4 wall time for execution: 0:00:09.98

*** Psi4 exiting successfully. Buy a developer a beer!
