                               Psi4 1.9.1 release

  ==> Input File <==

--------------------------------------------------------------------------
molecule {
-1 4
F   0.00000        0.60000        0.00000
P   0.00000       -0.60000        0.00000
}

set {
basis              cc-pvdz
reference          uks
maxiter            500
geom_maxiter       500
DAMPING_PERCENTAGE 1
guess              SAP
}

optimize('b3lyp')
--------------------------------------------------------------------------

    Molecular point group: c2v
  Charge       = -1
  Multiplicity = 4
  Basis Set: CC-PVDZ
    Blend: CC-PVDZ
  Basis Set: (CC-PVDZ AUX)
    Blend: CC-PVDZ-JKFIT
  @DF-UKS Final Energy:  -440.74261691922084
    Total Energy =                       -440.7426169192208363
 Dipole X            :          0.0000000            0.0000000            0.0000000
 Dipole Y            :          0.0000000            0.0000000            0.0000000
 Dipole Z            :          1.3649666           -0.2819010            1.0830655
 Magnitude           :                                                    1.0830655
    Molecular point group: c2v
  Basis Set: CC-PVDZ
    Blend: CC-PVDZ
  Basis Set: (CC-PVDZ AUX)
    Blend: CC-PVDZ-JKFIT
  Basis Set: CC-PVDZ
    Blend: CC-PVDZ
  Basis Set: (CC-PVDZ AUX)
    Blend: CC-PVDZ-JKFIT
  @DF-UKS Final Energy:  -440.91395228300502
    Total Energy =                       -440.9139522830050169
  Basis Set: CC-PVDZ
    Blend: CC-PVDZ
  Basis Set: (CC-PVDZ AUX)
    Blend: CC-PVDZ-JKFIT
  Basis Set: CC-PVDZ
    Blend: CC-PVDZ
  @DF-UKS Final Energy:  -441.00972234751436
    Total Energy =                       -441.0097223475143551
  @DF-UKS Final Energy:  -441.05039707994388
    Total Energy =                       -441.0503970799438775
  @DF-UKS Final Energy:  -441.08022456633449
    Total Energy =                       -441.0802245663345502
  @DF-UKS Final Energy:  -441.10079668297101
    Total Energy =                       -441.1007966829709517
  @DF-UKS Final Energy:  -441.11186694447213
    Total Energy =                       -441.1118669444720695
  @DF-UKS Final Energy:  -441.11696361780537
    Total Energy =                       -441.1169636178053111
  @DF-UKS Final Energy:  -441.11882220203489
    Total Energy =                       -441.1188222020348917
  @DF-UKS Final Energy:  -441.11930752812924
    Total Energy =                       -441.1193075281292408
  @DF-UKS Final Energy:  -441.11937915301178
    Total Energy =                       -441.1193791530117778
  @DF-UKS Final Energy:  -441.11939089778457
    Total Energy =                       -441.1193908977846263
  Basis Set: (CC-PVDZ AUX)
    Blend: CC-PVDZ-JKFIT
  Basis Set: CC-PVDZ
    Blend: CC-PVDZ
  Basis Set: (CC-PVDZ AUX)
    Blend: CC-PVDZ-JKFIT
  @DF-UKS Final Energy:  -441.11939324687478
    Total Energy =                       -441.1193932468747789
  Basis Set: CC-PVDZ
    Blend: CC-PVDZ
  Basis Set: (CC-PVDZ AUX)
    Blend: CC-PVDZ-JKFIT
  Charge       = -1
  Multiplicity = 4
  Basis Set: CC-PVDZ
    Blend: CC-PVDZ
  Basis Set: (CC-PVDZ AUX)
    Blend: CC-PVDZ-JKFIT

    Orbital Energies [Eh]
    ---------------------

    Alpha Occupied:

       1A1   -76.840747     2A1   -24.309794     3A1    -6.305875
       1B1    -4.470142     1B2    -4.470142     4A1    -4.466568
       5A1    -0.772310     6A1    -0.321305     7A1    -0.088264
       2B2    -0.051848     2B1    -0.051848     3B2     0.015337
       3B1     0.015337     8A1     0.092860

    Alpha Virtual:

       9A1     0.581769     4B2     0.641116     4B1     0.641116
      10A1     0.647398    11A1     0.695767     1A2     0.695767
       5B2     0.714526     5B1     0.714526    12A1     0.814241
       6B2     1.498557     6B1     1.498557    13A1     1.555050
      14A1     2.181629     7B2     3.932307     7B1     3.932307
      15A1     3.941123     2A2     3.941232    16A1     3.959138

    Beta Occupied:

       1A1   -76.830481     2A1   -24.295835     3A1    -6.294867
       1B1    -4.453628     1B2    -4.453628     4A1    -4.451924
       5A1    -0.738055     6A1    -0.225160     7A1    -0.027734
       2B2    -0.019239     2B1    -0.019239

    Beta Virtual:

       3B2     0.145645     3B1     0.145645     8A1     0.220948
       9A1     0.622620     4B2     0.691827     4B1     0.691827
      10A1     0.692825    11A1     0.787281     1A2     0.787282
       5B2     0.792594     5B1     0.792594    12A1     0.877775
       6B2     1.514108     6B1     1.514108    13A1     1.581363
      14A1     2.208124    15A1     3.959732     2A2     3.959839
       7B2     3.963952     7B1     3.963952    16A1     3.995018

    Final Occupation by Irrep:
             A1    A2    B1    B2
    DOCC [     7,    0,    2,    2 ]
    SOCC [     1,    0,    1,    1 ]
    NA   [     8,    0,    3,    3 ]
    NB   [     7,    0,    2,    2 ]

  @DF-UKS Final Energy:  -441.11939350420278

   => Energetics <=

    Nuclear Repulsion Energy =             32.9054600784193383
    One-Electron Energy =                -684.6836120098101901
    Two-Electron Energy =                 238.0349565409079560
    DFT Exchange-Correlation Energy =     -27.3761981137197807
    Empirical Dispersion Energy =           0.0000000000000000
    VV10 Nonlocal Energy =                  0.0000000000000000
    Total Energy =                       -441.1193935042027192

  UHF NO Occupations:
  HONO-2 :    8 A1 1.0000000
  HONO-1 :    3 B1 1.0000000
  HONO-0 :    3 B2 1.0000000
  LUNO+0 :    9 A1 0.0005802
  LUNO+1 :    4 B2 0.0001658
  LUNO+2 :    4 B1 0.0001658
  LUNO+3 :   10 A1 0.0000312

Computation Completed

Properties will be evaluated at   0.000000,   0.000000,   0.000000 [a0]

Properties computed using the SCF density matrix

 Multipole Moments:

 ------------------------------------------------------------------------------------
     Multipole            Electronic (a.u.)      Nuclear  (a.u.)        Total (a.u.)
 ------------------------------------------------------------------------------------

 L = 1.  Multiply by 2.5417464519 to convert [e a0] to [Debye]
 Dipole X            :          0.0000000            0.0000000            0.0000000
 Dipole Y            :          0.0000000            0.0000000            0.0000000
 Dipole Z            :          0.1947865           -0.5100143           -0.3152277
 Magnitude           :                                                    0.3152277

 ------------------------------------------------------------------------------------

*** tstop() called on Joses-MacBook-Pro-2.local at Thu Jul 17 10:54:31 2025
Module time:
	user time   =       3.13 seconds =       0.05 minutes
	system time =       4.19 seconds =       0.07 minutes
	total time  =          1 seconds =       0.02 minutes
Total time:
	user time   =      72.94 seconds =       1.22 minutes
	system time =      75.66 seconds =       1.26 minutes
	total time  =         15 seconds =       0.25 minutes

*** tstart() called on Joses-MacBook-Pro-2.local
*** at Thu Jul 17 10:54:31 2025

         ------------------------------------------------------------
                                   SCF GRAD
                          Rob Parrish, Justin Turney,
                       Andy Simmonett, and Alex Sokolov
         ------------------------------------------------------------

  ==> Geometry <==

    Molecular point group: c2v
    Full point group: C_inf_v

    Geometry (in Angstrom), charge = -1, multiplicity = 4:

       Center              X                  Y                   Z               Mass
    ------------   -----------------  -----------------  -----------------  -----------------
         F            0.000000000000     0.000000000000     1.345651885015    18.998403162730
         P            0.000000000000     0.000000000000    -0.825383659548    30.973761998420

  Nuclear repulsion =   32.905460078419338

  ==> Basis Set <==

  Basis Set: CC-PVDZ
    Blend: CC-PVDZ
    Number of shells: 14
    Number of basis functions: 32
    Number of Cartesian functions: 34
    Spherical Harmonics?: true
    Max angular momentum: 2

  ==> DFJKGrad: Density-Fitted SCF Gradients <==

    Gradient:                    1
    J tasked:                  Yes
    K tasked:                  Yes
    wK tasked:                  No
    OpenMP threads:              1
    Integrals threads:           1
    Memory [MiB]:              375
    Schwarz Cutoff:          1E-12
    Fitting Condition:       1E-10

   => Auxiliary Basis Set <=

  Basis Set: (CC-PVDZ AUX)
    Blend: CC-PVDZ-JKFIT
    Number of shells: 60
    Number of basis functions: 182
    Number of Cartesian functions: 211
    Spherical Harmonics?: true
    Max angular momentum: 3

  ==> DFT Potential <==

   => LibXC <=

    Version 6.2.2
    S. Lehtola, C. Steigemann, M. J.T. Oliveira, and M. A.L. Marques.,  SoftwareX 7, 1â€“5 (2018) (10.1016/j.softx.2017.11.002)

   => Composite Functional: B3LYP <=

    B3LYP Hyb-GGA Exchange-Correlation Functional

    P. J. Stephens, F. J. Devlin, C. F. Chabalowski, and M. J. Frisch.,  J. Phys. Chem. 98, 11623 (1994) (10.1021/j100096a001)

    Deriv               =              1
    GGA                 =           TRUE
    Meta                =          FALSE

    Exchange Hybrid     =           TRUE
    MP2 Hybrid          =          FALSE

   => Exchange Functionals <=

    0.0800   Slater exchange
    0.7200         Becke 88

   => Exact (HF) Exchange <=

    0.2000               HF

   => Correlation Functionals <=

    0.1900   Vosko, Wilk & Nusair (VWN5_RPA)
    0.8100   Lee, Yang & Parr

   => LibXC Density Thresholds  <==

    XC_HYB_GGA_XC_B3LYP:  1.00E-15

   => Molecular Quadrature <=

    Radial Scheme          =       TREUTLER
    Pruning Scheme         =           NONE
    Nuclear Scheme         =       TREUTLER

    Blocking Scheme        =         OCTREE
    BS radius alpha        =              1
    Pruning alpha          =              1
    Radial Points          =             75
    Spherical Points       =            302
    Total Points           =          42552
    Total Blocks           =            383
    Max Points             =            253
    Max Functions          =             32
    Weights Tolerance      =       1.00E-15

  -Total Gradient:
     Atom            X                  Y                   Z
    ------   -----------------  -----------------  -----------------
       1        0.000000000000    -0.000000000000     0.000001141148
       2       -0.000000000000     0.000000000000     0.000036607716

*** tstop() called on Joses-MacBook-Pro-2.local at Thu Jul 17 10:54:31 2025
Module time:
	user time   =       0.91 seconds =       0.02 minutes
	system time =       1.52 seconds =       0.03 minutes
	total time  =          0 seconds =       0.00 minutes
Total time:
	user time   =      73.86 seconds =       1.23 minutes
	system time =      77.18 seconds =       1.29 minutes
	total time  =         15 seconds =       0.25 minutes

    			-----------------------------------------

    			 OPTKING 3.0: for geometry optimizations

    			     By R.A. King, Bethel University

    			        with contributions from

    			    A.V. Copan, J. Cayton, A. Heide

    			-----------------------------------------

	                            ===> Fragment 1 <==

	 Z (Atomic Numbers)          Masses                          Geom
	       9.000000            18.998403          0.00000000  0.00000000  2.54291352
	      15.000000            30.973762          0.00000000  0.00000000 -1.55974906

	 - Coordinate -           - BOHR/RAD -       - ANG/DEG -
	 R(1,2)           =         4.102663           2.171036

	        --- Internal Coordinate Step in ANG or DEG, aJ/ANG or AJ/DEG ---
	-------------------------------------------------------------------------------
	           Coordinate      Previous         Force          Change          New
	           ----------      --------        ------          ------        ------
	               R(1,2)       2.17104        0.00015        0.00022       2.17126
	-------------------------------------------------------------------------------

	                                 ==> Convergence Check <==

	Measures of convergence in internal coordinates in au.

	Criteria marked as inactive (o), active & met (*), and active & unmet ( ).

	----------------------------------------------------------------------------------------------
	   Step    Total Energy     Delta E     Max Force     RMS Force      Max Disp      RMS Disp
	----------------------------------------------------------------------------------------------
	  Convergence Criteria     1.00e-06 *    3.00e-04 *             o    1.20e-03 *             o
	----------------------------------------------------------------------------------------------
	    14    -441.11939350   -2.57e-07 *    1.77e-05 *    1.77e-05 o    4.18e-04 *    4.18e-04 o  ~
	----------------------------------------------------------------------------------------------

Next Geometry in Ang
	Fragment 1 (Ang)

	    F   0.0000000000   0.0000000000   1.3457624581
	    P   0.0000000000   0.0000000000  -0.8254942326

    Final optimized geometry and variables:
    Molecular point group: c2v
    Full point group: C_inf_v

    Geometry (in Angstrom), charge = -1, multiplicity = 4:

    F            0.000000000000     0.000000000000     1.345651885015
    P            0.000000000000     0.000000000000    -0.825383659548

    Psi4 stopped on: Thursday, 17 July 2025 10:54AM
    Psi4 wall time for execution: 0:00:15.31

*** Psi4 exiting successfully. Buy a developer a beer!
