                               Psi4 1.9.1 release

  ==> Input File <==

--------------------------------------------------------------------------
molecule {
-1 4
H   0.00000        0.60000        0.00000
Na   0.00000       -0.60000        0.00000
}

set {
basis              cc-pvdz
reference          uks
maxiter            500
geom_maxiter       500
DAMPING_PERCENTAGE 1
guess              SAP
}

optimize('b3lyp')
--------------------------------------------------------------------------

    Molecular point group: c2v
  Charge       = -1
  Multiplicity = 4
  Basis Set: CC-PVDZ
    Blend: CC-PVDZ
  Basis Set: (CC-PVDZ AUX)
    Blend: CC-PVDZ-JKFIT + DEF2-UNIVERSAL-JKFIT
  @DF-UKS Final Energy:  -162.64097454830559
    Total Energy =                       -162.6409745483055929
 Dipole X            :          0.0000000            0.0000000            0.0000000
 Dipole Y            :          0.0000000            0.0000000            0.0000000
 Dipole Z            :          0.4542662            1.1248488            1.5791150
 Magnitude           :                                                    1.5791150
    Molecular point group: c2v
  Basis Set: CC-PVDZ
    Blend: CC-PVDZ
  Basis Set: (CC-PVDZ AUX)
    Blend: CC-PVDZ-JKFIT + DEF2-UNIVERSAL-JKFIT
  Basis Set: CC-PVDZ
    Blend: CC-PVDZ
  Basis Set: (CC-PVDZ AUX)
    Blend: CC-PVDZ-JKFIT + DEF2-UNIVERSAL-JKFIT
  @DF-UKS Final Energy:  -162.70373350616626
    Total Energy =                       -162.7037335061662588
  Basis Set: CC-PVDZ
    Blend: CC-PVDZ
  Basis Set: (CC-PVDZ AUX)
    Blend: CC-PVDZ-JKFIT + DEF2-UNIVERSAL-JKFIT
  Basis Set: CC-PVDZ
    Blend: CC-PVDZ
  @DF-UKS Final Energy:  -162.73090458749419
    Total Energy =                       -162.7309045874941660
  @DF-UKS Final Energy:  -162.74728908257799
    Total Energy =                       -162.7472890825780212
  @DF-UKS Final Energy:  -162.75711624932998
    Total Energy =                       -162.7571162493300108
  @DF-UKS Final Energy:  -162.76327670375858
    Total Energy =                       -162.7632767037585779
  @DF-UKS Final Energy:  -162.76735724640920
    Total Energy =                       -162.7673572464092047
  @DF-UKS Final Energy:  -162.77031199177065
    Total Energy =                       -162.7703119917706545
  @DF-UKS Final Energy:  -162.77058079235280
    Total Energy =                       -162.7705807923527743
  @DF-UKS Final Energy:  -162.77291107407737
    Total Energy =                       -162.7729110740773422
  @DF-UKS Final Energy:  -162.77303256864809
    Total Energy =                       -162.7730325686480910
  @DF-UKS Final Energy:  -162.77449631307297
    Total Energy =                       -162.7744963130729730
  @DF-UKS Final Energy:  -162.77454951442090
    Total Energy =                       -162.7745495144208974
  @DF-UKS Final Energy:  -162.77542356461896
    Total Energy =                       -162.7754235646189613
  @DF-UKS Final Energy:  -162.77544576942202
    Total Energy =                       -162.7754457694219923
  @DF-UKS Final Energy:  -162.77596389806362
    Total Energy =                       -162.7759638980636225
  @DF-UKS Final Energy:  -162.77597307890738
    Total Energy =                       -162.7759730789073558
  @DF-UKS Final Energy:  -162.77629148462896
    Total Energy =                       -162.7762914846289561
  @DF-UKS Final Energy:  -162.77629541617293
    Total Energy =                       -162.7762954161729283
  @DF-UKS Final Energy:  -162.77629929607016
    Total Energy =                       -162.7762992960701638
  @DF-UKS Final Energy:  -162.77650188417857
    Total Energy =                       -162.7765018841785718
  @DF-UKS Final Energy:  -162.77650365900004
    Total Energy =                       -162.7765036590000420
  @DF-UKS Final Energy:  -162.77650541460133
    Total Energy =                       -162.7765054146013313
  @DF-UKS Final Energy:  -162.77650715634667
    Total Energy =                       -162.7765071563466677
  @DF-UKS Final Energy:  -162.77650888435528
    Total Energy =                       -162.7765088843552803
  Basis Set: (CC-PVDZ AUX)
    Blend: CC-PVDZ-JKFIT + DEF2-UNIVERSAL-JKFIT
  Basis Set: CC-PVDZ
    Blend: CC-PVDZ
  Basis Set: (CC-PVDZ AUX)
    Blend: CC-PVDZ-JKFIT + DEF2-UNIVERSAL-JKFIT
  @DF-UKS Final Energy:  -162.77664256077824
    Total Energy =                       -162.7766425607782423
  Basis Set: CC-PVDZ
    Blend: CC-PVDZ
  Basis Set: (CC-PVDZ AUX)
    Blend: CC-PVDZ-JKFIT + DEF2-UNIVERSAL-JKFIT
  Charge       = -1
  Multiplicity = 4
  Basis Set: CC-PVDZ
    Blend: CC-PVDZ
  Basis Set: (CC-PVDZ AUX)
    Blend: CC-PVDZ-JKFIT + DEF2-UNIVERSAL-JKFIT

    Orbital Energies [Eh]
    ---------------------

    Alpha Occupied:

       1A1   -38.341680     2A1    -2.086490     3A1    -1.017827
       1B1    -1.017817     1B2    -1.016662     4A1    -0.235467
       5A1    -0.000608     2B2     0.053870

    Alpha Virtual:

       2B1     0.088424     6A1     0.090552     7A1     0.159142
       3B2     0.185355     3B1     0.192816     8A1     0.195506
       1A2     0.288087     4B2     0.288173     9A1     0.289587
      10A1     0.292411     4B1     0.292774    11A1     0.523706
       5B1     1.294011     5B2     1.294193    12A1     1.296725

    Beta Occupied:

       1A1   -38.340294     2A1    -2.083799     3A1    -1.016179
       1B1    -1.016168     1B2    -1.014370

    Beta Virtual:

       4A1     0.053019     5A1     0.068744     2B1     0.114031
       2B2     0.117853     6A1     0.122140     7A1     0.184690
       3B1     0.212017     8A1     0.216292     3B2     0.220128
       9A1     0.316702     4B1     0.316733     4B2     0.325713
       1A2     0.325716    10A1     0.329429    11A1     0.740399
       5B1     1.542035     5B2     1.542185    12A1     1.544490

    Final Occupation by Irrep:
             A1    A2    B1    B2
    DOCC [     3,    0,    1,    1 ]
    SOCC [     2,    0,    0,    1 ]
    NA   [     5,    0,    1,    2 ]
    NB   [     3,    0,    1,    1 ]

  @DF-UKS Final Energy:  -162.77664337609934

   => Energetics <=

    Nuclear Repulsion Energy =              1.0404413133438606
    One-Electron Energy =                -231.9476279882450740
    Two-Electron Energy =                  80.0894151324775407
    DFT Exchange-Correlation Energy =     -11.9588718336756710
    Empirical Dispersion Energy =           0.0000000000000000
    VV10 Nonlocal Energy =                  0.0000000000000000
    Total Energy =                       -162.7766433760993436

  UHF NO Occupations:
  HONO-2 :    4 A1 1.0000000
  HONO-1 :    2 B2 1.0000000
  HONO-0 :    5 A1 1.0000000
  LUNO+0 :    2 B1 0.0000004
  LUNO+1 :    6 A1 0.0000004
  LUNO+2 :    3 B2 0.0000003
  LUNO+3 :    7 A1 0.0000000

Computation Completed

Properties will be evaluated at   0.000000,   0.000000,   0.000000 [a0]

Properties computed using the SCF density matrix

 Multipole Moments:

 ------------------------------------------------------------------------------------
     Multipole            Electronic (a.u.)      Nuclear  (a.u.)        Total (a.u.)
 ------------------------------------------------------------------------------------

 L = 1.  Multiply by 2.5417464519 to convert [e a0] to [Debye]
 Dipole X            :          0.0000000            0.0000000            0.0000000
 Dipole Y            :          0.0000000            0.0000000            0.0000000
 Dipole Z            :         -4.7536021            5.2443195            0.4907174
 Magnitude           :                                                    0.4907174

 ------------------------------------------------------------------------------------

*** tstop() called on Joses-MacBook-Pro-2.local at Thu Jul 17 09:13:11 2025
Module time:
	user time   =       1.13 seconds =       0.02 minutes
	system time =       1.98 seconds =       0.03 minutes
	total time  =          1 seconds =       0.02 minutes
Total time:
	user time   =      80.89 seconds =       1.35 minutes
	system time =     115.03 seconds =       1.92 minutes
	total time  =         19 seconds =       0.32 minutes

*** tstart() called on Joses-MacBook-Pro-2.local
*** at Thu Jul 17 09:13:11 2025

         ------------------------------------------------------------
                                   SCF GRAD
                          Rob Parrish, Justin Turney,
                       Andy Simmonett, and Alex Sokolov
         ------------------------------------------------------------

  ==> Geometry <==

    Molecular point group: c2v
    Full point group: C_inf_v

    Geometry (in Angstrom), charge = -1, multiplicity = 4:

       Center              X                  Y                   Z               Mass
    ------------   -----------------  -----------------  -----------------  -----------------
         H            0.000000000000     0.000000000000     5.359732747073     1.007825032230
         NA           0.000000000000     0.000000000000    -0.234959853764    22.989769282000

  Nuclear repulsion =    1.040441313343861

  ==> Basis Set <==

  Basis Set: CC-PVDZ
    Blend: CC-PVDZ
    Number of shells: 11
    Number of basis functions: 23
    Number of Cartesian functions: 24
    Spherical Harmonics?: true
    Max angular momentum: 2

  ==> DFJKGrad: Density-Fitted SCF Gradients <==

    Gradient:                    1
    J tasked:                  Yes
    K tasked:                  Yes
    wK tasked:                  No
    OpenMP threads:              1
    Integrals threads:           1
    Memory [MiB]:              375
    Schwarz Cutoff:          1E-12
    Fitting Condition:       1E-10

   => Auxiliary Basis Set <=

  Basis Set: (CC-PVDZ AUX)
    Blend: CC-PVDZ-JKFIT + DEF2-UNIVERSAL-JKFIT
    Number of shells: 43
    Number of basis functions: 135
    Number of Cartesian functions: 162
    Spherical Harmonics?: true
    Max angular momentum: 4

  ==> DFT Potential <==

   => LibXC <=

    Version 6.2.2
    S. Lehtola, C. Steigemann, M. J.T. Oliveira, and M. A.L. Marques.,  SoftwareX 7, 1â€“5 (2018) (10.1016/j.softx.2017.11.002)

   => Composite Functional: B3LYP <=

    B3LYP Hyb-GGA Exchange-Correlation Functional

    P. J. Stephens, F. J. Devlin, C. F. Chabalowski, and M. J. Frisch.,  J. Phys. Chem. 98, 11623 (1994) (10.1021/j100096a001)

    Deriv               =              1
    GGA                 =           TRUE
    Meta                =          FALSE

    Exchange Hybrid     =           TRUE
    MP2 Hybrid          =          FALSE

   => Exchange Functionals <=

    0.0800   Slater exchange
    0.7200         Becke 88

   => Exact (HF) Exchange <=

    0.2000               HF

   => Correlation Functionals <=

    0.1900   Vosko, Wilk & Nusair (VWN5_RPA)
    0.8100   Lee, Yang & Parr

   => LibXC Density Thresholds  <==

    XC_HYB_GGA_XC_B3LYP:  1.00E-15

   => Molecular Quadrature <=

    Radial Scheme          =       TREUTLER
    Pruning Scheme         =           NONE
    Nuclear Scheme         =       TREUTLER

    Blocking Scheme        =         OCTREE
    BS radius alpha        =              1
    Pruning alpha          =              1
    Radial Points          =             75
    Spherical Points       =            302
    Total Points           =          43933
    Total Blocks           =            433
    Max Points             =            256
    Max Functions          =             23
    Weights Tolerance      =       1.00E-15

  -Total Gradient:
     Atom            X                  Y                   Z
    ------   -----------------  -----------------  -----------------
       1       -0.000000000000     0.000000000000    -0.000143910489
       2        0.000000000000    -0.000000000000     0.000141476194

*** tstop() called on Joses-MacBook-Pro-2.local at Thu Jul 17 09:13:11 2025
Module time:
	user time   =       0.73 seconds =       0.01 minutes
	system time =       1.05 seconds =       0.02 minutes
	total time  =          0 seconds =       0.00 minutes
Total time:
	user time   =      81.62 seconds =       1.36 minutes
	system time =     116.08 seconds =       1.93 minutes
	total time  =         19 seconds =       0.32 minutes

    			-----------------------------------------

    			 OPTKING 3.0: for geometry optimizations

    			     By R.A. King, Bethel University

    			        with contributions from

    			    A.V. Copan, J. Cayton, A. Heide

    			-----------------------------------------

	                            ===> Fragment 1 <==

	 Z (Atomic Numbers)          Masses                          Geom
	       1.000000             1.007825          0.00000000   0.00000000  10.12842700
	      11.000000            22.989769          0.00000000  0.00000000 -0.44400977

	 - Coordinate -           - BOHR/RAD -       - ANG/DEG -
	 R(1,2)           =        10.572437           5.594693

	        --- Internal Coordinate Step in ANG or DEG, aJ/ANG or AJ/DEG ---
	-------------------------------------------------------------------------------
	           Coordinate      Previous         Force          Change          New
	           ----------      --------        ------          ------        ------
	               R(1,2)       5.59469        0.00118        0.00298       5.59767
	-------------------------------------------------------------------------------

	                                 ==> Convergence Check <==

	Measures of convergence in internal coordinates in au.

	Criteria marked as inactive (o), active & met (*), and active & unmet ( ).

	----------------------------------------------------------------------------------------------
	   Step    Total Energy     Delta E     Max Force     RMS Force      Max Disp      RMS Disp
	----------------------------------------------------------------------------------------------
	  Convergence Criteria     1.00e-06 *    3.00e-04 *             o    1.20e-03 *             o
	----------------------------------------------------------------------------------------------
	    27    -162.77664338   -8.15e-07 *    1.43e-04 *    1.43e-04 o    5.62e-03      5.62e-03 o  ~
	----------------------------------------------------------------------------------------------

Next Geometry in Ang
	Fragment 1 (Ang)

	    H   0.0000000000   0.0000000000   5.3612208154
	   Na   0.0000000000   0.0000000000  -0.2364479221

    Final optimized geometry and variables:
    Molecular point group: c2v
    Full point group: C_inf_v

    Geometry (in Angstrom), charge = -1, multiplicity = 4:

    H            0.000000000000     0.000000000000     5.359732747073
    NA           0.000000000000     0.000000000000    -0.234959853764

    Psi4 stopped on: Thursday, 17 July 2025 09:13AM
    Psi4 wall time for execution: 0:00:19.54

*** Psi4 exiting successfully. Buy a developer a beer!
