                               Psi4 1.9.1 release

  ==> Input File <==

--------------------------------------------------------------------------
molecule {
-1 4
H   0.00000        0.60000        0.00000
Li   0.00000       -0.60000        0.00000
}

set {
basis              cc-pvdz
reference          uks
maxiter            500
geom_maxiter       500
DAMPING_PERCENTAGE 1
guess              SAP
}

optimize('b3lyp')
--------------------------------------------------------------------------

    Molecular point group: c2v
  Charge       = -1
  Multiplicity = 4
  Basis Set: CC-PVDZ
    Blend: CC-PVDZ
  Basis Set: (CC-PVDZ AUX)
    Blend: CC-PVDZ-JKFIT + DEF2-UNIVERSAL-JKFIT
  @DF-UKS Final Energy:    -7.91018606854776
    Total Energy =                         -7.9101860685477607
 Dipole X            :          0.0000000            0.0000000            0.0000000
 Dipole Y            :          0.0000000            0.0000000            0.0000000
 Dipole Z            :          0.6080629            1.1283569            1.7364198
 Magnitude           :                                                    1.7364198
    Molecular point group: c2v
  Basis Set: CC-PVDZ
    Blend: CC-PVDZ
  Basis Set: (CC-PVDZ AUX)
    Blend: CC-PVDZ-JKFIT + DEF2-UNIVERSAL-JKFIT
  Basis Set: CC-PVDZ
    Blend: CC-PVDZ
  Basis Set: (CC-PVDZ AUX)
    Blend: CC-PVDZ-JKFIT + DEF2-UNIVERSAL-JKFIT
  @DF-UKS Final Energy:    -7.93899533586791
    Total Energy =                         -7.9389953358679088
  Basis Set: CC-PVDZ
    Blend: CC-PVDZ
  Basis Set: (CC-PVDZ AUX)
    Blend: CC-PVDZ-JKFIT + DEF2-UNIVERSAL-JKFIT
  Basis Set: CC-PVDZ
    Blend: CC-PVDZ
  @DF-UKS Final Energy:    -7.95258895373771
    Total Energy =                         -7.9525889537377088
  @DF-UKS Final Energy:    -7.96056979281365
    Total Energy =                         -7.9605697928136454
  @DF-UKS Final Energy:    -7.96528575774103
    Total Energy =                         -7.9652857577410350
  @DF-UKS Final Energy:    -7.96855402114246
    Total Energy =                         -7.9685540211424586
  @DF-UKS Final Energy:    -7.97128207456869
    Total Energy =                         -7.9712820745686912
  @DF-UKS Final Energy:    -7.97170206406243
    Total Energy =                         -7.9717020640624314
  @DF-UKS Final Energy:    -7.97439928827879
    Total Energy =                         -7.9743992882787920
  @DF-UKS Final Energy:    -7.97465628273972
    Total Energy =                         -7.9746562827397209
  @DF-UKS Final Energy:    -7.97643887796306
    Total Energy =                         -7.9764388779630586
  @DF-UKS Final Energy:    -7.97656382574159
    Total Energy =                         -7.9765638257415894
  @DF-UKS Final Energy:    -7.97757669156326
    Total Energy =                         -7.9775766915632556
  @DF-UKS Final Energy:    -7.97763012349790
    Total Energy =                         -7.9776301234978995
  @DF-UKS Final Energy:    -7.97823136197386
    Total Energy =                         -7.9782313619738572
  @DF-UKS Final Energy:    -7.97825419425411
    Total Energy =                         -7.9782541942541112
  @DF-UKS Final Energy:    -7.97862663239952
    Total Energy =                         -7.9786266323995214
  @DF-UKS Final Energy:    -7.97863655214601
    Total Energy =                         -7.9786365521460132
  @DF-UKS Final Energy:    -7.97887032641873
    Total Energy =                         -7.9788703264187335
  @DF-UKS Final Energy:    -7.97887461209603
    Total Energy =                         -7.9788746120960319
  @DF-UKS Final Energy:    -7.97887881533275
    Total Energy =                         -7.9788788153327479
  @DF-UKS Final Energy:    -7.97902291506962
    Total Energy =                         -7.9790229150696153
  @DF-UKS Final Energy:    -7.97902474210604
    Total Energy =                         -7.9790247421060450
  @DF-UKS Final Energy:    -7.97902654630951
    Total Energy =                         -7.9790265463095071
  @DF-UKS Final Energy:    -7.97902832801063
    Total Energy =                         -7.9790283280106253
  Basis Set: (CC-PVDZ AUX)
    Blend: CC-PVDZ-JKFIT + DEF2-UNIVERSAL-JKFIT
  Basis Set: CC-PVDZ
    Blend: CC-PVDZ
  Basis Set: (CC-PVDZ AUX)
    Blend: CC-PVDZ-JKFIT + DEF2-UNIVERSAL-JKFIT
  @DF-UKS Final Energy:    -7.97911814718981
    Total Energy =                         -7.9791181471898147
  Basis Set: CC-PVDZ
    Blend: CC-PVDZ
  Basis Set: (CC-PVDZ AUX)
    Blend: CC-PVDZ-JKFIT + DEF2-UNIVERSAL-JKFIT
  Charge       = -1
  Multiplicity = 4
  Basis Set: CC-PVDZ
    Blend: CC-PVDZ
  Basis Set: (CC-PVDZ AUX)
    Blend: CC-PVDZ-JKFIT + DEF2-UNIVERSAL-JKFIT

    Orbital Energies [Eh]
    ---------------------

    Alpha Occupied:

       1A1    -1.866212     2A1    -0.236048     3A1     0.010696
       1B1     0.059282

    Alpha Virtual:

       1B2     0.098267     4A1     0.099536     2B1     0.194391
       2B2     0.207118     5A1     0.208506     6A1     0.210831
       1A2     0.364837     3B1     0.364853     7A1     0.367253
       8A1     0.374053     3B2     0.374219     9A1     0.515087
       4B2     1.293253     4B1     1.293376    10A1     1.295384

    Beta Occupied:

       1A1    -1.859856

    Beta Virtual:

       2A1     0.050273     3A1     0.086386     1B2     0.116885
       4A1     0.123520     1B1     0.129263     2B2     0.226125
       5A1     0.228560     6A1     0.235691     2B1     0.236673
       7A1     0.406728     3B2     0.408470     3B1     0.420624
       1A2     0.421554     8A1     0.426397     9A1     0.726578
       4B2     1.535493     4B1     1.535624    10A1     1.537837

    Final Occupation by Irrep:
             A1    A2    B1    B2
    DOCC [     1,    0,    0,    0 ]
    SOCC [     2,    0,    1,    0 ]
    NA   [     3,    0,    1,    0 ]
    NB   [     1,    0,    0,    0 ]

  @DF-UKS Final Energy:    -7.97911889742525

   => Energetics <=

    Nuclear Repulsion Energy =              0.2705878407183709
    One-Electron Energy =                 -11.2910679970921386
    Two-Electron Energy =                   4.8588261149689282
    DFT Exchange-Correlation Energy =      -1.8174648560204076
    Empirical Dispersion Energy =           0.0000000000000000
    VV10 Nonlocal Energy =                  0.0000000000000000
    Total Energy =                         -7.9791188974252476

  UHF NO Occupations:
  HONO-2 :    1 B1 1.0000000
  HONO-1 :    2 A1 1.0000000
  HONO-0 :    3 A1 1.0000000
  LUNO+0 :    4 A1 0.0000004
  LUNO+1 :    5 A1 0.0000000
  LUNO+2 :    2 B1 0.0000000
  LUNO+3 :    6 A1 0.0000000

Computation Completed

Properties will be evaluated at   0.000000,   0.000000,   0.000000 [a0]

Properties computed using the SCF density matrix

 Multipole Moments:

 ------------------------------------------------------------------------------------
     Multipole            Electronic (a.u.)      Nuclear  (a.u.)        Total (a.u.)
 ------------------------------------------------------------------------------------

 L = 1.  Multiply by 2.5417464519 to convert [e a0] to [Debye]
 Dipole X            :          0.0000000            0.0000000            0.0000000
 Dipole Y            :          0.0000000            0.0000000            0.0000000
 Dipole Z            :         -4.0984464            5.5166998            1.4182534
 Magnitude           :                                                    1.4182534

 ------------------------------------------------------------------------------------

*** tstop() called on Joses-MacBook-Pro-2.local at Thu Jul 17 09:10:12 2025
Module time:
	user time   =       0.43 seconds =       0.01 minutes
	system time =       2.63 seconds =       0.04 minutes
	total time  =          0 seconds =       0.00 minutes
Total time:
	user time   =      29.81 seconds =       0.50 minutes
	system time =     105.46 seconds =       1.76 minutes
	total time  =         14 seconds =       0.23 minutes

*** tstart() called on Joses-MacBook-Pro-2.local
*** at Thu Jul 17 09:10:12 2025

         ------------------------------------------------------------
                                   SCF GRAD
                          Rob Parrish, Justin Turney,
                       Andy Simmonett, and Alex Sokolov
         ------------------------------------------------------------

  ==> Geometry <==

    Molecular point group: c2v
    Full point group: C_inf_v

    Geometry (in Angstrom), charge = -1, multiplicity = 4:

       Center              X                  Y                   Z               Mass
    ------------   -----------------  -----------------  -----------------  -----------------
         H            0.000000000000     0.000000000000     5.130057910755     1.007825032230
         LI           0.000000000000     0.000000000000    -0.736915371546     7.016003436600

  Nuclear repulsion =    0.270587840718371

  ==> Basis Set <==

  Basis Set: CC-PVDZ
    Blend: CC-PVDZ
    Number of shells: 9
    Number of basis functions: 19
    Number of Cartesian functions: 20
    Spherical Harmonics?: true
    Max angular momentum: 2

  ==> DFJKGrad: Density-Fitted SCF Gradients <==

    Gradient:                    1
    J tasked:                  Yes
    K tasked:                  Yes
    wK tasked:                  No
    OpenMP threads:              1
    Integrals threads:           1
    Memory [MiB]:              375
    Schwarz Cutoff:          1E-12
    Fitting Condition:       1E-10

   => Auxiliary Basis Set <=

  Basis Set: (CC-PVDZ AUX)
    Blend: CC-PVDZ-JKFIT + DEF2-UNIVERSAL-JKFIT
    Number of shells: 26
    Number of basis functions: 74
    Number of Cartesian functions: 85
    Spherical Harmonics?: true
    Max angular momentum: 3

  ==> DFT Potential <==

   => LibXC <=

    Version 6.2.2
    S. Lehtola, C. Steigemann, M. J.T. Oliveira, and M. A.L. Marques.,  SoftwareX 7, 1â€“5 (2018) (10.1016/j.softx.2017.11.002)

   => Composite Functional: B3LYP <=

    B3LYP Hyb-GGA Exchange-Correlation Functional

    P. J. Stephens, F. J. Devlin, C. F. Chabalowski, and M. J. Frisch.,  J. Phys. Chem. 98, 11623 (1994) (10.1021/j100096a001)

    Deriv               =              1
    GGA                 =           TRUE
    Meta                =          FALSE

    Exchange Hybrid     =           TRUE
    MP2 Hybrid          =          FALSE

   => Exchange Functionals <=

    0.0800   Slater exchange
    0.7200         Becke 88

   => Exact (HF) Exchange <=

    0.2000               HF

   => Correlation Functionals <=

    0.1900   Vosko, Wilk & Nusair (VWN5_RPA)
    0.8100   Lee, Yang & Parr

   => LibXC Density Thresholds  <==

    XC_HYB_GGA_XC_B3LYP:  1.00E-15

   => Molecular Quadrature <=

    Radial Scheme          =       TREUTLER
    Pruning Scheme         =           NONE
    Nuclear Scheme         =       TREUTLER

    Blocking Scheme        =         OCTREE
    BS radius alpha        =              1
    Pruning alpha          =              1
    Radial Points          =             75
    Spherical Points       =            302
    Total Points           =          44435
    Total Blocks           =            444
    Max Points             =            254
    Max Functions          =             19
    Weights Tolerance      =       1.00E-15

  -Total Gradient:
     Atom            X                  Y                   Z
    ------   -----------------  -----------------  -----------------
       1        0.000000000000    -0.000000000000    -0.000095176038
       2       -0.000000000000     0.000000000000     0.000093438950

*** tstop() called on Joses-MacBook-Pro-2.local at Thu Jul 17 09:10:12 2025
Module time:
	user time   =       0.30 seconds =       0.01 minutes
	system time =       0.76 seconds =       0.01 minutes
	total time  =          0 seconds =       0.00 minutes
Total time:
	user time   =      30.11 seconds =       0.50 minutes
	system time =     106.23 seconds =       1.77 minutes
	total time  =         14 seconds =       0.23 minutes

    			-----------------------------------------

    			 OPTKING 3.0: for geometry optimizations

    			     By R.A. King, Bethel University

    			        with contributions from

    			    A.V. Copan, J. Cayton, A. Heide

    			-----------------------------------------

	                            ===> Fragment 1 <==

	 Z (Atomic Numbers)          Masses                          Geom
	       1.000000             1.007825          0.00000000  0.00000000  9.69440446
	       3.000000             7.016003          0.00000000  0.00000000 -1.39256823

	 - Coordinate -           - BOHR/RAD -       - ANG/DEG -
	 R(1,2)           =        11.086973           5.866973

	        --- Internal Coordinate Step in ANG or DEG, aJ/ANG or AJ/DEG ---
	-------------------------------------------------------------------------------
	           Coordinate      Previous         Force          Change          New
	           ----------      --------        ------          ------        ------
	               R(1,2)       5.86697        0.00078        0.00412       5.87109
	-------------------------------------------------------------------------------

	                                 ==> Convergence Check <==

	Measures of convergence in internal coordinates in au.

	Criteria marked as inactive (o), active & met (*), and active & unmet ( ).

	----------------------------------------------------------------------------------------------
	   Step    Total Energy     Delta E     Max Force     RMS Force      Max Disp      RMS Disp
	----------------------------------------------------------------------------------------------
	  Convergence Criteria     1.00e-06 *    3.00e-04 *             o    1.20e-03 *             o
	----------------------------------------------------------------------------------------------
	    27      -7.97911890   -7.50e-07 *    9.43e-05 *    9.43e-05 o    7.79e-03      7.79e-03 o  ~
	----------------------------------------------------------------------------------------------

Next Geometry in Ang
	Fragment 1 (Ang)

	    H   0.0000000000   0.0000000000   5.1321179550
	   Li   0.0000000000   0.0000000000  -0.7389754158

    Final optimized geometry and variables:
    Molecular point group: c2v
    Full point group: C_inf_v

    Geometry (in Angstrom), charge = -1, multiplicity = 4:

    H            0.000000000000     0.000000000000     5.130057910755
    LI           0.000000000000     0.000000000000    -0.736915371546

    Psi4 stopped on: Thursday, 17 July 2025 09:10AM
    Psi4 wall time for execution: 0:00:14.66

*** Psi4 exiting successfully. Buy a developer a beer!
