                               Psi4 1.9.1 release

  ==> Input File <==

--------------------------------------------------------------------------
molecule {
-1 4
F   0.00000        0.60000        0.00000
Na   0.00000       -0.60000        0.00000
}

set {
basis              cc-pvdz
reference          uks
maxiter            500
geom_maxiter       500
DAMPING_PERCENTAGE 1
guess              SAP
}

optimize('b3lyp')
--------------------------------------------------------------------------

    Molecular point group: c2v
  Charge       = -1
  Multiplicity = 4
  Basis Set: CC-PVDZ
    Blend: CC-PVDZ
  Basis Set: (CC-PVDZ AUX)
    Blend: CC-PVDZ-JKFIT + DEF2-UNIVERSAL-JKFIT
  @DF-UKS Final Energy:  -261.56960025279125
    Total Energy =                       -261.5696002527912469
 Dipole X            :          0.0000000            0.0000000            0.0000000
 Dipole Y            :          0.0000000            0.0000000            0.0000000
 Dipole Z            :          1.8584142           -0.1120389            1.7463753
 Magnitude           :                                                    1.7463753
    Molecular point group: c2v
  Basis Set: CC-PVDZ
    Blend: CC-PVDZ
  Basis Set: (CC-PVDZ AUX)
    Blend: CC-PVDZ-JKFIT + DEF2-UNIVERSAL-JKFIT
  Basis Set: CC-PVDZ
    Blend: CC-PVDZ
  Basis Set: (CC-PVDZ AUX)
    Blend: CC-PVDZ-JKFIT + DEF2-UNIVERSAL-JKFIT
  @DF-UKS Final Energy:  -261.75296959268286
    Total Energy =                       -261.7529695926828595
  Basis Set: CC-PVDZ
    Blend: CC-PVDZ
  Basis Set: (CC-PVDZ AUX)
    Blend: CC-PVDZ-JKFIT + DEF2-UNIVERSAL-JKFIT
  Basis Set: CC-PVDZ
    Blend: CC-PVDZ
  @DF-UKS Final Energy:  -261.86644331356354
    Total Energy =                       -261.8664433135635363
  @DF-UKS Final Energy:  -261.91676294804506
    Total Energy =                       -261.9167629480450614
  @DF-UKS Final Energy:  -261.94831030203619
    Total Energy =                       -261.9483103020361909
  @DF-UKS Final Energy:  -261.96833222089242
    Total Energy =                       -261.9683322208924210
  @DF-UKS Final Energy:  -261.98003182450583
    Total Energy =                       -261.9800318245058293
  @DF-UKS Final Energy:  -261.98724692428721
    Total Energy =                       -261.9872469242872057
  @DF-UKS Final Energy:  -261.99193685025182
    Total Energy =                       -261.9919368502518182
  @DF-UKS Final Energy:  -261.99509379889258
    Total Energy =                       -261.9950937988925830
  @DF-UKS Final Energy:  -261.99781435277094
    Total Energy =                       -261.9978143527709449
  @DF-UKS Final Energy:  -261.99955392361846
    Total Energy =                       -261.9995539236184641
  @DF-UKS Final Energy:  -262.00075423529017
    Total Energy =                       -262.0007542352901737
  @DF-UKS Final Energy:  -262.00153327648496
    Total Energy =                       -262.0015332764849632
  @DF-UKS Final Energy:  -262.00153824720576
    Total Energy =                       -262.0015382472057581
  @DF-UKS Final Energy:  -262.00154318404395
    Total Energy =                       -262.0015431840439533
  @DF-UKS Final Energy:  -262.00154807886389
    Total Energy =                       -262.0015480788638911
  @DF-UKS Final Energy:  -262.00207711404448
    Total Energy =                       -262.0020771140444822
  @DF-UKS Final Energy:  -262.00207886600589
    Total Energy =                       -262.0020788660058884
  @DF-UKS Final Energy:  -262.00208061504094
    Total Energy =                       -262.0020806150409385
  @DF-UKS Final Energy:  -262.00208235717753
    Total Energy =                       -262.0020823571775281
  @DF-UKS Final Energy:  -262.00208409247193
    Total Energy =                       -262.0020840924719323
  @DF-UKS Final Energy:  -262.00208582097605
    Total Energy =                       -262.0020858209760490
  @DF-UKS Final Energy:  -262.00208754284910
    Total Energy =                       -262.0020875428490967
  Basis Set: (CC-PVDZ AUX)
    Blend: CC-PVDZ-JKFIT + DEF2-UNIVERSAL-JKFIT
  Basis Set: CC-PVDZ
    Blend: CC-PVDZ
  Basis Set: (CC-PVDZ AUX)
    Blend: CC-PVDZ-JKFIT + DEF2-UNIVERSAL-JKFIT
  @DF-UKS Final Energy:  -262.00241085759171
    Total Energy =                       -262.0024108575917126
  Basis Set: CC-PVDZ
    Blend: CC-PVDZ
  Basis Set: (CC-PVDZ AUX)
    Blend: CC-PVDZ-JKFIT + DEF2-UNIVERSAL-JKFIT
  Charge       = -1
  Multiplicity = 4
  Basis Set: CC-PVDZ
    Blend: CC-PVDZ
  Basis Set: (CC-PVDZ AUX)
    Blend: CC-PVDZ-JKFIT + DEF2-UNIVERSAL-JKFIT

    Orbital Energies [Eh]
    ---------------------

    Alpha Occupied:

       1A1   -38.341657     2A1   -24.680757     3A1    -2.086552
       4A1    -1.110144     5A1    -1.017967     1B1    -1.017843
       1B2    -1.016680     6A1    -0.437723     2B1    -0.348254
       2B2    -0.347968     7A1    -0.000404     3B2     0.054247

    Alpha Virtual:

       3B1     0.088699     8A1     0.090959     9A1     0.158336
       4B2     0.185097    10A1     0.191658     4B1     0.192585
       5B2     0.287620     1A2     0.287795    11A1     0.289827
       5B1     0.292257    12A1     0.294930    13A1     1.170493
       6B1     1.196773     6B2     1.197537    14A1     1.591926
      15A1     3.541615     7B1     3.562271     7B2     3.562494
       2A2     3.631564    16A1     3.632151

    Beta Occupied:

       1A1   -38.340259     2A1   -24.649970     3A1    -2.083838
       4A1    -1.019207     5A1    -1.016302     1B1    -1.016182
       1B2    -1.014361     2B1    -0.316816     2B2    -0.316304

    Beta Virtual:

       6A1    -0.146035     7A1     0.066268     3B1     0.110734
       8A1     0.112151     3B2     0.114366     9A1     0.178421
      10A1     0.211411     4B1     0.211698     4B2     0.219994
       5B1     0.316299    11A1     0.318186     5B2     0.325372
       1A2     0.325802    12A1     0.330076     6B1     1.214702
       6B2     1.215670    13A1     1.279476    14A1     1.639555
       2A2     3.646946    15A1     3.647490     7B1     3.657328
       7B2     3.657632    16A1     3.677945

    Final Occupation by Irrep:
             A1    A2    B1    B2
    DOCC [     5,    0,    2,    2 ]
    SOCC [     2,    0,    0,    1 ]
    NA   [     7,    0,    2,    3 ]
    NB   [     5,    0,    2,    2 ]

  @DF-UKS Final Energy:  -262.00241136704608

   => Energetics <=

    Nuclear Repulsion Energy =             13.3505782999460152
    One-Electron Energy =                -396.1900724953509894
    Two-Electron Energy =                 140.9360188335158171
    DFT Exchange-Correlation Energy =     -20.0989360051568866
    Empirical Dispersion Energy =           0.0000000000000000
    VV10 Nonlocal Energy =                  0.0000000000000000
    Total Energy =                       -262.0024113670460792

  UHF NO Occupations:
  HONO-2 :    3 B2 1.0000000
  HONO-1 :    6 A1 1.0000000
  HONO-0 :    7 A1 1.0000000
  LUNO+0 :    8 A1 0.0003171
  LUNO+1 :    3 B1 0.0000596
  LUNO+2 :    4 B2 0.0000587
  LUNO+3 :    4 B1 0.0000005

Computation Completed

Properties will be evaluated at   0.000000,   0.000000,   0.000000 [a0]

Properties computed using the SCF density matrix

 Multipole Moments:

 ------------------------------------------------------------------------------------
     Multipole            Electronic (a.u.)      Nuclear  (a.u.)        Total (a.u.)
 ------------------------------------------------------------------------------------

 L = 1.  Multiply by 2.5417464519 to convert [e a0] to [Debye]
 Dipole X            :          0.0000000            0.0000000            0.0000000
 Dipole Y            :          0.0000000            0.0000000            0.0000000
 Dipole Z            :          3.8219403           -0.3663734            3.4555669
 Magnitude           :                                                    3.4555669

 ------------------------------------------------------------------------------------

*** tstop() called on Joses-MacBook-Pro-2.local at Thu Jul 17 10:51:06 2025
Module time:
	user time   =       3.40 seconds =       0.06 minutes
	system time =       1.78 seconds =       0.03 minutes
	total time  =          1 seconds =       0.02 minutes
Total time:
	user time   =     136.42 seconds =       2.27 minutes
	system time =     106.70 seconds =       1.78 minutes
	total time  =         26 seconds =       0.43 minutes

*** tstart() called on Joses-MacBook-Pro-2.local
*** at Thu Jul 17 10:51:06 2025

         ------------------------------------------------------------
                                   SCF GRAD
                          Rob Parrish, Justin Turney,
                       Andy Simmonett, and Alex Sokolov
         ------------------------------------------------------------

  ==> Geometry <==

    Molecular point group: c2v
    Full point group: C_inf_v

    Geometry (in Angstrom), charge = -1, multiplicity = 4:

       Center              X                  Y                   Z               Mass
    ------------   -----------------  -----------------  -----------------  -----------------
         F            0.000000000000     0.000000000000     2.148542208165    18.998403162730
         NA           0.000000000000     0.000000000000    -1.775523302656    22.989769282000

  Nuclear repulsion =   13.350578299946015

  ==> Basis Set <==

  Basis Set: CC-PVDZ
    Blend: CC-PVDZ
    Number of shells: 14
    Number of basis functions: 32
    Number of Cartesian functions: 34
    Spherical Harmonics?: true
    Max angular momentum: 2

  ==> DFJKGrad: Density-Fitted SCF Gradients <==

    Gradient:                    1
    J tasked:                  Yes
    K tasked:                  Yes
    wK tasked:                  No
    OpenMP threads:              1
    Integrals threads:           1
    Memory [MiB]:              375
    Schwarz Cutoff:          1E-12
    Fitting Condition:       1E-10

   => Auxiliary Basis Set <=

  Basis Set: (CC-PVDZ AUX)
    Blend: CC-PVDZ-JKFIT + DEF2-UNIVERSAL-JKFIT
    Number of shells: 58
    Number of basis functions: 182
    Number of Cartesian functions: 218
    Spherical Harmonics?: true
    Max angular momentum: 4

  ==> DFT Potential <==

   => LibXC <=

    Version 6.2.2
    S. Lehtola, C. Steigemann, M. J.T. Oliveira, and M. A.L. Marques.,  SoftwareX 7, 1â€“5 (2018) (10.1016/j.softx.2017.11.002)

   => Composite Functional: B3LYP <=

    B3LYP Hyb-GGA Exchange-Correlation Functional

    P. J. Stephens, F. J. Devlin, C. F. Chabalowski, and M. J. Frisch.,  J. Phys. Chem. 98, 11623 (1994) (10.1021/j100096a001)

    Deriv               =              1
    GGA                 =           TRUE
    Meta                =          FALSE

    Exchange Hybrid     =           TRUE
    MP2 Hybrid          =          FALSE

   => Exchange Functionals <=

    0.0800   Slater exchange
    0.7200         Becke 88

   => Exact (HF) Exchange <=

    0.2000               HF

   => Correlation Functionals <=

    0.1900   Vosko, Wilk & Nusair (VWN5_RPA)
    0.8100   Lee, Yang & Parr

   => LibXC Density Thresholds  <==

    XC_HYB_GGA_XC_B3LYP:  1.00E-15

   => Molecular Quadrature <=

    Radial Scheme          =       TREUTLER
    Pruning Scheme         =           NONE
    Nuclear Scheme         =       TREUTLER

    Blocking Scheme        =         OCTREE
    BS radius alpha        =              1
    Pruning alpha          =              1
    Radial Points          =             75
    Spherical Points       =            302
    Total Points           =          43903
    Total Blocks           =            431
    Max Points             =            253
    Max Functions          =             32
    Weights Tolerance      =       1.00E-15

  -Total Gradient:
     Atom            X                  Y                   Z
    ------   -----------------  -----------------  -----------------
       1        0.000000000000     0.000000000000    -0.000190210840
       2        0.000000000000     0.000000000000     0.000343354357

*** tstop() called on Joses-MacBook-Pro-2.local at Thu Jul 17 10:51:06 2025
Module time:
	user time   =       1.65 seconds =       0.03 minutes
	system time =       0.80 seconds =       0.01 minutes
	total time  =          0 seconds =       0.00 minutes
Total time:
	user time   =     138.07 seconds =       2.30 minutes
	system time =     107.50 seconds =       1.79 minutes
	total time  =         26 seconds =       0.43 minutes

    			-----------------------------------------

    			 OPTKING 3.0: for geometry optimizations

    			     By R.A. King, Bethel University

    			        with contributions from

    			    A.V. Copan, J. Cayton, A. Heide

    			-----------------------------------------

	                            ===> Fragment 1 <==

	 Z (Atomic Numbers)          Masses                          Geom
	       9.000000            18.998403          0.00000000  0.00000000  4.06015634
	      11.000000            22.989769          0.00000000  0.00000000 -3.35525277

	 - Coordinate -           - BOHR/RAD -       - ANG/DEG -
	 R(1,2)           =         7.415409           3.924066

	        --- Internal Coordinate Step in ANG or DEG, aJ/ANG or AJ/DEG ---
	-------------------------------------------------------------------------------
	           Coordinate      Previous         Force          Change          New
	           ----------      --------        ------          ------        ------
	               R(1,2)       3.92407        0.00220        0.00071       3.92477
	-------------------------------------------------------------------------------

	                                 ==> Convergence Check <==

	Measures of convergence in internal coordinates in au.

	Criteria marked as inactive (o), active & met (*), and active & unmet ( ).

	----------------------------------------------------------------------------------------------
	   Step    Total Energy     Delta E     Max Force     RMS Force      Max Disp      RMS Disp
	----------------------------------------------------------------------------------------------
	  Convergence Criteria     1.00e-06 *    3.00e-04 *             o    1.20e-03 *             o
	----------------------------------------------------------------------------------------------
	    26    -262.00241137   -5.09e-07 *    2.67e-04 *    2.67e-04 o    1.33e-03      1.33e-03 o  ~
	----------------------------------------------------------------------------------------------

Next Geometry in Ang
	Fragment 1 (Ang)

	    F   0.0000000000   0.0000000000   2.1488950968
	   Na   0.0000000000   0.0000000000  -1.7758761913

    Final optimized geometry and variables:
    Molecular point group: c2v
    Full point group: C_inf_v

    Geometry (in Angstrom), charge = -1, multiplicity = 4:

    F            0.000000000000     0.000000000000     2.148542208165
    NA           0.000000000000     0.000000000000    -1.775523302656

    Psi4 stopped on: Thursday, 17 July 2025 10:51AM
    Psi4 wall time for execution: 0:00:26.54

*** Psi4 exiting successfully. Buy a developer a beer!
