                               Psi4 1.9.1 release

  ==> Input File <==

--------------------------------------------------------------------------
molecule {
-1 4
Be   0.00000        0.60000        0.00000
Si   0.00000       -0.60000        0.00000
}

set {
basis              cc-pvdz
reference          uks
maxiter            500
geom_maxiter       500
DAMPING_PERCENTAGE 1
guess              SAP
}

optimize('b3lyp')
--------------------------------------------------------------------------

    Molecular point group: c2v
  Charge       = -1
  Multiplicity = 4
  Basis Set: CC-PVDZ
    Blend: CC-PVDZ
  Basis Set: (CC-PVDZ AUX)
    Blend: CC-PVDZ-JKFIT + DEF2-UNIVERSAL-JKFIT
  @DF-UKS Final Energy:  -303.61432440381554
    Total Energy =                       -303.6143244038155444
 Dipole X            :          0.0000000            0.0000000            0.0000000
 Dipole Y            :          0.0000000            0.0000000            0.0000000
 Dipole Z            :         -0.6007321           -0.8744053           -1.4751374
 Magnitude           :                                                    1.4751374
    Molecular point group: c2v
  Basis Set: CC-PVDZ
    Blend: CC-PVDZ
  Basis Set: (CC-PVDZ AUX)
    Blend: CC-PVDZ-JKFIT + DEF2-UNIVERSAL-JKFIT
  Basis Set: CC-PVDZ
    Blend: CC-PVDZ
  Basis Set: (CC-PVDZ AUX)
    Blend: CC-PVDZ-JKFIT + DEF2-UNIVERSAL-JKFIT
  @DF-UKS Final Energy:  -303.80217915926642
    Total Energy =                       -303.8021791592664158
  Basis Set: CC-PVDZ
    Blend: CC-PVDZ
  Basis Set: (CC-PVDZ AUX)
    Blend: CC-PVDZ-JKFIT + DEF2-UNIVERSAL-JKFIT
  Basis Set: CC-PVDZ
    Blend: CC-PVDZ
  @DF-UKS Final Energy:  -303.95793525605222
    Total Energy =                       -303.9579352560521670
  @DF-UKS Final Energy:  -304.05072721433601
    Total Energy =                       -304.0507272143360069
  @DF-UKS Final Energy:  -304.08795820511830
    Total Energy =                       -304.0879582051182979
  @DF-UKS Final Energy:  -304.10061002505171
    Total Energy =                       -304.1006100250517079
  @DF-UKS Final Energy:  -304.10368257278913
    Total Energy =                       -304.1036825727891255
  @DF-UKS Final Energy:  -304.10404015555832
    Total Energy =                       -304.1040401555583230
  @DF-UKS Final Energy:  -304.10408624323622
    Total Energy =                       -304.1040862432361678
  Basis Set: (CC-PVDZ AUX)
    Blend: CC-PVDZ-JKFIT + DEF2-UNIVERSAL-JKFIT
  Basis Set: CC-PVDZ
    Blend: CC-PVDZ
  Basis Set: (CC-PVDZ AUX)
    Blend: CC-PVDZ-JKFIT + DEF2-UNIVERSAL-JKFIT
  @DF-UKS Final Energy:  -304.10409251511908
    Total Energy =                       -304.1040925151190777
  Basis Set: CC-PVDZ
    Blend: CC-PVDZ
  Basis Set: (CC-PVDZ AUX)
    Blend: CC-PVDZ-JKFIT + DEF2-UNIVERSAL-JKFIT
  Charge       = -1
  Multiplicity = 4
  Basis Set: CC-PVDZ
    Blend: CC-PVDZ
  Basis Set: (CC-PVDZ AUX)
    Blend: CC-PVDZ-JKFIT + DEF2-UNIVERSAL-JKFIT

    Orbital Energies [Eh]
    ---------------------

    Alpha Occupied:

       1A1   -65.911295     2A1    -5.056656     3A1    -3.863519
       1B1    -3.418152     4A1    -3.417989     1B2    -3.409973
       5A1    -0.254683     6A1    -0.068056     2B1     0.005588
       7A1     0.015812     2B2     0.029850

    Alpha Virtual:

       3B1     0.159048     3B2     0.172132     8A1     0.240137
       9A1     0.353195    10A1     0.354418     4B1     0.356473
       4B2     0.364785    11A1     0.498108     5B1     0.514293
       5B2     0.532623     1A2     0.555174    12A1     0.555699
       6B1     0.569140     6B2     0.588491    13A1     0.651109
       2A2     0.715440    14A1     0.715493    15A1     0.871908
       7B1     0.896258     7B2     0.911810    16A1     1.117002

    Beta Occupied:

       1A1   -65.906711     2A1    -5.051241     3A1    -3.849921
       1B1    -3.409266     4A1    -3.407738     1B2    -3.407399
       5A1    -0.194250     2B2     0.046577

    Beta Virtual:

       6A1     0.049837     2B1     0.103506     7A1     0.141576
       3B2     0.198430     3B1     0.212631     8A1     0.260296
       4B2     0.383604     4B1     0.392339     9A1     0.396531
      10A1     0.410716     5B2     0.546346    11A1     0.551156
       5B1     0.553920     1A2     0.588924    12A1     0.592854
       6B2     0.626480     6B1     0.637758    13A1     0.683030
       2A2     0.753024    14A1     0.759794    15A1     0.924728
       7B2     0.954955     7B1     0.968317    16A1     1.166300

    Final Occupation by Irrep:
             A1    A2    B1    B2
    DOCC [     5,    0,    1,    2 ]
    SOCC [     2,    0,    1,    0 ]
    NA   [     7,    0,    2,    2 ]
    NB   [     5,    0,    1,    2 ]

  @DF-UKS Final Energy:  -304.10409349179065

   => Energetics <=

    Nuclear Repulsion Energy =             14.5506896073060812
    One-Electron Energy =                -453.0476321287382007
    Two-Electron Energy =                 153.6341249341888613
    DFT Exchange-Correlation Energy =     -19.2412759045474431
    Empirical Dispersion Energy =           0.0000000000000000
    VV10 Nonlocal Energy =                  0.0000000000000000
    Total Energy =                       -304.1040934917907066

  UHF NO Occupations:
  HONO-2 :    6 A1 1.0000000
  HONO-1 :    7 A1 1.0000000
  HONO-0 :    2 B1 1.0000000
  LUNO+0 :    3 B2 0.0024947
  LUNO+1 :    8 A1 0.0015134
  LUNO+2 :    9 A1 0.0000002
  LUNO+3 :    3 B1 0.0000001

Computation Completed

Properties will be evaluated at   0.000000,   0.000000,   0.000000 [a0]

Properties computed using the SCF density matrix

 Multipole Moments:

 ------------------------------------------------------------------------------------
     Multipole            Electronic (a.u.)      Nuclear  (a.u.)        Total (a.u.)
 ------------------------------------------------------------------------------------

 L = 1.  Multiply by 2.5417464519 to convert [e a0] to [Debye]
 Dipole X            :          0.0000000            0.0000000            0.0000000
 Dipole Y            :          0.0000000            0.0000000            0.0000000
 Dipole Z            :          0.3139187           -1.4840109           -1.1700922
 Magnitude           :                                                    1.1700922

 ------------------------------------------------------------------------------------

*** tstop() called on Joses-MacBook-Pro-2.local at Thu Jul 17 09:44:51 2025
Module time:
	user time   =       3.97 seconds =       0.07 minutes
	system time =       3.16 seconds =       0.05 minutes
	total time  =          1 seconds =       0.02 minutes
Total time:
	user time   =      71.23 seconds =       1.19 minutes
	system time =      62.68 seconds =       1.04 minutes
	total time  =         13 seconds =       0.22 minutes

*** tstart() called on Joses-MacBook-Pro-2.local
*** at Thu Jul 17 09:44:51 2025

         ------------------------------------------------------------
                                   SCF GRAD
                          Rob Parrish, Justin Turney,
                       Andy Simmonett, and Alex Sokolov
         ------------------------------------------------------------

  ==> Geometry <==

    Molecular point group: c2v
    Full point group: C_inf_v

    Geometry (in Angstrom), charge = -1, multiplicity = 4:

       Center              X                  Y                   Z               Mass
    ------------   -----------------  -----------------  -----------------  -----------------
         BE           0.000000000000     0.000000000000     1.540393610640     9.012183065000
         SI           0.000000000000     0.000000000000    -0.496205656974    27.976926534650

  Nuclear repulsion =   14.550689607306081

  ==> Basis Set <==

  Basis Set: CC-PVDZ
    Blend: CC-PVDZ
    Number of shells: 14
    Number of basis functions: 32
    Number of Cartesian functions: 34
    Spherical Harmonics?: true
    Max angular momentum: 2

  ==> DFJKGrad: Density-Fitted SCF Gradients <==

    Gradient:                    1
    J tasked:                  Yes
    K tasked:                  Yes
    wK tasked:                  No
    OpenMP threads:              1
    Integrals threads:           1
    Memory [MiB]:              375
    Schwarz Cutoff:          1E-12
    Fitting Condition:       1E-10

   => Auxiliary Basis Set <=

  Basis Set: (CC-PVDZ AUX)
    Blend: CC-PVDZ-JKFIT + DEF2-UNIVERSAL-JKFIT
    Number of shells: 53
    Number of basis functions: 163
    Number of Cartesian functions: 190
    Spherical Harmonics?: true
    Max angular momentum: 3

  ==> DFT Potential <==

   => LibXC <=

    Version 6.2.2
    S. Lehtola, C. Steigemann, M. J.T. Oliveira, and M. A.L. Marques.,  SoftwareX 7, 1â€“5 (2018) (10.1016/j.softx.2017.11.002)

   => Composite Functional: B3LYP <=

    B3LYP Hyb-GGA Exchange-Correlation Functional

    P. J. Stephens, F. J. Devlin, C. F. Chabalowski, and M. J. Frisch.,  J. Phys. Chem. 98, 11623 (1994) (10.1021/j100096a001)

    Deriv               =              1
    GGA                 =           TRUE
    Meta                =          FALSE

    Exchange Hybrid     =           TRUE
    MP2 Hybrid          =          FALSE

   => Exchange Functionals <=

    0.0800   Slater exchange
    0.7200         Becke 88

   => Exact (HF) Exchange <=

    0.2000               HF

   => Correlation Functionals <=

    0.1900   Vosko, Wilk & Nusair (VWN5_RPA)
    0.8100   Lee, Yang & Parr

   => LibXC Density Thresholds  <==

    XC_HYB_GGA_XC_B3LYP:  1.00E-15

   => Molecular Quadrature <=

    Radial Scheme          =       TREUTLER
    Pruning Scheme         =           NONE
    Nuclear Scheme         =       TREUTLER

    Blocking Scheme        =         OCTREE
    BS radius alpha        =              1
    Pruning alpha          =              1
    Radial Points          =             75
    Spherical Points       =            302
    Total Points           =          42479
    Total Blocks           =            394
    Max Points             =            255
    Max Functions          =             32
    Weights Tolerance      =       1.00E-15

  -Total Gradient:
     Atom            X                  Y                   Z
    ------   -----------------  -----------------  -----------------
       1       -0.000000000000     0.000000000000    -0.000107894040
       2        0.000000000000    -0.000000000000     0.000096850216

*** tstop() called on Joses-MacBook-Pro-2.local at Thu Jul 17 09:44:51 2025
Module time:
	user time   =       0.94 seconds =       0.02 minutes
	system time =       1.43 seconds =       0.02 minutes
	total time  =          0 seconds =       0.00 minutes
Total time:
	user time   =      72.17 seconds =       1.20 minutes
	system time =      64.11 seconds =       1.07 minutes
	total time  =         13 seconds =       0.22 minutes

    			-----------------------------------------

    			 OPTKING 3.0: for geometry optimizations

    			     By R.A. King, Bethel University

    			        with contributions from

    			    A.V. Copan, J. Cayton, A. Heide

    			-----------------------------------------

	                            ===> Fragment 1 <==

	 Z (Atomic Numbers)          Masses                          Geom
	       4.000000             9.012183          0.00000000  0.00000000  2.91092205
	      14.000000            27.976927          0.00000000  0.00000000 -0.93769279

	 - Coordinate -           - BOHR/RAD -       - ANG/DEG -
	 R(1,2)           =         3.848615           2.036599

	        --- Internal Coordinate Step in ANG or DEG, aJ/ANG or AJ/DEG ---
	-------------------------------------------------------------------------------
	           Coordinate      Previous         Force          Change          New
	           ----------      --------        ------          ------        ------
	               R(1,2)       2.03660        0.00084        0.00042       2.03702
	-------------------------------------------------------------------------------

	                                 ==> Convergence Check <==

	Measures of convergence in internal coordinates in au.

	Criteria marked as inactive (o), active & met (*), and active & unmet ( ).

	----------------------------------------------------------------------------------------------
	   Step    Total Energy     Delta E     Max Force     RMS Force      Max Disp      RMS Disp
	----------------------------------------------------------------------------------------------
	  Convergence Criteria     1.00e-06 *    3.00e-04 *             o    1.20e-03 *             o
	----------------------------------------------------------------------------------------------
	    11    -304.10409349   -9.77e-07 *    1.02e-04 *    1.02e-04 o    7.91e-04 *    7.91e-04 o  ~
	----------------------------------------------------------------------------------------------

Next Geometry in Ang
	Fragment 1 (Ang)

	   Be   0.0000000000   0.0000000000   1.5406029917
	   Si   0.0000000000   0.0000000000  -0.4964150381

    Final optimized geometry and variables:
    Molecular point group: c2v
    Full point group: C_inf_v

    Geometry (in Angstrom), charge = -1, multiplicity = 4:

    BE           0.000000000000     0.000000000000     1.540393610640
    SI           0.000000000000     0.000000000000    -0.496205656974

    Psi4 stopped on: Thursday, 17 July 2025 09:44AM
    Psi4 wall time for execution: 0:00:14.18

*** Psi4 exiting successfully. Buy a developer a beer!
