                               Psi4 1.9.1 release

  ==> Input File <==

--------------------------------------------------------------------------
molecule {
-1 4
F   0.00000        0.60000        0.00000
Cl   0.00000       -0.60000        0.00000
}

set {
basis              cc-pvdz
reference          uks
maxiter            500
geom_maxiter       500
DAMPING_PERCENTAGE 1
guess              SAP
}

optimize('b3lyp')
--------------------------------------------------------------------------

    Molecular point group: c2v
  Charge       = -1
  Multiplicity = 4
  Basis Set: CC-PVDZ
    Blend: CC-PVDZ
  Basis Set: (CC-PVDZ AUX)
    Blend: CC-PVDZ-JKFIT
  @DF-UKS Final Energy:  -558.85425046842761
    Total Energy =                       -558.8542504684274945
 Dipole X            :          0.0000000            0.0000000            0.0000000
 Dipole Y            :          0.0000000            0.0000000            0.0000000
 Dipole Z            :          1.5674313           -0.3467936            1.2206377
 Magnitude           :                                                    1.2206377
    Molecular point group: c2v
  Basis Set: CC-PVDZ
    Blend: CC-PVDZ
  Basis Set: (CC-PVDZ AUX)
    Blend: CC-PVDZ-JKFIT
  Basis Set: CC-PVDZ
    Blend: CC-PVDZ
  Basis Set: (CC-PVDZ AUX)
    Blend: CC-PVDZ-JKFIT
  @DF-UKS Final Energy:  -559.03695471980734
    Total Energy =                       -559.0369547198073406
  Basis Set: CC-PVDZ
    Blend: CC-PVDZ
  Basis Set: (CC-PVDZ AUX)
    Blend: CC-PVDZ-JKFIT
  Basis Set: CC-PVDZ
    Blend: CC-PVDZ
  @DF-UKS Final Energy:  -559.15634901791213
    Total Energy =                       -559.1563490179121345
  @DF-UKS Final Energy:  -559.21941537039959
    Total Energy =                       -559.2194153703995880
  @DF-UKS Final Energy:  -559.26055829230847
    Total Energy =                       -559.2605582923084739
  @DF-UKS Final Energy:  -559.28220740795280
    Total Energy =                       -559.2822074079527965
  @DF-UKS Final Energy:  -559.29341941200391
    Total Energy =                       -559.2934194120040274
  @DF-UKS Final Energy:  -559.29666707100887
    Total Energy =                       -559.2966670710088692
  @DF-UKS Final Energy:  -559.29731646076812
    Total Energy =                       -559.2973164607681156
  @DF-UKS Final Energy:  -559.29751530524004
    Total Energy =                       -559.2975153052399264
  @DF-UKS Final Energy:  -559.29754435867972
    Total Energy =                       -559.2975443586797155
  @DF-UKS Final Energy:  -559.29754926610917
    Total Energy =                       -559.2975492661090584
  Basis Set: (CC-PVDZ AUX)
    Blend: CC-PVDZ-JKFIT
  Basis Set: CC-PVDZ
    Blend: CC-PVDZ
  Basis Set: (CC-PVDZ AUX)
    Blend: CC-PVDZ-JKFIT
  @DF-UKS Final Energy:  -559.29755032551270
    Total Energy =                       -559.2975503255127023
  Basis Set: CC-PVDZ
    Blend: CC-PVDZ
  Basis Set: (CC-PVDZ AUX)
    Blend: CC-PVDZ-JKFIT
  Charge       = -1
  Multiplicity = 4
  Basis Set: CC-PVDZ
    Blend: CC-PVDZ
  Basis Set: (CC-PVDZ AUX)
    Blend: CC-PVDZ-JKFIT

    Orbital Energies [Eh]
    ---------------------

    Alpha Occupied:

       1A1  -101.235607     2A1   -24.396656     3A1    -9.177098
       1B2    -6.946017     4A1    -6.937399     1B1    -6.922289
       5A1    -0.848497     6A1    -0.573227     7A1    -0.186392
       2B2    -0.142120     2B1    -0.110492     3B2    -0.099807
       3B1    -0.067214     8A1    -0.043067     4B1     0.706225

    Alpha Virtual:

       4B2     0.746327     9A1     0.762087    10A1     0.858132
       5B2     0.918683    11A1     0.939329     1A2     0.957038
       5B1     0.969188    12A1     0.984088     6B2     1.430945
       6B1     1.441944    13A1     1.501796    14A1     2.062972
       7B2     3.840545     7B1     3.850420    15A1     3.857690
       2A2     3.874675    16A1     3.876367

    Beta Occupied:

       1A1  -101.217703     2A1   -24.375855     3A1    -9.159645
       1B2    -6.920139     4A1    -6.916899     1B1    -6.891177
       5A1    -0.794327     6A1    -0.479795     7A1    -0.092048
       2B1    -0.084172     2B2    -0.075360     3B1    -0.010621

    Beta Virtual:

       3B2     0.037889     8A1     0.111892     4B2     0.806120
       9A1     0.810427     4B1     0.832585    10A1     0.919138
       5B2     1.003065    11A1     1.019385     5B1     1.021863
       1A2     1.029333    12A1     1.040102     6B2     1.454670
       6B1     1.457019    13A1     1.550504    14A1     2.102505
      15A1     3.894667     2A2     3.894681     7B2     3.899446
       7B1     3.900386    16A1     3.925977

    Final Occupation by Irrep:
             A1    A2    B1    B2
    DOCC [     7,    0,    3,    2 ]
    SOCC [     1,    0,    1,    1 ]
    NA   [     8,    0,    4,    3 ]
    NB   [     7,    0,    3,    2 ]

  @DF-UKS Final Energy:  -559.29755043658508

   => Energetics <=

    Nuclear Repulsion Energy =             37.1129694721004384
    One-Electron Energy =                -856.4380391222725848
    Two-Electron Energy =                 291.4533620406937189
    DFT Exchange-Correlation Energy =     -31.4258428271066030
    Empirical Dispersion Energy =           0.0000000000000000
    VV10 Nonlocal Energy =                  0.0000000000000000
    Total Energy =                       -559.2975504365850838

  UHF NO Occupations:
  HONO-2 :    3 B2 1.0000000
  HONO-1 :    8 A1 1.0000000
  HONO-0 :    4 B1 1.0000000
  LUNO+0 :    9 A1 0.0010506
  LUNO+1 :    4 B2 0.0003174
  LUNO+2 :   10 A1 0.0003051
  LUNO+3 :   11 A1 0.0000720

Computation Completed

Properties will be evaluated at   0.000000,   0.000000,   0.000000 [a0]

Properties computed using the SCF density matrix

 Multipole Moments:

 ------------------------------------------------------------------------------------
     Multipole            Electronic (a.u.)      Nuclear  (a.u.)        Total (a.u.)
 ------------------------------------------------------------------------------------

 L = 1.  Multiply by 2.5417464519 to convert [e a0] to [Debye]
 Dipole X            :          0.0000000            0.0000000            0.0000000
 Dipole Y            :          0.0000000            0.0000000            0.0000000
 Dipole Z            :          0.6041569           -0.6304588           -0.0263018
 Magnitude           :                                                    0.0263018

 ------------------------------------------------------------------------------------

*** tstop() called on Joses-MacBook-Pro-2.local at Thu Jul 17 10:56:07 2025
Module time:
	user time   =       5.46 seconds =       0.09 minutes
	system time =       2.98 seconds =       0.05 minutes
	total time  =          1 seconds =       0.02 minutes
Total time:
	user time   =     103.88 seconds =       1.73 minutes
	system time =      58.11 seconds =       0.97 minutes
	total time  =         18 seconds =       0.30 minutes

*** tstart() called on Joses-MacBook-Pro-2.local
*** at Thu Jul 17 10:56:07 2025

         ------------------------------------------------------------
                                   SCF GRAD
                          Rob Parrish, Justin Turney,
                       Andy Simmonett, and Alex Sokolov
         ------------------------------------------------------------

  ==> Geometry <==

    Molecular point group: c2v
    Full point group: C_inf_v

    Geometry (in Angstrom), charge = -1, multiplicity = 4:

       Center              X                  Y                   Z               Mass
    ------------   -----------------  -----------------  -----------------  -----------------
         F            0.000000000000     0.000000000000     1.413571912728    18.998403162730
         CL           0.000000000000     0.000000000000    -0.767986566266    34.968852682000

  Nuclear repulsion =   37.112969472100438

  ==> Basis Set <==

  Basis Set: CC-PVDZ
    Blend: CC-PVDZ
    Number of shells: 14
    Number of basis functions: 32
    Number of Cartesian functions: 34
    Spherical Harmonics?: true
    Max angular momentum: 2

  ==> DFJKGrad: Density-Fitted SCF Gradients <==

    Gradient:                    1
    J tasked:                  Yes
    K tasked:                  Yes
    wK tasked:                  No
    OpenMP threads:              1
    Integrals threads:           1
    Memory [MiB]:              375
    Schwarz Cutoff:          1E-12
    Fitting Condition:       1E-10

   => Auxiliary Basis Set <=

  Basis Set: (CC-PVDZ AUX)
    Blend: CC-PVDZ-JKFIT
    Number of shells: 60
    Number of basis functions: 182
    Number of Cartesian functions: 211
    Spherical Harmonics?: true
    Max angular momentum: 3

  ==> DFT Potential <==

   => LibXC <=

    Version 6.2.2
    S. Lehtola, C. Steigemann, M. J.T. Oliveira, and M. A.L. Marques.,  SoftwareX 7, 1â€“5 (2018) (10.1016/j.softx.2017.11.002)

   => Composite Functional: B3LYP <=

    B3LYP Hyb-GGA Exchange-Correlation Functional

    P. J. Stephens, F. J. Devlin, C. F. Chabalowski, and M. J. Frisch.,  J. Phys. Chem. 98, 11623 (1994) (10.1021/j100096a001)

    Deriv               =              1
    GGA                 =           TRUE
    Meta                =          FALSE

    Exchange Hybrid     =           TRUE
    MP2 Hybrid          =          FALSE

   => Exchange Functionals <=

    0.0800   Slater exchange
    0.7200         Becke 88

   => Exact (HF) Exchange <=

    0.2000               HF

   => Correlation Functionals <=

    0.1900   Vosko, Wilk & Nusair (VWN5_RPA)
    0.8100   Lee, Yang & Parr

   => LibXC Density Thresholds  <==

    XC_HYB_GGA_XC_B3LYP:  1.00E-15

   => Molecular Quadrature <=

    Radial Scheme          =       TREUTLER
    Pruning Scheme         =           NONE
    Nuclear Scheme         =       TREUTLER

    Blocking Scheme        =         OCTREE
    BS radius alpha        =              1
    Pruning alpha          =              1
    Radial Points          =             75
    Spherical Points       =            302
    Total Points           =          41902
    Total Blocks           =            377
    Max Points             =            256
    Max Functions          =             32
    Weights Tolerance      =       1.00E-15

  -Total Gradient:
     Atom            X                  Y                   Z
    ------   -----------------  -----------------  -----------------
       1        0.000000000000     0.000000000000     0.000013097840
       2        0.000000000000     0.000000000000     0.000033258910

*** tstop() called on Joses-MacBook-Pro-2.local at Thu Jul 17 10:56:07 2025
Module time:
	user time   =       1.41 seconds =       0.02 minutes
	system time =       1.22 seconds =       0.02 minutes
	total time  =          0 seconds =       0.00 minutes
Total time:
	user time   =     105.29 seconds =       1.75 minutes
	system time =      59.34 seconds =       0.99 minutes
	total time  =         18 seconds =       0.30 minutes

    			-----------------------------------------

    			 OPTKING 3.0: for geometry optimizations

    			     By R.A. King, Bethel University

    			        with contributions from

    			    A.V. Copan, J. Cayton, A. Heide

    			-----------------------------------------

	                            ===> Fragment 1 <==

	 Z (Atomic Numbers)          Masses                          Geom
	       9.000000            18.998403          0.00000000  0.00000000  2.67126377
	      17.000000            34.968853          0.00000000  0.00000000 -1.45128428

	 - Coordinate -           - BOHR/RAD -       - ANG/DEG -
	 R(1,2)           =         4.122548           2.181558

	        --- Internal Coordinate Step in ANG or DEG, aJ/ANG or AJ/DEG ---
	-------------------------------------------------------------------------------
	           Coordinate      Previous         Force          Change          New
	           ----------      --------        ------          ------        ------
	               R(1,2)       2.18156        0.00008        0.00011       2.18167
	-------------------------------------------------------------------------------

	                                 ==> Convergence Check <==

	Measures of convergence in internal coordinates in au.

	Criteria marked as inactive (o), active & met (*), and active & unmet ( ).

	----------------------------------------------------------------------------------------------
	   Step    Total Energy     Delta E     Max Force     RMS Force      Max Disp      RMS Disp
	----------------------------------------------------------------------------------------------
	  Convergence Criteria     1.00e-06 *    3.00e-04 *             o    1.20e-03 *             o
	----------------------------------------------------------------------------------------------
	    14    -559.29755044   -1.11e-07 *    1.01e-05 *    1.01e-05 o    2.06e-04 *    2.06e-04 o  ~
	----------------------------------------------------------------------------------------------

Next Geometry in Ang
	Fragment 1 (Ang)

	    F   0.0000000000   0.0000000000   1.4136262897
	   Cl   0.0000000000   0.0000000000  -0.7680409432

    Final optimized geometry and variables:
    Molecular point group: c2v
    Full point group: C_inf_v

    Geometry (in Angstrom), charge = -1, multiplicity = 4:

    F            0.000000000000     0.000000000000     1.413571912728
    CL           0.000000000000     0.000000000000    -0.767986566266

    Psi4 stopped on: Thursday, 17 July 2025 10:56AM
    Psi4 wall time for execution: 0:00:18.52

*** Psi4 exiting successfully. Buy a developer a beer!
