                               Psi4 1.9.1 release

  ==> Input File <==

--------------------------------------------------------------------------
molecule {
-1 4
Ne   0.00000        0.60000        0.00000
Si   0.00000       -0.60000        0.00000
}

set {
basis              cc-pvdz
reference          uks
maxiter            500
geom_maxiter       500
DAMPING_PERCENTAGE 1
guess              SAP
}

optimize('b3lyp')
--------------------------------------------------------------------------

    Molecular point group: c2v
  Charge       = -1
  Multiplicity = 4
  Basis Set: CC-PVDZ
    Blend: CC-PVDZ
  Basis Set: (CC-PVDZ AUX)
    Blend: CC-PVDZ-JKFIT
  @DF-UKS Final Energy:  -417.72030359000047
    Total Energy =                       -417.7203035900004693
 Dipole X            :          0.0000000            0.0000000            0.0000000
 Dipole Y            :          0.0000000            0.0000000            0.0000000
 Dipole Z            :          1.9007375           -0.0059043            1.8948332
 Magnitude           :                                                    1.8948332
    Molecular point group: c2v
  Basis Set: CC-PVDZ
    Blend: CC-PVDZ
  Basis Set: (CC-PVDZ AUX)
    Blend: CC-PVDZ-JKFIT
  Basis Set: CC-PVDZ
    Blend: CC-PVDZ
  Basis Set: (CC-PVDZ AUX)
    Blend: CC-PVDZ-JKFIT
  @DF-UKS Final Energy:  -417.94009011238853
    Total Energy =                       -417.9400901123885319
  Basis Set: CC-PVDZ
    Blend: CC-PVDZ
  Basis Set: (CC-PVDZ AUX)
    Blend: CC-PVDZ-JKFIT
  Basis Set: CC-PVDZ
    Blend: CC-PVDZ
  @DF-UKS Final Energy:  -418.07434803371018
    Total Energy =                       -418.0743480337101801
  @DF-UKS Final Energy:  -418.16070526848523
    Total Energy =                       -418.1607052684852306
  @DF-UKS Final Energy:  -418.22596918132217
    Total Energy =                       -418.2259691813222844
  @DF-UKS Final Energy:  -418.27152972623094
    Total Energy =                       -418.2715297262309377
  @DF-UKS Final Energy:  -418.29883630027780
    Total Energy =                       -418.2988363002777419
  @DF-UKS Final Energy:  -418.31345830788183
    Total Energy =                       -418.3134583078818309
  @DF-UKS Final Energy:  -418.32115261865300
    Total Energy =                       -418.3211526186530023
  @DF-UKS Final Energy:  -418.32512348208093
    Total Energy =                       -418.3251234820809259
  @DF-UKS Final Energy:  -418.32711734708749
    Total Energy =                       -418.3271173470874942
  @DF-UKS Final Energy:  -418.32806857241087
    Total Energy =                       -418.3280685724108707
  @DF-UKS Final Energy:  -418.32848512537498
    Total Energy =                       -418.3284851253750389
  @DF-UKS Final Energy:  -418.32864497750114
    Total Energy =                       -418.3286449775011420
  @DF-UKS Final Energy:  -418.32869740703387
    Total Energy =                       -418.3286974070338715
  @DF-UKS Final Energy:  -418.32870655611509
    Total Energy =                       -418.3287065561150371
  Basis Set: (CC-PVDZ AUX)
    Blend: CC-PVDZ-JKFIT
  Basis Set: CC-PVDZ
    Blend: CC-PVDZ
  Basis Set: (CC-PVDZ AUX)
    Blend: CC-PVDZ-JKFIT
  @DF-UKS Final Energy:  -418.32870977521469
    Total Energy =                       -418.3287097752146906
  Basis Set: CC-PVDZ
    Blend: CC-PVDZ
  Basis Set: (CC-PVDZ AUX)
    Blend: CC-PVDZ-JKFIT
  Charge       = -1
  Multiplicity = 4
  Basis Set: CC-PVDZ
    Blend: CC-PVDZ
  Basis Set: (CC-PVDZ AUX)
    Blend: CC-PVDZ-JKFIT

    Orbital Energies [Eh]
    ---------------------

    Alpha Occupied:

       1A1   -65.862659     2A1   -30.828471     3A1    -5.005405
       1B2    -3.364994     1B1    -3.364994     4A1    -3.364990
       5A1    -1.293974     2B1    -0.402812     2B2    -0.402812
       6A1    -0.401621     7A1    -0.183328     3B1     0.066422
       3B2     0.066422     8A1     0.066712

    Alpha Virtual:

       9A1     0.475108     4B1     0.544621     4B2     0.544621
      10A1     0.544880    11A1     0.610494     5B2     0.610538
       5B1     0.610538    12A1     0.610568     1A2     0.610568
       6B2     1.495582     6B1     1.495582    13A1     1.507702
      14A1     1.960335     2A2     4.862728    15A1     4.862828
       7B2     4.863472     7B1     4.863472    16A1     4.863850

    Beta Occupied:

       1A1   -65.856014     2A1   -30.828397     3A1    -4.997984
       1B2    -3.354118     1B1    -3.354118     4A1    -3.354086
       5A1    -1.293854     2B1    -0.402768     2B2    -0.402768
       6A1    -0.401421     7A1    -0.097692

    Beta Virtual:

       3B2     0.178005     3B1     0.178005     8A1     0.178314
       9A1     0.512644    10A1     0.587173     4B1     0.587253
       4B2     0.587253    11A1     0.684012    12A1     0.684025
       1A2     0.684025     5B2     0.684036     5B1     0.684036
       6B2     1.495528     6B1     1.495528    13A1     1.507880
      14A1     1.960562     2A2     4.862770    15A1     4.862870
       7B1     4.863585     7B2     4.863585    16A1     4.863987

    Final Occupation by Irrep:
             A1    A2    B1    B2
    DOCC [     7,    0,    2,    2 ]
    SOCC [     1,    0,    1,    1 ]
    NA   [     8,    0,    3,    3 ]
    NB   [     7,    0,    2,    2 ]

  @DF-UKS Final Energy:  -418.32871027415320

   => Energetics <=

    Nuclear Repulsion Energy =             18.3105276834204389
    One-Electron Energy =                -625.3355140058558845
    Two-Electron Energy =                 215.7695363753499578
    DFT Exchange-Correlation Energy =     -27.0732603270677963
    Empirical Dispersion Energy =           0.0000000000000000
    VV10 Nonlocal Energy =                  0.0000000000000000
    Total Energy =                       -418.3287102741532522

  UHF NO Occupations:
  HONO-2 :    3 B1 1.0000000
  HONO-1 :    8 A1 1.0000000
  HONO-0 :    3 B2 1.0000000
  LUNO+0 :    9 A1 0.0000018
  LUNO+1 :   10 A1 0.0000000
  LUNO+2 :    4 B1 0.0000000
  LUNO+3 :    4 B2 0.0000000

Computation Completed

Properties will be evaluated at   0.000000,   0.000000,   0.000000 [a0]

Properties computed using the SCF density matrix

 Multipole Moments:

 ------------------------------------------------------------------------------------
     Multipole            Electronic (a.u.)      Nuclear  (a.u.)        Total (a.u.)
 ------------------------------------------------------------------------------------

 L = 1.  Multiply by 2.5417464519 to convert [e a0] to [Debye]
 Dipole X            :          0.0000000            0.0000000            0.0000000
 Dipole Y            :          0.0000000            0.0000000            0.0000000
 Dipole Z            :          3.2065592           -0.0199074            3.1866517
 Magnitude           :                                                    3.1866517

 ------------------------------------------------------------------------------------

*** tstop() called on Joses-MacBook-Pro-2.local at Thu Jul 17 11:01:08 2025
Module time:
	user time   =       2.57 seconds =       0.04 minutes
	system time =       3.27 seconds =       0.05 minutes
	total time  =          1 seconds =       0.02 minutes
Total time:
	user time   =      88.62 seconds =       1.48 minutes
	system time =      92.88 seconds =       1.55 minutes
	total time  =         19 seconds =       0.32 minutes

*** tstart() called on Joses-MacBook-Pro-2.local
*** at Thu Jul 17 11:01:08 2025

         ------------------------------------------------------------
                                   SCF GRAD
                          Rob Parrish, Justin Turney,
                       Andy Simmonett, and Alex Sokolov
         ------------------------------------------------------------

  ==> Geometry <==

    Molecular point group: c2v
    Full point group: C_inf_v

    Geometry (in Angstrom), charge = -1, multiplicity = 4:

       Center              X                  Y                   Z               Mass
    ------------   -----------------  -----------------  -----------------  -----------------
         NE           0.000000000000     0.000000000000     2.359740930954    19.992440176200
         SI           0.000000000000     0.000000000000    -1.686281705569    27.976926534650

  Nuclear repulsion =   18.310527683420439

  ==> Basis Set <==

  Basis Set: CC-PVDZ
    Blend: CC-PVDZ
    Number of shells: 14
    Number of basis functions: 32
    Number of Cartesian functions: 34
    Spherical Harmonics?: true
    Max angular momentum: 2

  ==> DFJKGrad: Density-Fitted SCF Gradients <==

    Gradient:                    1
    J tasked:                  Yes
    K tasked:                  Yes
    wK tasked:                  No
    OpenMP threads:              1
    Integrals threads:           1
    Memory [MiB]:              375
    Schwarz Cutoff:          1E-12
    Fitting Condition:       1E-10

   => Auxiliary Basis Set <=

  Basis Set: (CC-PVDZ AUX)
    Blend: CC-PVDZ-JKFIT
    Number of shells: 60
    Number of basis functions: 182
    Number of Cartesian functions: 211
    Spherical Harmonics?: true
    Max angular momentum: 3

  ==> DFT Potential <==

   => LibXC <=

    Version 6.2.2
    S. Lehtola, C. Steigemann, M. J.T. Oliveira, and M. A.L. Marques.,  SoftwareX 7, 1â€“5 (2018) (10.1016/j.softx.2017.11.002)

   => Composite Functional: B3LYP <=

    B3LYP Hyb-GGA Exchange-Correlation Functional

    P. J. Stephens, F. J. Devlin, C. F. Chabalowski, and M. J. Frisch.,  J. Phys. Chem. 98, 11623 (1994) (10.1021/j100096a001)

    Deriv               =              1
    GGA                 =           TRUE
    Meta                =          FALSE

    Exchange Hybrid     =           TRUE
    MP2 Hybrid          =          FALSE

   => Exchange Functionals <=

    0.0800   Slater exchange
    0.7200         Becke 88

   => Exact (HF) Exchange <=

    0.2000               HF

   => Correlation Functionals <=

    0.1900   Vosko, Wilk & Nusair (VWN5_RPA)
    0.8100   Lee, Yang & Parr

   => LibXC Density Thresholds  <==

    XC_HYB_GGA_XC_B3LYP:  1.00E-15

   => Molecular Quadrature <=

    Radial Scheme          =       TREUTLER
    Pruning Scheme         =           NONE
    Nuclear Scheme         =       TREUTLER

    Blocking Scheme        =         OCTREE
    BS radius alpha        =              1
    Pruning alpha          =              1
    Radial Points          =             75
    Spherical Points       =            302
    Total Points           =          43081
    Total Blocks           =            417
    Max Points             =            251
    Max Functions          =             32
    Weights Tolerance      =       1.00E-15

  -Total Gradient:
     Atom            X                  Y                   Z
    ------   -----------------  -----------------  -----------------
       1       -0.000000000000    -0.000000000000    -0.000003484028
       2       -0.000000000000     0.000000000000     0.000020757049

*** tstop() called on Joses-MacBook-Pro-2.local at Thu Jul 17 11:01:08 2025
Module time:
	user time   =       0.79 seconds =       0.01 minutes
	system time =       1.67 seconds =       0.03 minutes
	total time  =          0 seconds =       0.00 minutes
Total time:
	user time   =      89.42 seconds =       1.49 minutes
	system time =      94.55 seconds =       1.58 minutes
	total time  =         19 seconds =       0.32 minutes

    			-----------------------------------------

    			 OPTKING 3.0: for geometry optimizations

    			     By R.A. King, Bethel University

    			        with contributions from

    			    A.V. Copan, J. Cayton, A. Heide

    			-----------------------------------------

	                            ===> Fragment 1 <==

	 Z (Atomic Numbers)          Masses                          Geom
	      10.000000            19.992440          0.00000000  0.00000000  4.45926409
	      14.000000            27.976927          0.00000000  0.00000000 -3.18661059

	 - Coordinate -           - BOHR/RAD -       - ANG/DEG -
	 R(1,2)           =         7.645875           4.046023

	        --- Internal Coordinate Step in ANG or DEG, aJ/ANG or AJ/DEG ---
	-------------------------------------------------------------------------------
	           Coordinate      Previous         Force          Change          New
	           ----------      --------        ------          ------        ------
	               R(1,2)       4.04602        0.00010        0.00805       4.05408
	-------------------------------------------------------------------------------

	                                 ==> Convergence Check <==

	Measures of convergence in internal coordinates in au.

	Criteria marked as inactive (o), active & met (*), and active & unmet ( ).

	----------------------------------------------------------------------------------------------
	   Step    Total Energy     Delta E     Max Force     RMS Force      Max Disp      RMS Disp
	----------------------------------------------------------------------------------------------
	  Convergence Criteria     1.00e-06 *    3.00e-04 *             o    1.20e-03 *             o
	----------------------------------------------------------------------------------------------
	    18    -418.32871027   -4.99e-07 *    1.21e-05 *    1.21e-05 o    1.52e-02      1.52e-02 o  ~
	----------------------------------------------------------------------------------------------

Next Geometry in Ang
	Fragment 1 (Ang)

	   Ne   0.0000000000   0.0000000000   2.3637672774
	   Si   0.0000000000   0.0000000000  -1.6903080521

    Final optimized geometry and variables:
    Molecular point group: c2v
    Full point group: C_inf_v

    Geometry (in Angstrom), charge = -1, multiplicity = 4:

    NE           0.000000000000     0.000000000000     2.359740930954
    SI           0.000000000000     0.000000000000    -1.686281705569

    Psi4 stopped on: Thursday, 17 July 2025 11:01AM
    Psi4 wall time for execution: 0:00:19.40

*** Psi4 exiting successfully. Buy a developer a beer!
