                               Psi4 1.9.1 release

  ==> Input File <==

--------------------------------------------------------------------------
molecule {
-1 4
N   0.00000        0.60000        0.00000
F   0.00000       -0.60000        0.00000
}

set {
basis              cc-pvdz
reference          uks
maxiter            500
geom_maxiter       500
DAMPING_PERCENTAGE 1
guess              SAP
}

optimize('b3lyp')
--------------------------------------------------------------------------

    Molecular point group: c2v
  Charge       = -1
  Multiplicity = 4
  Basis Set: CC-PVDZ
    Blend: CC-PVDZ
  Basis Set: (CC-PVDZ AUX)
    Blend: CC-PVDZ-JKFIT
  @DF-UKS Final Energy:  -154.08725011942047
    Total Energy =                       -154.0872501194205029
 Dipole X            :          0.0000000            0.0000000            0.0000000
 Dipole Y            :          0.0000000            0.0000000            0.0000000
 Dipole Z            :         -1.5743058            0.4783305           -1.0959752
 Magnitude           :                                                    1.0959752
    Molecular point group: c2v
  Basis Set: CC-PVDZ
    Blend: CC-PVDZ
  Basis Set: (CC-PVDZ AUX)
    Blend: CC-PVDZ-JKFIT
  Basis Set: CC-PVDZ
    Blend: CC-PVDZ
  Basis Set: (CC-PVDZ AUX)
    Blend: CC-PVDZ-JKFIT
  @DF-UKS Final Energy:  -154.29226098949849
    Total Energy =                       -154.2922609894984873
  Basis Set: CC-PVDZ
    Blend: CC-PVDZ
  Basis Set: (CC-PVDZ AUX)
    Blend: CC-PVDZ-JKFIT
  Basis Set: CC-PVDZ
    Blend: CC-PVDZ
  @DF-UKS Final Energy:  -154.36423376231315
    Total Energy =                       -154.3642337623131766
  @DF-UKS Final Energy:  -154.38840646647253
    Total Energy =                       -154.3884064664725315
  @DF-UKS Final Energy:  -154.39928923484459
    Total Energy =                       -154.3992892348446162
  @DF-UKS Final Energy:  -154.40317060197694
    Total Energy =                       -154.4031706019769388
  @DF-UKS Final Energy:  -154.40409533457654
    Total Energy =                       -154.4040953345765388
  @DF-UKS Final Energy:  -154.40442520712654
    Total Energy =                       -154.4044252071265362
  @DF-UKS Final Energy:  -154.40448277916281
    Total Energy =                       -154.4044827791628052
  @DF-UKS Final Energy:  -154.40449395365698
    Total Energy =                       -154.4044939536569530
  Basis Set: (CC-PVDZ AUX)
    Blend: CC-PVDZ-JKFIT
  Basis Set: CC-PVDZ
    Blend: CC-PVDZ
  Basis Set: (CC-PVDZ AUX)
    Blend: CC-PVDZ-JKFIT
  @DF-UKS Final Energy:  -154.40449662464221
    Total Energy =                       -154.4044966246422064
  Basis Set: CC-PVDZ
    Blend: CC-PVDZ
  Basis Set: (CC-PVDZ AUX)
    Blend: CC-PVDZ-JKFIT
  Charge       = -1
  Multiplicity = 4
  Basis Set: CC-PVDZ
    Blend: CC-PVDZ
  Basis Set: (CC-PVDZ AUX)
    Blend: CC-PVDZ-JKFIT

    Orbital Energies [Eh]
    ---------------------

    Alpha Occupied:

       1A1   -24.236268     2A1   -14.099823     3A1    -0.696777
       4A1    -0.476022     5A1    -0.046481     1B2    -0.034550
       1B1    -0.034550     2B1     0.036435     2B2     0.036435
       6A1     0.068194

    Alpha Virtual:

       3B1     0.943993     3B2     0.943993     7A1     0.985196
       8A1     1.120191     4B1     1.524057     4B2     1.524057
       9A1     1.566019    10A1     1.876125    11A1     1.989699
       1A2     1.989701     5B2     2.021492     5B1     2.021492
      12A1     2.359276     6B1     4.002277     6B2     4.002277
      13A1     4.015120     2A2     4.015142    14A1     4.031061

    Beta Occupied:

       1A1   -24.224538     2A1   -14.049510     3A1    -0.666821
       4A1    -0.303181     1B1     0.046554     1B2     0.046554
       5A1     0.048061

    Beta Virtual:

       2B1     0.210563     2B2     0.210563     6A1     0.254870
       3B1     1.050924     3B2     1.050924     7A1     1.069591
       8A1     1.210943     4B1     1.536928     4B2     1.536928
       9A1     1.605551    10A1     1.937043    11A1     2.133186
       1A2     2.133189     5B2     2.146838     5B1     2.146838
      12A1     2.433615    13A1     4.026177     2A2     4.026198
       6B1     4.032400     6B2     4.032400    14A1     4.067597

    Final Occupation by Irrep:
             A1    A2    B1    B2
    DOCC [     5,    0,    1,    1 ]
    SOCC [     1,    0,    1,    1 ]
    NA   [     6,    0,    2,    2 ]
    NB   [     5,    0,    1,    1 ]

  @DF-UKS Final Energy:  -154.40449687255332

   => Energetics <=

    Nuclear Repulsion Energy =             15.6103831553980559
    One-Electron Energy =                -251.2432583432442357
    Two-Electron Energy =                  95.4375205754671896
    DFT Exchange-Correlation Energy =     -14.2091422601743655
    Empirical Dispersion Energy =           0.0000000000000000
    VV10 Nonlocal Energy =                  0.0000000000000000
    Total Energy =                       -154.4044968725533522

  UHF NO Occupations:
  HONO-2 :    2 B2 1.0000000
  HONO-1 :    6 A1 1.0000000
  HONO-0 :    2 B1 1.0000000
  LUNO+0 :    7 A1 0.0012668
  LUNO+1 :    8 A1 0.0007153
  LUNO+2 :    3 B1 0.0001205
  LUNO+3 :    3 B2 0.0001205

Computation Completed

Properties will be evaluated at   0.000000,   0.000000,   0.000000 [a0]

Properties computed using the SCF density matrix

 Multipole Moments:

 ------------------------------------------------------------------------------------
     Multipole            Electronic (a.u.)      Nuclear  (a.u.)        Total (a.u.)
 ------------------------------------------------------------------------------------

 L = 1.  Multiply by 2.5417464519 to convert [e a0] to [Debye]
 Dipole X            :          0.0000000            0.0000000            0.0000000
 Dipole Y            :          0.0000000            0.0000000            0.0000000
 Dipole Z            :         -0.5962370            0.8512850            0.2550480
 Magnitude           :                                                    0.2550480

 ------------------------------------------------------------------------------------

*** tstop() called on Joses-MacBook-Pro-2.local at Thu Jul 17 10:26:57 2025
Module time:
	user time   =       2.88 seconds =       0.05 minutes
	system time =       3.15 seconds =       0.05 minutes
	total time  =          0 seconds =       0.00 minutes
Total time:
	user time   =      51.35 seconds =       0.86 minutes
	system time =      55.10 seconds =       0.92 minutes
	total time  =         10 seconds =       0.17 minutes

*** tstart() called on Joses-MacBook-Pro-2.local
*** at Thu Jul 17 10:26:57 2025

         ------------------------------------------------------------
                                   SCF GRAD
                          Rob Parrish, Justin Turney,
                       Andy Simmonett, and Alex Sokolov
         ------------------------------------------------------------

  ==> Geometry <==

    Molecular point group: c2v
    Full point group: C_inf_v

    Geometry (in Angstrom), charge = -1, multiplicity = 4:

       Center              X                  Y                   Z               Mass
    ------------   -----------------  -----------------  -----------------  -----------------
         N            0.000000000000     0.000000000000     1.229452740204    14.003074004430
         F            0.000000000000     0.000000000000    -0.906187617905    18.998403162730

  Nuclear repulsion =   15.610383155398056

  ==> Basis Set <==

  Basis Set: CC-PVDZ
    Blend: CC-PVDZ
    Number of shells: 12
    Number of basis functions: 28
    Number of Cartesian functions: 30
    Spherical Harmonics?: true
    Max angular momentum: 2

  ==> DFJKGrad: Density-Fitted SCF Gradients <==

    Gradient:                    1
    J tasked:                  Yes
    K tasked:                  Yes
    wK tasked:                  No
    OpenMP threads:              1
    Integrals threads:           1
    Memory [MiB]:              375
    Schwarz Cutoff:          1E-12
    Fitting Condition:       1E-10

   => Auxiliary Basis Set <=

  Basis Set: (CC-PVDZ AUX)
    Blend: CC-PVDZ-JKFIT
    Number of shells: 48
    Number of basis functions: 140
    Number of Cartesian functions: 162
    Spherical Harmonics?: true
    Max angular momentum: 3

  ==> DFT Potential <==

   => LibXC <=

    Version 6.2.2
    S. Lehtola, C. Steigemann, M. J.T. Oliveira, and M. A.L. Marques.,  SoftwareX 7, 1â€“5 (2018) (10.1016/j.softx.2017.11.002)

   => Composite Functional: B3LYP <=

    B3LYP Hyb-GGA Exchange-Correlation Functional

    P. J. Stephens, F. J. Devlin, C. F. Chabalowski, and M. J. Frisch.,  J. Phys. Chem. 98, 11623 (1994) (10.1021/j100096a001)

    Deriv               =              1
    GGA                 =           TRUE
    Meta                =          FALSE

    Exchange Hybrid     =           TRUE
    MP2 Hybrid          =          FALSE

   => Exchange Functionals <=

    0.0800   Slater exchange
    0.7200         Becke 88

   => Exact (HF) Exchange <=

    0.2000               HF

   => Correlation Functionals <=

    0.1900   Vosko, Wilk & Nusair (VWN5_RPA)
    0.8100   Lee, Yang & Parr

   => LibXC Density Thresholds  <==

    XC_HYB_GGA_XC_B3LYP:  1.00E-15

   => Molecular Quadrature <=

    Radial Scheme          =       TREUTLER
    Pruning Scheme         =           NONE
    Nuclear Scheme         =       TREUTLER

    Blocking Scheme        =         OCTREE
    BS radius alpha        =              1
    Pruning alpha          =              1
    Radial Points          =             75
    Spherical Points       =            302
    Total Points           =          42610
    Total Blocks           =            375
    Max Points             =            256
    Max Functions          =             28
    Weights Tolerance      =       1.00E-15

  -Total Gradient:
     Atom            X                  Y                   Z
    ------   -----------------  -----------------  -----------------
       1        0.000000000000     0.000000000000    -0.000027158403
       2       -0.000000000000     0.000000000000     0.000016785953

*** tstop() called on Joses-MacBook-Pro-2.local at Thu Jul 17 10:26:58 2025
Module time:
	user time   =       0.43 seconds =       0.01 minutes
	system time =       1.54 seconds =       0.03 minutes
	total time  =          1 seconds =       0.02 minutes
Total time:
	user time   =      51.78 seconds =       0.86 minutes
	system time =      56.64 seconds =       0.94 minutes
	total time  =         11 seconds =       0.18 minutes

    			-----------------------------------------

    			 OPTKING 3.0: for geometry optimizations

    			     By R.A. King, Bethel University

    			        with contributions from

    			    A.V. Copan, J. Cayton, A. Heide

    			-----------------------------------------

	                            ===> Fragment 1 <==

	 Z (Atomic Numbers)          Masses                          Geom
	       7.000000            14.003074          0.00000000  0.00000000  2.32332896
	       9.000000            18.998403          0.00000000  0.00000000 -1.71244642

	 - Coordinate -           - BOHR/RAD -       - ANG/DEG -
	 R(1,2)           =         4.035775           2.135640

	        --- Internal Coordinate Step in ANG or DEG, aJ/ANG or AJ/DEG ---
	-------------------------------------------------------------------------------
	           Coordinate      Previous         Force          Change          New
	           ----------      --------        ------          ------        ------
	               R(1,2)       2.13564        0.00018        0.00030       2.13594
	-------------------------------------------------------------------------------

	                                 ==> Convergence Check <==

	Measures of convergence in internal coordinates in au.

	Criteria marked as inactive (o), active & met (*), and active & unmet ( ).

	----------------------------------------------------------------------------------------------
	   Step    Total Energy     Delta E     Max Force     RMS Force      Max Disp      RMS Disp
	----------------------------------------------------------------------------------------------
	  Convergence Criteria     1.00e-06 *    3.00e-04 *             o    1.20e-03 *             o
	----------------------------------------------------------------------------------------------
	    12    -154.40449687   -2.48e-07 *    2.20e-05 *    2.20e-05 o    5.73e-04 *    5.73e-04 o  ~
	----------------------------------------------------------------------------------------------

Next Geometry in Ang
	Fragment 1 (Ang)

	    N   0.0000000000   0.0000000000   1.2296042822
	    F   0.0000000000   0.0000000000  -0.9063391600

    Final optimized geometry and variables:
    Molecular point group: c2v
    Full point group: C_inf_v

    Geometry (in Angstrom), charge = -1, multiplicity = 4:

    N            0.000000000000     0.000000000000     1.229452740204
    F            0.000000000000     0.000000000000    -0.906187617905

    Psi4 stopped on: Thursday, 17 July 2025 10:26AM
    Psi4 wall time for execution: 0:00:10.79

*** Psi4 exiting successfully. Buy a developer a beer!
