                               Psi4 1.9.1 release

  ==> Input File <==

--------------------------------------------------------------------------
molecule {
-1 4
N   0.00000        0.60000        0.00000
Cl   0.00000       -0.60000        0.00000
}

set {
basis              cc-pvdz
reference          uks
maxiter            500
geom_maxiter       500
DAMPING_PERCENTAGE 1
guess              SAP
}

optimize('b3lyp')
--------------------------------------------------------------------------

    Molecular point group: c2v
  Charge       = -1
  Multiplicity = 4
  Basis Set: CC-PVDZ
    Blend: CC-PVDZ
  Basis Set: (CC-PVDZ AUX)
    Blend: CC-PVDZ-JKFIT
  @DF-UKS Final Energy:  -514.35281843028474
    Total Energy =                       -514.3528184302847421
 Dipole X            :          0.0000000            0.0000000            0.0000000
 Dipole Y            :          0.0000000            0.0000000            0.0000000
 Dipole Z            :         -0.2668661            0.3116229            0.0447567
 Magnitude           :                                                    0.0447567
    Molecular point group: c2v
  Basis Set: CC-PVDZ
    Blend: CC-PVDZ
  Basis Set: (CC-PVDZ AUX)
    Blend: CC-PVDZ-JKFIT
  Basis Set: CC-PVDZ
    Blend: CC-PVDZ
  Basis Set: (CC-PVDZ AUX)
    Blend: CC-PVDZ-JKFIT
  @DF-UKS Final Energy:  -514.52811125124094
    Total Energy =                       -514.5281112512409436
  Basis Set: CC-PVDZ
    Blend: CC-PVDZ
  Basis Set: (CC-PVDZ AUX)
    Blend: CC-PVDZ-JKFIT
  Basis Set: CC-PVDZ
    Blend: CC-PVDZ
  @DF-UKS Final Energy:  -514.63552161058249
    Total Energy =                       -514.6355216105824866
  @DF-UKS Final Energy:  -514.70222681873065
    Total Energy =                       -514.7022268187306508
  @DF-UKS Final Energy:  -514.77571933335776
    Total Energy =                       -514.7757193333577561
  @DF-UKS Final Energy:  -514.83469876331969
    Total Energy =                       -514.8346987633196932
  @DF-UKS Final Energy:  -514.84308490263629
    Total Energy =                       -514.8430849026362921
  @DF-UKS Final Energy:  -514.85983070746977
    Total Energy =                       -514.8598307074697686
  @DF-UKS Final Energy:  -514.86500193478855
    Total Energy =                       -514.8650019347885518
  @DF-UKS Final Energy:  -514.86706694245481
    Total Energy =                       -514.8670669424546986
  @DF-UKS Final Energy:  -514.86765291496943
    Total Energy =                       -514.8676529149695398
  @DF-UKS Final Energy:  -514.86774996748727
    Total Energy =                       -514.8677499674872706
  @DF-UKS Final Energy:  -514.86776859853956
    Total Energy =                       -514.8677685985395556
  Basis Set: (CC-PVDZ AUX)
    Blend: CC-PVDZ-JKFIT
  Basis Set: CC-PVDZ
    Blend: CC-PVDZ
  Basis Set: (CC-PVDZ AUX)
    Blend: CC-PVDZ-JKFIT
  @DF-UKS Final Energy:  -514.86777313808000
    Total Energy =                       -514.8677731380799969
  Basis Set: CC-PVDZ
    Blend: CC-PVDZ
  Basis Set: (CC-PVDZ AUX)
    Blend: CC-PVDZ-JKFIT
  Charge       = -1
  Multiplicity = 4
  Basis Set: CC-PVDZ
    Blend: CC-PVDZ
  Basis Set: (CC-PVDZ AUX)
    Blend: CC-PVDZ-JKFIT

    Orbital Energies [Eh]
    ---------------------

    Alpha Occupied:

       1A1  -101.205891     2A1   -14.187236     3A1    -9.118917
       4A1    -6.878159     1B1    -6.874885     1B2    -6.874885
       5A1    -0.561460     6A1    -0.464040     2B2    -0.109655
       2B1    -0.109655     7A1    -0.106506     3B1    -0.007016
       3B2    -0.007016     8A1     0.004803

    Alpha Virtual:

       4B2     0.811929     4B1     0.811929     9A1     0.833272
      10A1     0.848169     5B2     0.901185     5B1     0.901185
      11A1     0.926153    12A1     1.017342     1A2     1.059608
      13A1     1.059608     6B1     1.061695     6B2     1.061695
      14A1     1.298042     2A2     1.912706    15A1     1.912729
       7B2     1.925658     7B1     1.925658    16A1     1.970578

    Beta Occupied:

       1A1  -101.204261     2A1   -14.134422     3A1    -9.117302
       4A1    -6.873731     1B1    -6.873592     1B2    -6.873592
       5A1    -0.456395     6A1    -0.375000     7A1    -0.007519
       2B1    -0.004196     2B2    -0.004196

    Beta Virtual:

       3B2     0.137734     3B1     0.137734     8A1     0.153294
       4B2     0.829341     4B1     0.829341     9A1     0.859624
      10A1     0.879080    11A1     0.988100     5B2     0.988470
       5B1     0.988470    12A1     1.057240     1A2     1.063181
      13A1     1.063182     6B2     1.079398     6B1     1.079398
      14A1     1.362344     2A2     2.058410    15A1     2.058434
       7B2     2.061270     7B1     2.061270    16A1     2.097983

    Final Occupation by Irrep:
             A1    A2    B1    B2
    DOCC [     7,    0,    2,    2 ]
    SOCC [     1,    0,    1,    1 ]
    NA   [     8,    0,    3,    3 ]
    NB   [     7,    0,    2,    2 ]

  @DF-UKS Final Energy:  -514.86777356026187

   => Energetics <=

    Nuclear Repulsion Energy =             22.9656881020194028
    One-Electron Energy =                -762.9681816025627086
    Two-Electron Energy =                 253.5986326619226077
    DFT Exchange-Correlation Energy =     -28.4639127216411225
    Empirical Dispersion Energy =           0.0000000000000000
    VV10 Nonlocal Energy =                  0.0000000000000000
    Total Energy =                       -514.8677735602618668

  UHF NO Occupations:
  HONO-2 :    3 B1 1.0000000
  HONO-1 :    3 B2 1.0000000
  HONO-0 :    8 A1 1.0000000
  LUNO+0 :    9 A1 0.0009588
  LUNO+1 :   10 A1 0.0006706
  LUNO+2 :    4 B2 0.0000406
  LUNO+3 :    4 B1 0.0000406

Computation Completed

Properties will be evaluated at   0.000000,   0.000000,   0.000000 [a0]

Properties computed using the SCF density matrix

 Multipole Moments:

 ------------------------------------------------------------------------------------
     Multipole            Electronic (a.u.)      Nuclear  (a.u.)        Total (a.u.)
 ------------------------------------------------------------------------------------

 L = 1.  Multiply by 2.5417464519 to convert [e a0] to [Debye]
 Dipole X            :          0.0000000            0.0000000            0.0000000
 Dipole Y            :          0.0000000            0.0000000            0.0000000
 Dipole Z            :         -0.2141093            0.7120602            0.4979508
 Magnitude           :                                                    0.4979508

 ------------------------------------------------------------------------------------

*** tstop() called on Joses-MacBook-Pro-2.local at Thu Jul 17 10:37:02 2025
Module time:
	user time   =       3.15 seconds =       0.05 minutes
	system time =       3.13 seconds =       0.05 minutes
	total time  =          1 seconds =       0.02 minutes
Total time:
	user time   =      75.24 seconds =       1.25 minutes
	system time =      91.48 seconds =       1.52 minutes
	total time  =         18 seconds =       0.30 minutes

*** tstart() called on Joses-MacBook-Pro-2.local
*** at Thu Jul 17 10:37:02 2025

         ------------------------------------------------------------
                                   SCF GRAD
                          Rob Parrish, Justin Turney,
                       Andy Simmonett, and Alex Sokolov
         ------------------------------------------------------------

  ==> Geometry <==

    Molecular point group: c2v
    Full point group: C_inf_v

    Geometry (in Angstrom), charge = -1, multiplicity = 4:

       Center              X                  Y                   Z               Mass
    ------------   -----------------  -----------------  -----------------  -----------------
         N            0.000000000000     0.000000000000     1.957955534196    14.003074004430
         CL           0.000000000000     0.000000000000    -0.784051924496    34.968852682000

  Nuclear repulsion =   22.965688102019403

  ==> Basis Set <==

  Basis Set: CC-PVDZ
    Blend: CC-PVDZ
    Number of shells: 14
    Number of basis functions: 32
    Number of Cartesian functions: 34
    Spherical Harmonics?: true
    Max angular momentum: 2

  ==> DFJKGrad: Density-Fitted SCF Gradients <==

    Gradient:                    1
    J tasked:                  Yes
    K tasked:                  Yes
    wK tasked:                  No
    OpenMP threads:              1
    Integrals threads:           1
    Memory [MiB]:              375
    Schwarz Cutoff:          1E-12
    Fitting Condition:       1E-10

   => Auxiliary Basis Set <=

  Basis Set: (CC-PVDZ AUX)
    Blend: CC-PVDZ-JKFIT
    Number of shells: 60
    Number of basis functions: 182
    Number of Cartesian functions: 211
    Spherical Harmonics?: true
    Max angular momentum: 3

  ==> DFT Potential <==

   => LibXC <=

    Version 6.2.2
    S. Lehtola, C. Steigemann, M. J.T. Oliveira, and M. A.L. Marques.,  SoftwareX 7, 1â€“5 (2018) (10.1016/j.softx.2017.11.002)

   => Composite Functional: B3LYP <=

    B3LYP Hyb-GGA Exchange-Correlation Functional

    P. J. Stephens, F. J. Devlin, C. F. Chabalowski, and M. J. Frisch.,  J. Phys. Chem. 98, 11623 (1994) (10.1021/j100096a001)

    Deriv               =              1
    GGA                 =           TRUE
    Meta                =          FALSE

    Exchange Hybrid     =           TRUE
    MP2 Hybrid          =          FALSE

   => Exchange Functionals <=

    0.0800   Slater exchange
    0.7200         Becke 88

   => Exact (HF) Exchange <=

    0.2000               HF

   => Correlation Functionals <=

    0.1900   Vosko, Wilk & Nusair (VWN5_RPA)
    0.8100   Lee, Yang & Parr

   => LibXC Density Thresholds  <==

    XC_HYB_GGA_XC_B3LYP:  1.00E-15

   => Molecular Quadrature <=

    Radial Scheme          =       TREUTLER
    Pruning Scheme         =           NONE
    Nuclear Scheme         =       TREUTLER

    Blocking Scheme        =         OCTREE
    BS radius alpha        =              1
    Pruning alpha          =              1
    Radial Points          =             75
    Spherical Points       =            302
    Total Points           =          41226
    Total Blocks           =            372
    Max Points             =            256
    Max Functions          =             32
    Weights Tolerance      =       1.00E-15

  -Total Gradient:
     Atom            X                  Y                   Z
    ------   -----------------  -----------------  -----------------
       1        0.000000000000    -0.000000000000    -0.000026402258
       2        0.000000000000     0.000000000000     0.000033588551

*** tstop() called on Joses-MacBook-Pro-2.local at Thu Jul 17 10:37:02 2025
Module time:
	user time   =       0.94 seconds =       0.02 minutes
	system time =       1.73 seconds =       0.03 minutes
	total time  =          0 seconds =       0.00 minutes
Total time:
	user time   =      76.18 seconds =       1.27 minutes
	system time =      93.22 seconds =       1.55 minutes
	total time  =         18 seconds =       0.30 minutes

    			-----------------------------------------

    			 OPTKING 3.0: for geometry optimizations

    			     By R.A. King, Bethel University

    			        with contributions from

    			    A.V. Copan, J. Cayton, A. Heide

    			-----------------------------------------

	                            ===> Fragment 1 <==

	 Z (Atomic Numbers)          Masses                          Geom
	       7.000000            14.003074          0.00000000  0.00000000  3.69999973
	      17.000000            34.968853          0.00000000  0.00000000 -1.48164341

	 - Coordinate -           - BOHR/RAD -       - ANG/DEG -
	 R(1,2)           =         5.181643           2.742007

	        --- Internal Coordinate Step in ANG or DEG, aJ/ANG or AJ/DEG ---
	-------------------------------------------------------------------------------
	           Coordinate      Previous         Force          Change          New
	           ----------      --------        ------          ------        ------
	               R(1,2)       2.74201        0.00025        0.00113       2.74314
	-------------------------------------------------------------------------------

	                                 ==> Convergence Check <==

	Measures of convergence in internal coordinates in au.

	Criteria marked as inactive (o), active & met (*), and active & unmet ( ).

	----------------------------------------------------------------------------------------------
	   Step    Total Energy     Delta E     Max Force     RMS Force      Max Disp      RMS Disp
	----------------------------------------------------------------------------------------------
	  Convergence Criteria     1.00e-06 *    3.00e-04 *             o    1.20e-03 *             o
	----------------------------------------------------------------------------------------------
	    15    -514.86777356   -4.22e-07 *    3.00e-05 *    3.00e-05 o    2.14e-03      2.14e-03 o  ~
	----------------------------------------------------------------------------------------------

Next Geometry in Ang
	Fragment 1 (Ang)

	    N   0.0000000000   0.0000000000   1.9585211624
	   Cl   0.0000000000   0.0000000000  -0.7846175527

    Final optimized geometry and variables:
    Molecular point group: c2v
    Full point group: C_inf_v

    Geometry (in Angstrom), charge = -1, multiplicity = 4:

    N            0.000000000000     0.000000000000     1.957955534196
    CL           0.000000000000     0.000000000000    -0.784051924496

    Psi4 stopped on: Thursday, 17 July 2025 10:37AM
    Psi4 wall time for execution: 0:00:19.21

*** Psi4 exiting successfully. Buy a developer a beer!
