                               Psi4 1.9.1 release

  ==> Input File <==

--------------------------------------------------------------------------
molecule {
-1 4
He   0.00000        0.60000        0.00000
Si   0.00000       -0.60000        0.00000
}

set {
basis              cc-pvdz
reference          uks
maxiter            500
geom_maxiter       500
DAMPING_PERCENTAGE 1
guess              SAP
}

optimize('b3lyp')
--------------------------------------------------------------------------

    Molecular point group: c2v
  Charge       = -1
  Multiplicity = 4
  Basis Set: CC-PVDZ
    Blend: CC-PVDZ
  Basis Set: (CC-PVDZ AUX)
    Blend: CC-PVDZ-JKFIT + DEF2-UNIVERSAL-JKFIT
  @DF-UKS Final Energy:  -292.04511745970791
    Total Energy =                       -292.0451174597079103
 Dipole X            :          0.0000000            0.0000000            0.0000000
 Dipole Y            :          0.0000000            0.0000000            0.0000000
 Dipole Z            :          1.0104979           -0.0058566            1.0046413
 Magnitude           :                                                    1.0046413
    Molecular point group: c2v
  Basis Set: CC-PVDZ
    Blend: CC-PVDZ
  Basis Set: (CC-PVDZ AUX)
    Blend: CC-PVDZ-JKFIT + DEF2-UNIVERSAL-JKFIT
  Basis Set: CC-PVDZ
    Blend: CC-PVDZ
  Basis Set: (CC-PVDZ AUX)
    Blend: CC-PVDZ-JKFIT + DEF2-UNIVERSAL-JKFIT
  @DF-UKS Final Energy:  -292.16025526698166
    Total Energy =                       -292.1602552669816646
  Basis Set: CC-PVDZ
    Blend: CC-PVDZ
  Basis Set: (CC-PVDZ AUX)
    Blend: CC-PVDZ-JKFIT + DEF2-UNIVERSAL-JKFIT
  Basis Set: CC-PVDZ
    Blend: CC-PVDZ
  @DF-UKS Final Energy:  -292.22836080840591
    Total Energy =                       -292.2283608084058528
  @DF-UKS Final Energy:  -292.27795808130975
    Total Energy =                       -292.2779580813097482
  @DF-UKS Final Energy:  -292.29415683182293
    Total Energy =                       -292.2941568318229315
  @DF-UKS Final Energy:  -292.30950671054273
    Total Energy =                       -292.3095067105426779
  @DF-UKS Final Energy:  -292.31281757684087
    Total Energy =                       -292.3128175768408141
  @DF-UKS Final Energy:  -292.31949920300542
    Total Energy =                       -292.3194992030054209
  @DF-UKS Final Energy:  -292.32026431385208
    Total Energy =                       -292.3202643138520216
  @DF-UKS Final Energy:  -292.32337429303516
    Total Energy =                       -292.3233742930351582
  @DF-UKS Final Energy:  -292.32356108068876
    Total Energy =                       -292.3235610806887053
  @DF-UKS Final Energy:  -292.32499334969401
    Total Energy =                       -292.3249933496940116
  @DF-UKS Final Energy:  -292.32503827526529
    Total Energy =                       -292.3250382752652285
  @DF-UKS Final Energy:  -292.32567381168155
    Total Energy =                       -292.3256738116816109
  @DF-UKS Final Energy:  -292.32568390186924
    Total Energy =                       -292.3256839018692403
  @DF-UKS Final Energy:  -292.32594714548713
    Total Energy =                       -292.3259471454871345
  @DF-UKS Final Energy:  -292.32603388908359
    Total Energy =                       -292.3260338890835897
  @DF-UKS Final Energy:  -292.32607890552515
    Total Energy =                       -292.3260789055251507
  @DF-UKS Final Energy:  -292.32609991240275
    Total Energy =                       -292.3260999124027535
  @DF-UKS Final Energy:  -292.32611075147128
    Total Energy =                       -292.3261107514712762
  @DF-UKS Final Energy:  -292.32611732978341
    Total Energy =                       -292.3261173297834148
  Basis Set: (CC-PVDZ AUX)
    Blend: CC-PVDZ-JKFIT + DEF2-UNIVERSAL-JKFIT
  Basis Set: CC-PVDZ
    Blend: CC-PVDZ
  Basis Set: (CC-PVDZ AUX)
    Blend: CC-PVDZ-JKFIT + DEF2-UNIVERSAL-JKFIT
  @DF-UKS Final Energy:  -292.32612196128929
    Total Energy =                       -292.3261219612892887
  Basis Set: CC-PVDZ
    Blend: CC-PVDZ
  Basis Set: (CC-PVDZ AUX)
    Blend: CC-PVDZ-JKFIT + DEF2-UNIVERSAL-JKFIT
  Charge       = -1
  Multiplicity = 4
  Basis Set: CC-PVDZ
    Blend: CC-PVDZ
  Basis Set: (CC-PVDZ AUX)
    Blend: CC-PVDZ-JKFIT + DEF2-UNIVERSAL-JKFIT

    Orbital Energies [Eh]
    ---------------------

    Alpha Occupied:

       1A1   -65.862993     2A1    -5.005699     3A1    -3.365287
       1B1    -3.365287     1B2    -3.365287     4A1    -0.552374
       5A1    -0.183489     2B2     0.066313     2B1     0.066313
       6A1     0.066313

    Alpha Virtual:

       7A1     0.475044     8A1     0.544521     3B2     0.544532
       3B1     0.544532     9A1     0.610430     4B2     0.610432
       4B1     0.610432    10A1     0.610434     1A2     0.610434
      11A1     1.215954     5B1     2.286570     5B2     2.286570
      12A1     2.287138

    Beta Occupied:

       1A1   -65.856354     2A1    -4.998286     1B1    -3.354413
       1B2    -3.354413     3A1    -3.354412     4A1    -0.552375
       5A1    -0.097877

    Beta Virtual:

       2B2     0.177902     2B1     0.177902     6A1     0.177917
       7A1     0.512624     3B2     0.587147     3B1     0.587147
       8A1     0.587164     9A1     0.683897     4B2     0.683899
       4B1     0.683899    10A1     0.683901     1A2     0.683901
      11A1     1.215937     5B1     2.286571     5B2     2.286571
      12A1     2.287139

    Final Occupation by Irrep:
             A1    A2    B1    B2
    DOCC [     5,    0,    1,    1 ]
    SOCC [     1,    0,    1,    1 ]
    NA   [     6,    0,    2,    2 ]
    NB   [     5,    0,    1,    1 ]

  @DF-UKS Final Energy:  -292.32612515875115

   => Energetics <=

    Nuclear Repulsion Energy =              2.7299285493812091
    One-Electron Energy =                -414.3291902115238940
    Two-Electron Energy =                 137.1016599547903354
    DFT Exchange-Correlation Energy =     -17.8285234513987980
    Empirical Dispersion Energy =           0.0000000000000000
    VV10 Nonlocal Energy =                  0.0000000000000000
    Total Energy =                       -292.3261251587511538

  UHF NO Occupations:
  HONO-2 :    2 B2 1.0000000
  HONO-1 :    6 A1 1.0000000
  HONO-0 :    2 B1 1.0000000
  LUNO+0 :    7 A1 0.0000018
  LUNO+1 :    8 A1 0.0000000
  LUNO+2 :    3 B1 0.0000000
  LUNO+3 :    3 B2 0.0000000

Computation Completed

Properties will be evaluated at   0.000000,   0.000000,   0.000000 [a0]

Properties computed using the SCF density matrix

 Multipole Moments:

 ------------------------------------------------------------------------------------
     Multipole            Electronic (a.u.)      Nuclear  (a.u.)        Total (a.u.)
 ------------------------------------------------------------------------------------

 L = 1.  Multiply by 2.5417464519 to convert [e a0] to [Debye]
 Dipole X            :          0.0000000            0.0000000            0.0000000
 Dipole Y            :          0.0000000            0.0000000            0.0000000
 Dipole Z            :          1.3071948           -0.0264896            1.2807052
 Magnitude           :                                                    1.2807052

 ------------------------------------------------------------------------------------

*** tstop() called on Joses-MacBook-Pro-2.local at Thu Jul 17 09:23:42 2025
Module time:
	user time   =       2.35 seconds =       0.04 minutes
	system time =       2.53 seconds =       0.04 minutes
	total time  =          1 seconds =       0.02 minutes
Total time:
	user time   =     100.72 seconds =       1.68 minutes
	system time =      86.09 seconds =       1.43 minutes
	total time  =         19 seconds =       0.32 minutes

*** tstart() called on Joses-MacBook-Pro-2.local
*** at Thu Jul 17 09:23:42 2025

         ------------------------------------------------------------
                                   SCF GRAD
                          Rob Parrish, Justin Turney,
                       Andy Simmonett, and Alex Sokolov
         ------------------------------------------------------------

  ==> Geometry <==

    Molecular point group: c2v
    Full point group: C_inf_v

    Geometry (in Angstrom), charge = -1, multiplicity = 4:

       Center              X                  Y                   Z               Mass
    ------------   -----------------  -----------------  -----------------  -----------------
         HE           0.000000000000     0.000000000000     4.748274440769     4.002603254130
         SI           0.000000000000     0.000000000000    -0.679326183474    27.976926534650

  Nuclear repulsion =    2.729928549381209

  ==> Basis Set <==

  Basis Set: CC-PVDZ
    Blend: CC-PVDZ
    Number of shells: 11
    Number of basis functions: 23
    Number of Cartesian functions: 24
    Spherical Harmonics?: true
    Max angular momentum: 2

  ==> DFJKGrad: Density-Fitted SCF Gradients <==

    Gradient:                    1
    J tasked:                  Yes
    K tasked:                  Yes
    wK tasked:                  No
    OpenMP threads:              1
    Integrals threads:           1
    Memory [MiB]:              375
    Schwarz Cutoff:          1E-12
    Fitting Condition:       1E-10

   => Auxiliary Basis Set <=

  Basis Set: (CC-PVDZ AUX)
    Blend: CC-PVDZ-JKFIT + DEF2-UNIVERSAL-JKFIT
    Number of shells: 45
    Number of basis functions: 135
    Number of Cartesian functions: 155
    Spherical Harmonics?: true
    Max angular momentum: 3

  ==> DFT Potential <==

   => LibXC <=

    Version 6.2.2
    S. Lehtola, C. Steigemann, M. J.T. Oliveira, and M. A.L. Marques.,  SoftwareX 7, 1â€“5 (2018) (10.1016/j.softx.2017.11.002)

   => Composite Functional: B3LYP <=

    B3LYP Hyb-GGA Exchange-Correlation Functional

    P. J. Stephens, F. J. Devlin, C. F. Chabalowski, and M. J. Frisch.,  J. Phys. Chem. 98, 11623 (1994) (10.1021/j100096a001)

    Deriv               =              1
    GGA                 =           TRUE
    Meta                =          FALSE

    Exchange Hybrid     =           TRUE
    MP2 Hybrid          =          FALSE

   => Exchange Functionals <=

    0.0800   Slater exchange
    0.7200         Becke 88

   => Exact (HF) Exchange <=

    0.2000               HF

   => Correlation Functionals <=

    0.1900   Vosko, Wilk & Nusair (VWN5_RPA)
    0.8100   Lee, Yang & Parr

   => LibXC Density Thresholds  <==

    XC_HYB_GGA_XC_B3LYP:  1.00E-15

   => Molecular Quadrature <=

    Radial Scheme          =       TREUTLER
    Pruning Scheme         =           NONE
    Nuclear Scheme         =       TREUTLER

    Blocking Scheme        =         OCTREE
    BS radius alpha        =              1
    Pruning alpha          =              1
    Radial Points          =             75
    Spherical Points       =            302
    Total Points           =          43123
    Total Blocks           =            441
    Max Points             =            253
    Max Functions          =             23
    Weights Tolerance      =       1.00E-15

  -Total Gradient:
     Atom            X                  Y                   Z
    ------   -----------------  -----------------  -----------------
       1        0.000000000000    -0.000000000000    -0.000010796849
       2        0.000000000000    -0.000000000000     0.000005525384

*** tstop() called on Joses-MacBook-Pro-2.local at Thu Jul 17 09:23:42 2025
Module time:
	user time   =       1.01 seconds =       0.02 minutes
	system time =       0.97 seconds =       0.02 minutes
	total time  =          0 seconds =       0.00 minutes
Total time:
	user time   =     101.74 seconds =       1.70 minutes
	system time =      87.06 seconds =       1.45 minutes
	total time  =         19 seconds =       0.32 minutes

    			-----------------------------------------

    			 OPTKING 3.0: for geometry optimizations

    			     By R.A. King, Bethel University

    			        with contributions from

    			    A.V. Copan, J. Cayton, A. Heide

    			-----------------------------------------

	                            ===> Fragment 1 <==

	 Z (Atomic Numbers)          Masses                          Geom
	       2.000000             4.002603          0.00000000  0.00000000  8.97293826
	      14.000000            27.976927          0.00000000  0.00000000 -1.28374044

	 - Coordinate -           - BOHR/RAD -       - ANG/DEG -
	 R(1,2)           =        10.256679           5.427601

	        --- Internal Coordinate Step in ANG or DEG, aJ/ANG or AJ/DEG ---
	-------------------------------------------------------------------------------
	           Coordinate      Previous         Force          Change          New
	           ----------      --------        ------          ------        ------
	               R(1,2)       5.42760        0.00007        0.00011       5.42771
	-------------------------------------------------------------------------------

	                                 ==> Convergence Check <==

	Measures of convergence in internal coordinates in au.

	Criteria marked as inactive (o), active & met (*), and active & unmet ( ).

	----------------------------------------------------------------------------------------------
	   Step    Total Energy     Delta E     Max Force     RMS Force      Max Disp      RMS Disp
	----------------------------------------------------------------------------------------------
	  Convergence Criteria     1.00e-06 *    3.00e-04 *             o    1.20e-03 *             o
	----------------------------------------------------------------------------------------------
	    23    -292.32612516   -3.20e-06      8.16e-06 *    8.16e-06 o    2.04e-04 *    2.04e-04 o  ~
	----------------------------------------------------------------------------------------------

Next Geometry in Ang
	Fragment 1 (Ang)

	   He   0.0000000000   0.0000000000   4.7483283964
	   Si   0.0000000000   0.0000000000  -0.6793801391

    Final optimized geometry and variables:
    Molecular point group: c2v
    Full point group: C_inf_v

    Geometry (in Angstrom), charge = -1, multiplicity = 4:

    HE           0.000000000000     0.000000000000     4.748274440769
    SI           0.000000000000     0.000000000000    -0.679326183474

    Psi4 stopped on: Thursday, 17 July 2025 09:23AM
    Psi4 wall time for execution: 0:00:19.80

*** Psi4 exiting successfully. Buy a developer a beer!
