                               Psi4 1.9.1 release

  ==> Input File <==

--------------------------------------------------------------------------
molecule {
-1 4
Be   0.00000        0.60000        0.00000
Ar   0.00000       -0.60000        0.00000
}

set {
basis              cc-pvdz
reference          uks
maxiter            500
geom_maxiter       500
DAMPING_PERCENTAGE 1
guess              SAP
}

optimize('b3lyp')
--------------------------------------------------------------------------

    Molecular point group: c2v
  Charge       = -1
  Multiplicity = 4
  Basis Set: CC-PVDZ
    Blend: CC-PVDZ
  Basis Set: (CC-PVDZ AUX)
    Blend: CC-PVDZ-JKFIT + DEF2-UNIVERSAL-JKFIT
  @DF-UKS Final Energy:  -541.58728259285726
    Total Energy =                       -541.5872825928573775
 Dipole X            :          0.0000000            0.0000000            0.0000000
 Dipole Y            :          0.0000000            0.0000000            0.0000000
 Dipole Z            :         -3.6414941           -0.1097272           -3.7512213
 Magnitude           :                                                    3.7512213
    Molecular point group: c2v
  Basis Set: CC-PVDZ
    Blend: CC-PVDZ
  Basis Set: (CC-PVDZ AUX)
    Blend: CC-PVDZ-JKFIT + DEF2-UNIVERSAL-JKFIT
  Basis Set: CC-PVDZ
    Blend: CC-PVDZ
  Basis Set: (CC-PVDZ AUX)
    Blend: CC-PVDZ-JKFIT + DEF2-UNIVERSAL-JKFIT
  @DF-UKS Final Energy:  -541.81145194225928
    Total Energy =                       -541.8114519422591684
  Basis Set: CC-PVDZ
    Blend: CC-PVDZ
  Basis Set: (CC-PVDZ AUX)
    Blend: CC-PVDZ-JKFIT + DEF2-UNIVERSAL-JKFIT
  Basis Set: CC-PVDZ
    Blend: CC-PVDZ
  @DF-UKS Final Energy:  -541.94520193352764
    Total Energy =                       -541.9452019335277555
  @DF-UKS Final Energy:  -542.01703688571081
    Total Energy =                       -542.0170368857109224
  @DF-UKS Final Energy:  -542.05561766013170
    Total Energy =                       -542.0556176601317020
  @DF-UKS Final Energy:  -542.07747398170977
    Total Energy =                       -542.0774739817097725
  @DF-UKS Final Energy:  -542.09064363255925
    Total Energy =                       -542.0906436325592495
  @DF-UKS Final Energy:  -542.09909934995108
    Total Energy =                       -542.0990993499510751
  @DF-UKS Final Energy:  -542.10468849277913
    Total Energy =                       -542.1046884927792462
  @DF-UKS Final Energy:  -542.10821441808650
    Total Energy =                       -542.1082144180865043
  @DF-UKS Final Energy:  -542.11017247241909
    Total Energy =                       -542.1101724724190944
  @DF-UKS Final Energy:  -542.11113850268714
    Total Energy =                       -542.1111385026871403
  @DF-UKS Final Energy:  -542.11158663230765
    Total Energy =                       -542.1115866323076489
  @DF-UKS Final Energy:  -542.11178189461225
    Total Energy =                       -542.1117818946122497
  @DF-UKS Final Energy:  -542.11185686517138
    Total Energy =                       -542.1118568651714895
  @DF-UKS Final Energy:  -542.11187949839132
    Total Energy =                       -542.1118794983913176
  Basis Set: (CC-PVDZ AUX)
    Blend: CC-PVDZ-JKFIT + DEF2-UNIVERSAL-JKFIT
  Basis Set: CC-PVDZ
    Blend: CC-PVDZ
  Basis Set: (CC-PVDZ AUX)
    Blend: CC-PVDZ-JKFIT + DEF2-UNIVERSAL-JKFIT
  @DF-UKS Final Energy:  -542.11188423668762
    Total Energy =                       -542.1118842366877288
  Basis Set: CC-PVDZ
    Blend: CC-PVDZ
  Basis Set: (CC-PVDZ AUX)
    Blend: CC-PVDZ-JKFIT + DEF2-UNIVERSAL-JKFIT
  Charge       = -1
  Multiplicity = 4
  Basis Set: CC-PVDZ
    Blend: CC-PVDZ
  Basis Set: (CC-PVDZ AUX)
    Blend: CC-PVDZ-JKFIT + DEF2-UNIVERSAL-JKFIT

    Orbital Energies [Eh]
    ---------------------

    Alpha Occupied:

       1A1  -114.980178     2A1   -11.016214     1B2    -8.566114
       1B1    -8.566114     3A1    -8.566044     4A1    -3.847483
       5A1    -0.844533     2B2    -0.302656     2B1    -0.302656
       6A1    -0.301186     7A1    -0.041379     3B2     0.090197
       3B1     0.090197

    Alpha Virtual:

       8A1     0.149451     9A1     0.377070     4B2     0.377969
       4B1     0.377969    10A1     0.399951    11A1     0.664090
      12A1     0.675946     1A2     0.675948     5B2     0.677440
       5B1     0.677440     6B1     0.708489     6B2     0.708489
      13A1     0.755559    14A1     0.906399    15A1     0.955232
       2A2     0.955242     7B2     0.956491     7B1     0.956491
      16A1     0.964683

    Beta Occupied:

       1A1  -114.980117     2A1   -11.016153     1B2    -8.566049
       1B1    -8.566049     3A1    -8.565928     4A1    -3.830312
       5A1    -0.844299     2B2    -0.302581     2B1    -0.302581
       6A1    -0.301101

    Beta Virtual:

       7A1     0.121920     8A1     0.208787     3B1     0.235577
       3B2     0.235577     9A1     0.426233    10A1     0.440346
       4B2     0.450799     4B1     0.450799     5B2     0.702588
       5B1     0.702588    11A1     0.706012     6B2     0.789627
       6B1     0.789627    12A1     0.792438    13A1     0.810477
       1A2     0.810482    14A1     0.913151    15A1     0.955359
       2A2     0.955369     7B1     0.956741     7B2     0.956741
      16A1     0.966520

    Final Occupation by Irrep:
             A1    A2    B1    B2
    DOCC [     6,    0,    2,    2 ]
    SOCC [     1,    0,    1,    1 ]
    NA   [     7,    0,    3,    3 ]
    NB   [     6,    0,    2,    2 ]

  @DF-UKS Final Energy:  -542.11188461021425

   => Energetics <=

    Nuclear Repulsion Energy =              9.4759179526006605
    One-Electron Energy =                -769.3497871440703193
    Two-Electron Energy =                 245.0421413350268836
    DFT Exchange-Correlation Energy =     -27.2801567537715606
    Empirical Dispersion Energy =           0.0000000000000000
    VV10 Nonlocal Energy =                  0.0000000000000000
    Total Energy =                       -542.1118846102142470

  UHF NO Occupations:
  HONO-2 :    3 B1 1.0000000
  HONO-1 :    3 B2 1.0000000
  HONO-0 :    7 A1 1.0000000
  LUNO+0 :    8 A1 0.0000025
  LUNO+1 :    9 A1 0.0000003
  LUNO+2 :    4 B2 0.0000001
  LUNO+3 :    4 B1 0.0000001

Computation Completed

Properties will be evaluated at   0.000000,   0.000000,   0.000000 [a0]

Properties computed using the SCF density matrix

 Multipole Moments:

 ------------------------------------------------------------------------------------
     Multipole            Electronic (a.u.)      Nuclear  (a.u.)        Total (a.u.)
 ------------------------------------------------------------------------------------

 L = 1.  Multiply by 2.5417464519 to convert [e a0] to [Debye]
 Dipole X            :          0.0000000            0.0000000            0.0000000
 Dipole Y            :          0.0000000            0.0000000            0.0000000
 Dipole Z            :         -5.8068866           -0.3676592           -6.1745458
 Magnitude           :                                                    6.1745458

 ------------------------------------------------------------------------------------

*** tstop() called on Joses-MacBook-Pro-2.local at Thu Jul 17 09:48:33 2025
Module time:
	user time   =       3.57 seconds =       0.06 minutes
	system time =       3.41 seconds =       0.06 minutes
	total time  =          0 seconds =       0.00 minutes
Total time:
	user time   =      74.12 seconds =       1.24 minutes
	system time =     103.19 seconds =       1.72 minutes
	total time  =         17 seconds =       0.28 minutes

*** tstart() called on Joses-MacBook-Pro-2.local
*** at Thu Jul 17 09:48:33 2025

         ------------------------------------------------------------
                                   SCF GRAD
                          Rob Parrish, Justin Turney,
                       Andy Simmonett, and Alex Sokolov
         ------------------------------------------------------------

  ==> Geometry <==

    Molecular point group: c2v
    Full point group: C_inf_v

    Geometry (in Angstrom), charge = -1, multiplicity = 4:

       Center              X                  Y                   Z               Mass
    ------------   -----------------  -----------------  -----------------  -----------------
         BE           0.000000000000     0.000000000000     3.280900946682     9.012183065000
         AR           0.000000000000     0.000000000000    -0.739897814855    39.962383123700

  Nuclear repulsion =    9.475917952600662

  ==> Basis Set <==

  Basis Set: CC-PVDZ
    Blend: CC-PVDZ
    Number of shells: 14
    Number of basis functions: 32
    Number of Cartesian functions: 34
    Spherical Harmonics?: true
    Max angular momentum: 2

  ==> DFJKGrad: Density-Fitted SCF Gradients <==

    Gradient:                    1
    J tasked:                  Yes
    K tasked:                  Yes
    wK tasked:                  No
    OpenMP threads:              1
    Integrals threads:           1
    Memory [MiB]:              375
    Schwarz Cutoff:          1E-12
    Fitting Condition:       1E-10

   => Auxiliary Basis Set <=

  Basis Set: (CC-PVDZ AUX)
    Blend: CC-PVDZ-JKFIT + DEF2-UNIVERSAL-JKFIT
    Number of shells: 53
    Number of basis functions: 163
    Number of Cartesian functions: 190
    Spherical Harmonics?: true
    Max angular momentum: 3

  ==> DFT Potential <==

   => LibXC <=

    Version 6.2.2
    S. Lehtola, C. Steigemann, M. J.T. Oliveira, and M. A.L. Marques.,  SoftwareX 7, 1â€“5 (2018) (10.1016/j.softx.2017.11.002)

   => Composite Functional: B3LYP <=

    B3LYP Hyb-GGA Exchange-Correlation Functional

    P. J. Stephens, F. J. Devlin, C. F. Chabalowski, and M. J. Frisch.,  J. Phys. Chem. 98, 11623 (1994) (10.1021/j100096a001)

    Deriv               =              1
    GGA                 =           TRUE
    Meta                =          FALSE

    Exchange Hybrid     =           TRUE
    MP2 Hybrid          =          FALSE

   => Exchange Functionals <=

    0.0800   Slater exchange
    0.7200         Becke 88

   => Exact (HF) Exchange <=

    0.2000               HF

   => Correlation Functionals <=

    0.1900   Vosko, Wilk & Nusair (VWN5_RPA)
    0.8100   Lee, Yang & Parr

   => LibXC Density Thresholds  <==

    XC_HYB_GGA_XC_B3LYP:  1.00E-15

   => Molecular Quadrature <=

    Radial Scheme          =       TREUTLER
    Pruning Scheme         =           NONE
    Nuclear Scheme         =       TREUTLER

    Blocking Scheme        =         OCTREE
    BS radius alpha        =              1
    Pruning alpha          =              1
    Radial Points          =             75
    Spherical Points       =            302
    Total Points           =          42903
    Total Blocks           =            426
    Max Points             =            256
    Max Functions          =             32
    Weights Tolerance      =       1.00E-15

  -Total Gradient:
     Atom            X                  Y                   Z
    ------   -----------------  -----------------  -----------------
       1        0.000000000000    -0.000000000000    -0.000007612717
       2        0.000000000000     0.000000000000     0.000001364056

*** tstop() called on Joses-MacBook-Pro-2.local at Thu Jul 17 09:48:33 2025
Module time:
	user time   =       0.93 seconds =       0.02 minutes
	system time =       1.45 seconds =       0.02 minutes
	total time  =          0 seconds =       0.00 minutes
Total time:
	user time   =      75.05 seconds =       1.25 minutes
	system time =     104.65 seconds =       1.74 minutes
	total time  =         17 seconds =       0.28 minutes

    			-----------------------------------------

    			 OPTKING 3.0: for geometry optimizations

    			     By R.A. King, Bethel University

    			        with contributions from

    			    A.V. Copan, J. Cayton, A. Heide

    			-----------------------------------------

	                            ===> Fragment 1 <==

	 Z (Atomic Numbers)          Masses                          Geom
	       4.000000             9.012183          0.00000000  0.00000000  6.20000423
	      18.000000            39.962383          0.00000000  0.00000000 -1.39820423

	 - Coordinate -           - BOHR/RAD -       - ANG/DEG -
	 R(1,2)           =         7.598208           4.020799

	        --- Internal Coordinate Step in ANG or DEG, aJ/ANG or AJ/DEG ---
	-------------------------------------------------------------------------------
	           Coordinate      Previous         Force          Change          New
	           ----------      --------        ------          ------        ------
	               R(1,2)       4.02080        0.00004        0.00569       4.02649
	-------------------------------------------------------------------------------

	                                 ==> Convergence Check <==

	Measures of convergence in internal coordinates in au.

	Criteria marked as inactive (o), active & met (*), and active & unmet ( ).

	----------------------------------------------------------------------------------------------
	   Step    Total Energy     Delta E     Max Force     RMS Force      Max Disp      RMS Disp
	----------------------------------------------------------------------------------------------
	  Convergence Criteria     1.00e-06 *    3.00e-04 *             o    1.20e-03 *             o
	----------------------------------------------------------------------------------------------
	    18    -542.11188461   -3.74e-07 *    4.49e-06 *    4.49e-06 o    1.08e-02      1.08e-02 o  ~
	----------------------------------------------------------------------------------------------

Next Geometry in Ang
	Fragment 1 (Ang)

	   Be   0.0000000000   0.0000000000   3.2837463920
	   Ar   0.0000000000   0.0000000000  -0.7427432602

    Final optimized geometry and variables:
    Molecular point group: c2v
    Full point group: C_inf_v

    Geometry (in Angstrom), charge = -1, multiplicity = 4:

    BE           0.000000000000     0.000000000000     3.280900946682
    AR           0.000000000000     0.000000000000    -0.739897814855

    Psi4 stopped on: Thursday, 17 July 2025 09:48AM
    Psi4 wall time for execution: 0:00:17.96

*** Psi4 exiting successfully. Buy a developer a beer!
