                               Psi4 1.9.1 release

  ==> Input File <==

--------------------------------------------------------------------------
molecule {
-1 4
B   0.00000        0.60000        0.00000
N   0.00000       -0.60000        0.00000
}

set {
basis              cc-pvdz
reference          uks
maxiter            500
geom_maxiter       500
DAMPING_PERCENTAGE 1
guess              SAP
}

optimize('b3lyp')
--------------------------------------------------------------------------

    Molecular point group: c2v
  Charge       = -1
  Multiplicity = 4
  Basis Set: CC-PVDZ
    Blend: CC-PVDZ
  Basis Set: (CC-PVDZ AUX)
    Blend: CC-PVDZ-JKFIT
  @DF-UKS Final Energy:   -79.30448509632765
    Total Energy =                        -79.3044850963276531
 Dipole X            :          0.0000000            0.0000000            0.0000000
 Dipole Y            :          0.0000000            0.0000000            0.0000000
 Dipole Z            :          0.2056950           -0.6391457           -0.4334508
 Magnitude           :                                                    0.4334508
    Molecular point group: c2v
  Basis Set: CC-PVDZ
    Blend: CC-PVDZ
  Basis Set: (CC-PVDZ AUX)
    Blend: CC-PVDZ-JKFIT
  Basis Set: CC-PVDZ
    Blend: CC-PVDZ
  Basis Set: (CC-PVDZ AUX)
    Blend: CC-PVDZ-JKFIT
  @DF-UKS Final Energy:   -79.35624730062932
    Total Energy =                        -79.3562473006293345
  Basis Set: CC-PVDZ
    Blend: CC-PVDZ
  Basis Set: (CC-PVDZ AUX)
    Blend: CC-PVDZ-JKFIT
  Basis Set: CC-PVDZ
    Blend: CC-PVDZ
  @DF-UKS Final Energy:   -79.36199507476228
    Total Energy =                        -79.3619950747622767
  @DF-UKS Final Energy:   -79.36327709370403
    Total Energy =                        -79.3632770937040277
  @DF-UKS Final Energy:   -79.36360538012505
    Total Energy =                        -79.3636053801250512
  @DF-UKS Final Energy:   -79.36369574505335
    Total Energy =                        -79.3636957450533487
  Basis Set: (CC-PVDZ AUX)
    Blend: CC-PVDZ-JKFIT
  Basis Set: CC-PVDZ
    Blend: CC-PVDZ
  Basis Set: (CC-PVDZ AUX)
    Blend: CC-PVDZ-JKFIT
  @DF-UKS Final Energy:   -79.36372952558729
    Total Energy =                        -79.3637295255873028
  Basis Set: CC-PVDZ
    Blend: CC-PVDZ
  Basis Set: (CC-PVDZ AUX)
    Blend: CC-PVDZ-JKFIT
  Charge       = -1
  Multiplicity = 4
  Basis Set: CC-PVDZ
    Blend: CC-PVDZ
  Basis Set: (CC-PVDZ AUX)
    Blend: CC-PVDZ-JKFIT

    Orbital Energies [Eh]
    ---------------------

    Alpha Occupied:

       1A1   -14.067215     2A1    -6.519679     3A1    -0.513045
       4A1    -0.125909     1B2    -0.063528     5A1    -0.021079
       1B1    -0.009307     2B2     0.151349

    Alpha Virtual:

       2B1     0.242651     6A1     0.361046     3B2     0.517617
       3B1     0.542508     7A1     0.563513     8A1     0.728158
       9A1     0.918257     1A2     0.950713    10A1     0.954005
       4B2     1.013146     5B2     1.048956     4B1     1.051152
       5B1     1.067104    11A1     1.418335    12A1     1.553232
       2A2     2.059838    13A1     2.060719     6B2     2.321539
       6B1     2.355370    14A1     2.679517

    Beta Occupied:

       1A1   -14.043379     2A1    -6.504134     3A1    -0.435220
       4A1    -0.051410     1B1     0.015189

    Beta Virtual:

       1B2     0.130304     5A1     0.131361     2B1     0.274607
       2B2     0.320852     6A1     0.384905     3B1     0.559008
       3B2     0.588095     7A1     0.634869     8A1     0.785819
       9A1     0.950164     1A2     1.008660    10A1     1.012765
       4B1     1.070275     5B1     1.105169     4B2     1.108572
       5B2     1.134316    11A1     1.467607    12A1     1.606637
       2A2     2.133632    13A1     2.139002     6B1     2.382913
       6B2     2.410884    14A1     2.728287

    Final Occupation by Irrep:
             A1    A2    B1    B2
    DOCC [     4,    0,    1,    0 ]
    SOCC [     1,    0,    0,    2 ]
    NA   [     5,    0,    1,    2 ]
    NB   [     4,    0,    1,    0 ]

  @DF-UKS Final Energy:   -79.36373219300445

   => Energetics <=

    Nuclear Repulsion Energy =             12.7442754740938131
    One-Electron Energy =                -135.5904566816773809
    Two-Electron Energy =                  52.4200733229203166
    DFT Exchange-Correlation Energy =      -8.9376243083411993
    Empirical Dispersion Energy =           0.0000000000000000
    VV10 Nonlocal Energy =                  0.0000000000000000
    Total Energy =                        -79.3637321930044521

  UHF NO Occupations:
  HONO-2 :    1 B2 1.0000000
  HONO-1 :    2 B2 1.0000000
  HONO-0 :    5 A1 1.0000000
  LUNO+0 :    6 A1 0.0010447
  LUNO+1 :    7 A1 0.0007303
  LUNO+2 :    2 B1 0.0002354
  LUNO+3 :    8 A1 0.0000002

Computation Completed

Properties will be evaluated at   0.000000,   0.000000,   0.000000 [a0]

Properties computed using the SCF density matrix

 Multipole Moments:

 ------------------------------------------------------------------------------------
     Multipole            Electronic (a.u.)      Nuclear  (a.u.)        Total (a.u.)
 ------------------------------------------------------------------------------------

 L = 1.  Multiply by 2.5417464519 to convert [e a0] to [Debye]
 Dipole X            :          0.0000000            0.0000000            0.0000000
 Dipole Y            :          0.0000000            0.0000000            0.0000000
 Dipole Z            :          0.3406114           -0.7740565           -0.4334452
 Magnitude           :                                                    0.4334452

 ------------------------------------------------------------------------------------

*** tstop() called on Joses-MacBook-Pro-2.local at Thu Jul 17 09:49:53 2025
Module time:
	user time   =       4.36 seconds =       0.07 minutes
	system time =       4.12 seconds =       0.07 minutes
	total time  =          0 seconds =       0.00 minutes
Total time:
	user time   =      44.46 seconds =       0.74 minutes
	system time =      43.20 seconds =       0.72 minutes
	total time  =          8 seconds =       0.13 minutes

*** tstart() called on Joses-MacBook-Pro-2.local
*** at Thu Jul 17 09:49:53 2025

         ------------------------------------------------------------
                                   SCF GRAD
                          Rob Parrish, Justin Turney,
                       Andy Simmonett, and Alex Sokolov
         ------------------------------------------------------------

  ==> Geometry <==

    Molecular point group: c2v
    Full point group: C_inf_v

    Geometry (in Angstrom), charge = -1, multiplicity = 4:

       Center              X                  Y                   Z               Mass
    ------------   -----------------  -----------------  -----------------  -----------------
         B            0.000000000000     0.000000000000     0.813621476349    11.009305360000
         N            0.000000000000     0.000000000000    -0.639674351342    14.003074004430

  Nuclear repulsion =   12.744275474093813

  ==> Basis Set <==

  Basis Set: CC-PVDZ
    Blend: CC-PVDZ
    Number of shells: 12
    Number of basis functions: 28
    Number of Cartesian functions: 30
    Spherical Harmonics?: true
    Max angular momentum: 2

  ==> DFJKGrad: Density-Fitted SCF Gradients <==

    Gradient:                    1
    J tasked:                  Yes
    K tasked:                  Yes
    wK tasked:                  No
    OpenMP threads:              1
    Integrals threads:           1
    Memory [MiB]:              375
    Schwarz Cutoff:          1E-12
    Fitting Condition:       1E-10

   => Auxiliary Basis Set <=

  Basis Set: (CC-PVDZ AUX)
    Blend: CC-PVDZ-JKFIT
    Number of shells: 48
    Number of basis functions: 140
    Number of Cartesian functions: 162
    Spherical Harmonics?: true
    Max angular momentum: 3

  ==> DFT Potential <==

   => LibXC <=

    Version 6.2.2
    S. Lehtola, C. Steigemann, M. J.T. Oliveira, and M. A.L. Marques.,  SoftwareX 7, 1â€“5 (2018) (10.1016/j.softx.2017.11.002)

   => Composite Functional: B3LYP <=

    B3LYP Hyb-GGA Exchange-Correlation Functional

    P. J. Stephens, F. J. Devlin, C. F. Chabalowski, and M. J. Frisch.,  J. Phys. Chem. 98, 11623 (1994) (10.1021/j100096a001)

    Deriv               =              1
    GGA                 =           TRUE
    Meta                =          FALSE

    Exchange Hybrid     =           TRUE
    MP2 Hybrid          =          FALSE

   => Exchange Functionals <=

    0.0800   Slater exchange
    0.7200         Becke 88

   => Exact (HF) Exchange <=

    0.2000               HF

   => Correlation Functionals <=

    0.1900   Vosko, Wilk & Nusair (VWN5_RPA)
    0.8100   Lee, Yang & Parr

   => LibXC Density Thresholds  <==

    XC_HYB_GGA_XC_B3LYP:  1.00E-15

   => Molecular Quadrature <=

    Radial Scheme          =       TREUTLER
    Pruning Scheme         =           NONE
    Nuclear Scheme         =       TREUTLER

    Blocking Scheme        =         OCTREE
    BS radius alpha        =              1
    Pruning alpha          =              1
    Radial Points          =             75
    Spherical Points       =            302
    Total Points           =          43273
    Total Blocks           =            398
    Max Points             =            255
    Max Functions          =             28
    Weights Tolerance      =       1.00E-15

  -Total Gradient:
     Atom            X                  Y                   Z
    ------   -----------------  -----------------  -----------------
       1        0.000000000000     0.000000000000    -0.000191812655
       2        0.000000000000    -0.000000000000     0.000200579248

*** tstop() called on Joses-MacBook-Pro-2.local at Thu Jul 17 09:49:54 2025
Module time:
	user time   =       0.60 seconds =       0.01 minutes
	system time =       0.97 seconds =       0.02 minutes
	total time  =          1 seconds =       0.02 minutes
Total time:
	user time   =      45.07 seconds =       0.75 minutes
	system time =      44.17 seconds =       0.74 minutes
	total time  =          9 seconds =       0.15 minutes

    			-----------------------------------------

    			 OPTKING 3.0: for geometry optimizations

    			     By R.A. King, Bethel University

    			        with contributions from

    			    A.V. Copan, J. Cayton, A. Heide

    			-----------------------------------------

	                            ===> Fragment 1 <==

	 Z (Atomic Numbers)          Masses                          Geom
	       5.000000            11.009305          0.00000000  0.00000000  1.53752176
	       7.000000            14.003074          0.00000000  0.00000000 -1.20880933

	 - Coordinate -           - BOHR/RAD -       - ANG/DEG -
	 R(1,2)           =         2.746331           1.453296

	        --- Internal Coordinate Step in ANG or DEG, aJ/ANG or AJ/DEG ---
	-------------------------------------------------------------------------------
	           Coordinate      Previous         Force          Change          New
	           ----------      --------        ------          ------        ------
	               R(1,2)       1.45330        0.00162        0.00032       1.45361
	-------------------------------------------------------------------------------

	                                 ==> Convergence Check <==

	Measures of convergence in internal coordinates in au.

	Criteria marked as inactive (o), active & met (*), and active & unmet ( ).

	----------------------------------------------------------------------------------------------
	   Step    Total Energy     Delta E     Max Force     RMS Force      Max Disp      RMS Disp
	----------------------------------------------------------------------------------------------
	  Convergence Criteria     1.00e-06 *    3.00e-04 *             o    1.20e-03 *             o
	----------------------------------------------------------------------------------------------
	     8     -79.36373219   -2.67e-06      1.96e-04 *    1.96e-04 o    5.98e-04 *    5.98e-04 o  ~
	----------------------------------------------------------------------------------------------

Next Geometry in Ang
	Fragment 1 (Ang)

	    B   0.0000000000   0.0000000000   0.8137798103
	    N   0.0000000000   0.0000000000  -0.6398326853

    Final optimized geometry and variables:
    Molecular point group: c2v
    Full point group: C_inf_v

    Geometry (in Angstrom), charge = -1, multiplicity = 4:

    B            0.000000000000     0.000000000000     0.813621476349
    N            0.000000000000     0.000000000000    -0.639674351342

    Psi4 stopped on: Thursday, 17 July 2025 09:49AM
    Psi4 wall time for execution: 0:00:09.53

*** Psi4 exiting successfully. Buy a developer a beer!
