                               Psi4 1.9.1 release

  ==> Input File <==

--------------------------------------------------------------------------
molecule {
-1 4
Li   0.00000        0.60000        0.00000
Na   0.00000       -0.60000        0.00000
}

set {
basis              cc-pvdz
reference          uks
maxiter            500
geom_maxiter       500
DAMPING_PERCENTAGE 1
guess              SAP
}

optimize('b3lyp')
--------------------------------------------------------------------------

    Molecular point group: c2v
  Charge       = -1
  Multiplicity = 4
  Basis Set: CC-PVDZ
    Blend: CC-PVDZ
  Basis Set: (CC-PVDZ AUX)
    Blend: DEF2-UNIVERSAL-JKFIT
  @DF-UKS Final Energy:  -169.53730086932663
    Total Energy =                       -169.5373008693266286
 Dipole X            :          0.0000000            0.0000000            0.0000000
 Dipole Y            :          0.0000000            0.0000000            0.0000000
 Dipole Z            :         -0.1087240           -0.6202195           -0.7289435
 Magnitude           :                                                    0.7289435
    Molecular point group: c2v
  Basis Set: CC-PVDZ
    Blend: CC-PVDZ
  Basis Set: (CC-PVDZ AUX)
    Blend: DEF2-UNIVERSAL-JKFIT
  Basis Set: CC-PVDZ
    Blend: CC-PVDZ
  Basis Set: (CC-PVDZ AUX)
    Blend: DEF2-UNIVERSAL-JKFIT
  @DF-UKS Final Energy:  -169.57198939702337
    Total Energy =                       -169.5719893970233727
  Basis Set: CC-PVDZ
    Blend: CC-PVDZ
  Basis Set: (CC-PVDZ AUX)
    Blend: DEF2-UNIVERSAL-JKFIT
  Basis Set: CC-PVDZ
    Blend: CC-PVDZ
  @DF-UKS Final Energy:  -169.61352671502635
    Total Energy =                       -169.6135267150263530
  @DF-UKS Final Energy:  -169.66638661803478
    Total Energy =                       -169.6663866180347782
  @DF-UKS Final Energy:  -169.69568854847810
    Total Energy =                       -169.6956885484781310
  @DF-UKS Final Energy:  -169.72233586113614
    Total Energy =                       -169.7223358611361164
  @DF-UKS Final Energy:  -169.73935626251949
    Total Energy =                       -169.7393562625194932
  @DF-UKS Final Energy:  -169.74887983572643
    Total Energy =                       -169.7488798357263988
  @DF-UKS Final Energy:  -169.75259446125108
    Total Energy =                       -169.7525944612510500
  @DF-UKS Final Energy:  -169.75353085716677
    Total Energy =                       -169.7535308571667656
  @DF-UKS Final Energy:  -169.75364488906928
    Total Energy =                       -169.7536448890692782
  Basis Set: (CC-PVDZ AUX)
    Blend: DEF2-UNIVERSAL-JKFIT
  Basis Set: CC-PVDZ
    Blend: CC-PVDZ
  Basis Set: (CC-PVDZ AUX)
    Blend: DEF2-UNIVERSAL-JKFIT
  @DF-UKS Final Energy:  -169.75364872258760
    Total Energy =                       -169.7536487225876272
  Basis Set: CC-PVDZ
    Blend: CC-PVDZ
  Basis Set: (CC-PVDZ AUX)
    Blend: DEF2-UNIVERSAL-JKFIT
  Charge       = -1
  Multiplicity = 4
  Basis Set: CC-PVDZ
    Blend: CC-PVDZ
  Basis Set: (CC-PVDZ AUX)
    Blend: DEF2-UNIVERSAL-JKFIT

    Orbital Energies [Eh]
    ---------------------

    Alpha Occupied:

       1A1   -38.363187     2A1    -2.108076     3A1    -1.898087
       4A1    -1.040494     1B1    -1.038489     1B2    -1.038489
       5A1    -0.037868     2B1     0.040624     2B2     0.040624

    Alpha Virtual:

       6A1     0.047854     7A1     0.085219     3B2     0.099158
       3B1     0.099158     8A1     0.113899     9A1     0.154068
       4B2     0.163559     4B1     0.163559    10A1     0.171911
       5B1     0.206789     5B2     0.206789    11A1     0.263039
       1A2     0.268901    12A1     0.268901    13A1     0.287505
       6B1     0.307040     6B2     0.307040     2A2     0.370248
      14A1     0.370248    15A1     0.431067     7B2     0.473159
       7B1     0.473159    16A1     0.806067

    Beta Occupied:

       1A1   -38.361770     2A1    -2.105470     3A1    -1.893119
       4A1    -1.038823     1B1    -1.036319     1B2    -1.036319

    Beta Virtual:

       5A1     0.043293     6A1     0.072928     2B1     0.109141
       2B2     0.109141     7A1     0.109666     3B2     0.130862
       3B1     0.130862     8A1     0.131282     9A1     0.181234
      10A1     0.186094     4B2     0.194722     4B1     0.194722
       5B1     0.229667     5B2     0.229667    11A1     0.280459
      12A1     0.311552     1A2     0.312040    13A1     0.312050
       6B1     0.342138     6B2     0.342138     2A2     0.423202
      14A1     0.423251    15A1     0.457694     7B2     0.507260
       7B1     0.507260    16A1     0.818592

    Final Occupation by Irrep:
             A1    A2    B1    B2
    DOCC [     4,    0,    1,    1 ]
    SOCC [     1,    0,    1,    1 ]
    NA   [     5,    0,    2,    2 ]
    NB   [     4,    0,    1,    1 ]

  @DF-UKS Final Energy:  -169.75364884055830

   => Energetics <=

    Nuclear Repulsion Energy =              6.3073487707298730
    One-Electron Energy =                -251.7553637324805322
    Two-Electron Energy =                  88.9019889256062896
    DFT Exchange-Correlation Energy =     -13.2076228044139228
    Empirical Dispersion Energy =           0.0000000000000000
    VV10 Nonlocal Energy =                  0.0000000000000000
    Total Energy =                       -169.7536488405582986

  UHF NO Occupations:
  HONO-2 :    5 A1 1.0000000
  HONO-1 :    2 B2 1.0000000
  HONO-0 :    2 B1 1.0000000
  LUNO+0 :    6 A1 0.0000005
  LUNO+1 :    7 A1 0.0000004
  LUNO+2 :    3 B2 0.0000001
  LUNO+3 :    3 B1 0.0000001

Computation Completed

Properties will be evaluated at   0.000000,   0.000000,   0.000000 [a0]

Properties computed using the SCF density matrix

 Multipole Moments:

 ------------------------------------------------------------------------------------
     Multipole            Electronic (a.u.)      Nuclear  (a.u.)        Total (a.u.)
 ------------------------------------------------------------------------------------

 L = 1.  Multiply by 2.5417464519 to convert [e a0] to [Debye]
 Dipole X            :          0.0000000            0.0000000            0.0000000
 Dipole Y            :          0.0000000            0.0000000            0.0000000
 Dipole Z            :          0.0304905           -1.4309762           -1.4004857
 Magnitude           :                                                    1.4004857

 ------------------------------------------------------------------------------------

*** tstop() called on Joses-MacBook-Pro-2.local at Thu Jul 17 09:32:08 2025
Module time:
	user time   =       3.76 seconds =       0.06 minutes
	system time =       2.03 seconds =       0.03 minutes
	total time  =          0 seconds =       0.00 minutes
Total time:
	user time   =      66.80 seconds =       1.11 minutes
	system time =      65.72 seconds =       1.10 minutes
	total time  =         13 seconds =       0.22 minutes

*** tstart() called on Joses-MacBook-Pro-2.local
*** at Thu Jul 17 09:32:08 2025

         ------------------------------------------------------------
                                   SCF GRAD
                          Rob Parrish, Justin Turney,
                       Andy Simmonett, and Alex Sokolov
         ------------------------------------------------------------

  ==> Geometry <==

    Molecular point group: c2v
    Full point group: C_inf_v

    Geometry (in Angstrom), charge = -1, multiplicity = 4:

       Center              X                  Y                   Z               Mass
    ------------   -----------------  -----------------  -----------------  -----------------
         LI           0.000000000000     0.000000000000     2.121280129157     7.016003436600
         NA           0.000000000000     0.000000000000    -0.647370945467    22.989769282000

  Nuclear repulsion =    6.307348770729873

  ==> Basis Set <==

  Basis Set: CC-PVDZ
    Blend: CC-PVDZ
    Number of shells: 14
    Number of basis functions: 32
    Number of Cartesian functions: 34
    Spherical Harmonics?: true
    Max angular momentum: 2

  ==> DFJKGrad: Density-Fitted SCF Gradients <==

    Gradient:                    1
    J tasked:                  Yes
    K tasked:                  Yes
    wK tasked:                  No
    OpenMP threads:              1
    Integrals threads:           1
    Memory [MiB]:              375
    Schwarz Cutoff:          1E-12
    Fitting Condition:       1E-10

   => Auxiliary Basis Set <=

  Basis Set: (CC-PVDZ AUX)
    Blend: DEF2-UNIVERSAL-JKFIT
    Number of shells: 51
    Number of basis functions: 163
    Number of Cartesian functions: 197
    Spherical Harmonics?: true
    Max angular momentum: 4

  ==> DFT Potential <==

   => LibXC <=

    Version 6.2.2
    S. Lehtola, C. Steigemann, M. J.T. Oliveira, and M. A.L. Marques.,  SoftwareX 7, 1â€“5 (2018) (10.1016/j.softx.2017.11.002)

   => Composite Functional: B3LYP <=

    B3LYP Hyb-GGA Exchange-Correlation Functional

    P. J. Stephens, F. J. Devlin, C. F. Chabalowski, and M. J. Frisch.,  J. Phys. Chem. 98, 11623 (1994) (10.1021/j100096a001)

    Deriv               =              1
    GGA                 =           TRUE
    Meta                =          FALSE

    Exchange Hybrid     =           TRUE
    MP2 Hybrid          =          FALSE

   => Exchange Functionals <=

    0.0800   Slater exchange
    0.7200         Becke 88

   => Exact (HF) Exchange <=

    0.2000               HF

   => Correlation Functionals <=

    0.1900   Vosko, Wilk & Nusair (VWN5_RPA)
    0.8100   Lee, Yang & Parr

   => LibXC Density Thresholds  <==

    XC_HYB_GGA_XC_B3LYP:  1.00E-15

   => Molecular Quadrature <=

    Radial Scheme          =       TREUTLER
    Pruning Scheme         =           NONE
    Nuclear Scheme         =       TREUTLER

    Blocking Scheme        =         OCTREE
    BS radius alpha        =              1
    Pruning alpha          =              1
    Radial Points          =             75
    Spherical Points       =            302
    Total Points           =          43613
    Total Blocks           =            454
    Max Points             =            255
    Max Functions          =             32
    Weights Tolerance      =       1.00E-15

  -Total Gradient:
     Atom            X                  Y                   Z
    ------   -----------------  -----------------  -----------------
       1       -0.000000000000     0.000000000000    -0.000012638480
       2        0.000000000000    -0.000000000000     0.000007279840

*** tstop() called on Joses-MacBook-Pro-2.local at Thu Jul 17 09:32:09 2025
Module time:
	user time   =       1.04 seconds =       0.02 minutes
	system time =       1.63 seconds =       0.03 minutes
	total time  =          1 seconds =       0.02 minutes
Total time:
	user time   =      67.84 seconds =       1.13 minutes
	system time =      67.35 seconds =       1.12 minutes
	total time  =         14 seconds =       0.23 minutes

    			-----------------------------------------

    			 OPTKING 3.0: for geometry optimizations

    			     By R.A. King, Bethel University

    			        with contributions from

    			    A.V. Copan, J. Cayton, A. Heide

    			-----------------------------------------

	                            ===> Fragment 1 <==

	 Z (Atomic Numbers)          Masses                          Geom
	       3.000000             7.016003          0.00000000  0.00000000  4.00863848
	      11.000000            22.989769          0.00000000  0.00000000 -1.22335379

	 - Coordinate -           - BOHR/RAD -       - ANG/DEG -
	 R(1,2)           =         5.231992           2.768651

	        --- Internal Coordinate Step in ANG or DEG, aJ/ANG or AJ/DEG ---
	-------------------------------------------------------------------------------
	           Coordinate      Previous         Force          Change          New
	           ----------      --------        ------          ------        ------
	               R(1,2)       2.76865        0.00008        0.00037       2.76902
	-------------------------------------------------------------------------------

	                                 ==> Convergence Check <==

	Measures of convergence in internal coordinates in au.

	Criteria marked as inactive (o), active & met (*), and active & unmet ( ).

	----------------------------------------------------------------------------------------------
	   Step    Total Energy     Delta E     Max Force     RMS Force      Max Disp      RMS Disp
	----------------------------------------------------------------------------------------------
	  Convergence Criteria     1.00e-06 *    3.00e-04 *             o    1.20e-03 *             o
	----------------------------------------------------------------------------------------------
	    13    -169.75364884   -1.18e-07 *    9.96e-06 *    9.96e-06 o    6.97e-04 *    6.97e-04 o  ~
	----------------------------------------------------------------------------------------------

Next Geometry in Ang
	Fragment 1 (Ang)

	   Li   0.0000000000   0.0000000000   2.1214645600
	   Na   0.0000000000   0.0000000000  -0.6475553763

    Final optimized geometry and variables:
    Molecular point group: c2v
    Full point group: C_inf_v

    Geometry (in Angstrom), charge = -1, multiplicity = 4:

    LI           0.000000000000     0.000000000000     2.121280129157
    NA           0.000000000000     0.000000000000    -0.647370945467

    Psi4 stopped on: Thursday, 17 July 2025 09:32AM
    Psi4 wall time for execution: 0:00:13.96

*** Psi4 exiting successfully. Buy a developer a beer!
