                               Psi4 1.9.1 release

  ==> Input File <==

--------------------------------------------------------------------------
molecule {
-1 4
Na   0.00000        0.60000        0.00000
Cl   0.00000       -0.60000        0.00000
}

set {
basis              cc-pvdz
reference          uks
maxiter            500
geom_maxiter       500
DAMPING_PERCENTAGE 1
guess              SAP
}

optimize('b3lyp')
--------------------------------------------------------------------------

    Molecular point group: c2v
  Charge       = -1
  Multiplicity = 4
  Basis Set: CC-PVDZ
    Blend: CC-PVDZ
  Basis Set: (CC-PVDZ AUX)
    Blend: CC-PVDZ-JKFIT + DEF2-UNIVERSAL-JKFIT
  @DF-UKS Final Energy:  -621.40588598681882
    Total Energy =                       -621.4058859868188165
 Dipole X            :          0.0000000            0.0000000            0.0000000
 Dipole Y            :          0.0000000            0.0000000            0.0000000
 Dipole Z            :         -2.0165963           -0.2413546           -2.2579509
 Magnitude           :                                                    2.2579509
    Molecular point group: c2v
  Basis Set: CC-PVDZ
    Blend: CC-PVDZ
  Basis Set: (CC-PVDZ AUX)
    Blend: CC-PVDZ-JKFIT + DEF2-UNIVERSAL-JKFIT
  Basis Set: CC-PVDZ
    Blend: CC-PVDZ
  Basis Set: (CC-PVDZ AUX)
    Blend: CC-PVDZ-JKFIT + DEF2-UNIVERSAL-JKFIT
  @DF-UKS Final Energy:  -621.42155087224944
    Total Energy =                       -621.4215508722494405
  Basis Set: CC-PVDZ
    Blend: CC-PVDZ
  Basis Set: (CC-PVDZ AUX)
    Blend: CC-PVDZ-JKFIT + DEF2-UNIVERSAL-JKFIT
  Basis Set: CC-PVDZ
    Blend: CC-PVDZ
  @DF-UKS Final Energy:  -621.45166561691224
    Total Energy =                       -621.4516656169122371
  @DF-UKS Final Energy:  -621.55961757730313
    Total Energy =                       -621.5596175773031291
  @DF-UKS Final Energy:  -621.99968779487301
    Total Energy =                       -621.9996877948730116
  @DF-UKS Final Energy:  -622.18141962894560
    Total Energy =                       -622.1814196289456049
  @DF-UKS Final Energy:  -622.29052348418998
    Total Energy =                       -622.2905234841899755
  @DF-UKS Final Energy:  -622.34808674094882
    Total Energy =                       -622.3480867409488155
  @DF-UKS Final Energy:  -622.37980676997461
    Total Energy =                       -622.3798067699746071
  @DF-UKS Final Energy:  -622.39828451308847
    Total Energy =                       -622.3982845130883561
  @DF-UKS Final Energy:  -622.40991613388053
    Total Energy =                       -622.4099161338805288
  @DF-UKS Final Energy:  -622.41784028045845
    Total Energy =                       -622.4178402804583357
  @DF-UKS Final Energy:  -622.42359164979439
    Total Energy =                       -622.4235916497943890
  @DF-UKS Final Energy:  -622.42373823470098
    Total Energy =                       -622.4237382347009770
  @DF-UKS Final Energy:  -622.42827798265944
    Total Energy =                       -622.4282779826594378
  @DF-UKS Final Energy:  -622.42833867914885
    Total Energy =                       -622.4283386791489647
  @DF-UKS Final Energy:  -622.43111406403568
    Total Energy =                       -622.4311140640356825
  @DF-UKS Final Energy:  -622.43113829748609
    Total Energy =                       -622.4311382974860862
  @DF-UKS Final Energy:  -622.43270781166893
    Total Energy =                       -622.4327078116689336
  @DF-UKS Final Energy:  -622.43271704328811
    Total Energy =                       -622.4327170432881076
  @DF-UKS Final Energy:  -622.43272619758886
    Total Energy =                       -622.4327261975888632
  @DF-UKS Final Energy:  -622.43362233561413
    Total Energy =                       -622.4336223356140181
  @DF-UKS Final Energy:  -622.43362562502136
    Total Energy =                       -622.4336256250213637
  @DF-UKS Final Energy:  -622.43362889905995
    Total Energy =                       -622.4336288990598405
  @DF-UKS Final Energy:  -622.43363215676766
    Total Energy =                       -622.4336321567676578
  @DF-UKS Final Energy:  -622.43363539838799
    Total Energy =                       -622.4336353983879917
  @DF-UKS Final Energy:  -622.43412233158699
    Total Energy =                       -622.4341223315869911
  @DF-UKS Final Energy:  -622.43412342768295
    Total Energy =                       -622.4341234276829482
  @DF-UKS Final Energy:  -622.43412451910012
    Total Energy =                       -622.4341245191001235
  @DF-UKS Final Energy:  -622.43412560682759
    Total Energy =                       -622.4341256068275925
  @DF-UKS Final Energy:  -622.43412669091288
    Total Energy =                       -622.4341266909128763
  @DF-UKS Final Energy:  -622.43412777135757
    Total Energy =                       -622.4341277713576801
  @DF-UKS Final Energy:  -622.43412884804013
    Total Energy =                       -622.4341288480401317
  Basis Set: (CC-PVDZ AUX)
    Blend: CC-PVDZ-JKFIT + DEF2-UNIVERSAL-JKFIT
  Basis Set: CC-PVDZ
    Blend: CC-PVDZ
  Basis Set: (CC-PVDZ AUX)
    Blend: CC-PVDZ-JKFIT + DEF2-UNIVERSAL-JKFIT
  @DF-UKS Final Energy:  -622.43412992112417
    Total Energy =                       -622.4341299211239402
  Basis Set: CC-PVDZ
    Blend: CC-PVDZ
  Basis Set: (CC-PVDZ AUX)
    Blend: CC-PVDZ-JKFIT + DEF2-UNIVERSAL-JKFIT
  Charge       = -1
  Multiplicity = 4
  Basis Set: CC-PVDZ
    Blend: CC-PVDZ
  Basis Set: (CC-PVDZ AUX)
    Blend: CC-PVDZ-JKFIT + DEF2-UNIVERSAL-JKFIT

    Orbital Energies [Eh]
    ---------------------

    Alpha Occupied:

       1A1  -101.502770     2A1   -38.342484     3A1    -9.416756
       4A1    -7.190548     1B1    -7.166989     1B2    -7.166951
       5A1    -2.087368     6A1    -1.018734     2B1    -1.018690
       2B2    -1.017521     7A1    -0.753999     8A1    -0.315678
       3B1    -0.261038     3B2    -0.260670     9A1    -0.001898
       4B2     0.053486

    Alpha Virtual:

      10A1     0.087844     4B1     0.088015    11A1     0.157996
       5B2     0.184661    12A1     0.191359     5B1     0.192244
       6B2     0.286474    13A1     0.287101     1A2     0.287109
      14A1     0.290298     6B1     0.291222    15A1     0.597689
       7B1     0.620158     7B2     0.620836    16A1     0.706236
      17A1     0.744843     8B1     0.756437     8B2     0.756641
       2A2     0.800123    18A1     0.800203

    Beta Occupied:

       1A1  -101.496016     2A1   -38.341090     3A1    -9.410081
       4A1    -7.168583     1B1    -7.162976     1B2    -7.162915
       5A1    -2.084665     6A1    -1.017079     2B1    -1.017037
       2B2    -1.015203     7A1    -0.700560     3B1    -0.245105
       3B2    -0.244662

    Beta Virtual:

       8A1    -0.154152     9A1     0.065155    10A1     0.110993
       4B1     0.111183     4B2     0.114937    11A1     0.178949
      12A1     0.210844     5B1     0.211365     5B2     0.219630
      13A1     0.314450     6B1     0.316241     1A2     0.324771
       6B2     0.325316    14A1     0.328123     7B1     0.627366
       7B2     0.628137    15A1     0.640910    16A1     0.730309
       2A2     0.808525    17A1     0.808597     8B1     0.814161
       8B2     0.814415    18A1     0.823873

    Final Occupation by Irrep:
             A1    A2    B1    B2
    DOCC [     7,    0,    3,    3 ]
    SOCC [     2,    0,    0,    1 ]
    NA   [     9,    0,    3,    4 ]
    NB   [     7,    0,    3,    3 ]

  @DF-UKS Final Energy:  -622.43437949802603

   => Energetics <=

    Nuclear Repulsion Energy =             18.8815148852101622
    One-Electron Energy =                -903.5826893956317463
    Two-Electron Energy =                 296.6920817262744094
    DFT Exchange-Correlation Energy =     -34.4252867138788687
    Empirical Dispersion Energy =           0.0000000000000000
    VV10 Nonlocal Energy =                  0.0000000000000000
    Total Energy =                       -622.4343794980260327

  UHF NO Occupations:
  HONO-2 :    8 A1 1.0000000
  HONO-1 :    4 B2 1.0000000
  HONO-0 :    9 A1 1.0000000
  LUNO+0 :   10 A1 0.0008622
  LUNO+1 :    5 B2 0.0000290
  LUNO+2 :    4 B1 0.0000287
  LUNO+3 :   11 A1 0.0000005

Computation Completed

Properties will be evaluated at   0.000000,   0.000000,   0.000000 [a0]

Properties computed using the SCF density matrix

 Multipole Moments:

 ------------------------------------------------------------------------------------
     Multipole            Electronic (a.u.)      Nuclear  (a.u.)        Total (a.u.)
 ------------------------------------------------------------------------------------

 L = 1.  Multiply by 2.5417464519 to convert [e a0] to [Debye]
 Dipole X            :          0.0000000            0.0000000            0.0000000
 Dipole Y            :          0.0000000            0.0000000            0.0000000
 Dipole Z            :         -4.8632036           -1.0540962           -5.9172998
 Magnitude           :                                                    5.9172998

 ------------------------------------------------------------------------------------

*** tstop() called on Joses-MacBook-Pro-2.local at Thu Jul 17 11:18:17 2025
Module time:
	user time   =       9.40 seconds =       0.16 minutes
	system time =       4.27 seconds =       0.07 minutes
	total time  =          2 seconds =       0.03 minutes
Total time:
	user time   =     412.19 seconds =       6.87 minutes
	system time =     210.87 seconds =       3.51 minutes
	total time  =         62 seconds =       1.03 minutes

*** tstart() called on Joses-MacBook-Pro-2.local
*** at Thu Jul 17 11:18:17 2025

         ------------------------------------------------------------
                                   SCF GRAD
                          Rob Parrish, Justin Turney,
                       Andy Simmonett, and Alex Sokolov
         ------------------------------------------------------------

  ==> Geometry <==

    Molecular point group: c2v
    Full point group: C_inf_v

    Geometry (in Angstrom), charge = -1, multiplicity = 4:

       Center              X                  Y                   Z               Mass
    ------------   -----------------  -----------------  -----------------  -----------------
         NA           0.000000000000     0.000000000000     3.162053665818    22.989769282000
         CL           0.000000000000     0.000000000000    -2.078846706683    34.968852682000

  Nuclear repulsion =   18.881514885210162

  ==> Basis Set <==

  Basis Set: CC-PVDZ
    Blend: CC-PVDZ
    Number of shells: 16
    Number of basis functions: 36
    Number of Cartesian functions: 38
    Spherical Harmonics?: true
    Max angular momentum: 2

  ==> DFJKGrad: Density-Fitted SCF Gradients <==

    Gradient:                    1
    J tasked:                  Yes
    K tasked:                  Yes
    wK tasked:                  No
    OpenMP threads:              1
    Integrals threads:           1
    Memory [MiB]:              375
    Schwarz Cutoff:          1E-12
    Fitting Condition:       1E-10

   => Auxiliary Basis Set <=

  Basis Set: (CC-PVDZ AUX)
    Blend: CC-PVDZ-JKFIT + DEF2-UNIVERSAL-JKFIT
    Number of shells: 70
    Number of basis functions: 224
    Number of Cartesian functions: 267
    Spherical Harmonics?: true
    Max angular momentum: 4

  ==> DFT Potential <==

   => LibXC <=

    Version 6.2.2
    S. Lehtola, C. Steigemann, M. J.T. Oliveira, and M. A.L. Marques.,  SoftwareX 7, 1â€“5 (2018) (10.1016/j.softx.2017.11.002)

   => Composite Functional: B3LYP <=

    B3LYP Hyb-GGA Exchange-Correlation Functional

    P. J. Stephens, F. J. Devlin, C. F. Chabalowski, and M. J. Frisch.,  J. Phys. Chem. 98, 11623 (1994) (10.1021/j100096a001)

    Deriv               =              1
    GGA                 =           TRUE
    Meta                =          FALSE

    Exchange Hybrid     =           TRUE
    MP2 Hybrid          =          FALSE

   => Exchange Functionals <=

    0.0800   Slater exchange
    0.7200         Becke 88

   => Exact (HF) Exchange <=

    0.2000               HF

   => Correlation Functionals <=

    0.1900   Vosko, Wilk & Nusair (VWN5_RPA)
    0.8100   Lee, Yang & Parr

   => LibXC Density Thresholds  <==

    XC_HYB_GGA_XC_B3LYP:  1.00E-15

   => Molecular Quadrature <=

    Radial Scheme          =       TREUTLER
    Pruning Scheme         =           NONE
    Nuclear Scheme         =       TREUTLER

    Blocking Scheme        =         OCTREE
    BS radius alpha        =              1
    Pruning alpha          =              1
    Radial Points          =             75
    Spherical Points       =            302
    Total Points           =          43920
    Total Blocks           =            467
    Max Points             =            255
    Max Functions          =             36
    Weights Tolerance      =       1.00E-15

  -Total Gradient:
     Atom            X                  Y                   Z
    ------   -----------------  -----------------  -----------------
       1        0.000000000000     0.000000000000    -0.000286083390
       2       -0.000000000000     0.000000000000     0.000273851806

*** tstop() called on Joses-MacBook-Pro-2.local at Thu Jul 17 11:18:17 2025
Module time:
	user time   =       1.44 seconds =       0.02 minutes
	system time =       2.36 seconds =       0.04 minutes
	total time  =          0 seconds =       0.00 minutes
Total time:
	user time   =     413.63 seconds =       6.89 minutes
	system time =     213.24 seconds =       3.55 minutes
	total time  =         62 seconds =       1.03 minutes

    			-----------------------------------------

    			 OPTKING 3.0: for geometry optimizations

    			     By R.A. King, Bethel University

    			        with contributions from

    			    A.V. Copan, J. Cayton, A. Heide

    			-----------------------------------------

	                            ===> Fragment 1 <==

	 Z (Atomic Numbers)          Masses                          Geom
	      11.000000            22.989769          0.00000000  0.00000000  5.97541542
	      17.000000            34.968853          0.00000000  0.00000000 -3.92845093

	 - Coordinate -           - BOHR/RAD -       - ANG/DEG -
	 R(1,2)           =         9.903866           5.240900

	        --- Internal Coordinate Step in ANG or DEG, aJ/ANG or AJ/DEG ---
	-------------------------------------------------------------------------------
	           Coordinate      Previous         Force          Change          New
	           ----------      --------        ------          ------        ------
	               R(1,2)       5.24090        0.00231        0.00061       5.24151
	-------------------------------------------------------------------------------

	                                 ==> Convergence Check <==

	Measures of convergence in internal coordinates in au.

	Criteria marked as inactive (o), active & met (*), and active & unmet ( ).

	----------------------------------------------------------------------------------------------
	   Step    Total Energy     Delta E     Max Force     RMS Force      Max Disp      RMS Disp
	----------------------------------------------------------------------------------------------
	  Convergence Criteria     1.00e-06 *    3.00e-04 *             o    1.20e-03 *             o
	----------------------------------------------------------------------------------------------
	    35    -622.43437950   -2.50e-04      2.80e-04 *    2.80e-04 o    1.15e-03 *    1.15e-03 o  ~
	----------------------------------------------------------------------------------------------

Next Geometry in Ang
	Fragment 1 (Ang)

	   Na   0.0000000000   0.0000000000   3.1623587341
	   Cl   0.0000000000   0.0000000000  -2.0791517750

    Final optimized geometry and variables:
    Molecular point group: c2v
    Full point group: C_inf_v

    Geometry (in Angstrom), charge = -1, multiplicity = 4:

    NA           0.000000000000     0.000000000000     3.162053665818
    CL           0.000000000000     0.000000000000    -2.078846706683

    Psi4 stopped on: Thursday, 17 July 2025 11:18AM
    Psi4 wall time for execution: 0:01:03.10

*** Psi4 exiting successfully. Buy a developer a beer!
