                               Psi4 1.9.1 release

  ==> Input File <==

--------------------------------------------------------------------------
molecule {
-1 4
Ne   0.00000        0.60000        0.00000
Ar   0.00000       -0.60000        0.00000
}

set {
basis              cc-pvdz
reference          uks
maxiter            500
geom_maxiter       500
DAMPING_PERCENTAGE 1
guess              SAP
}

optimize('b3lyp')
--------------------------------------------------------------------------

    Molecular point group: c2v
  Charge       = -1
  Multiplicity = 4
  Basis Set: CC-PVDZ
    Blend: CC-PVDZ
  Basis Set: (CC-PVDZ AUX)
    Blend: CC-PVDZ-JKFIT
  @DF-UKS Final Energy:  -654.20586658444597
    Total Energy =                       -654.2058665844459711
 Dipole X            :          0.0000000            0.0000000            0.0000000
 Dipole Y            :          0.0000000            0.0000000            0.0000000
 Dipole Z            :          0.7538496            1.5038390            2.2576887
 Magnitude           :                                                    2.2576887
    Molecular point group: c2v
  Basis Set: CC-PVDZ
    Blend: CC-PVDZ
  Basis Set: (CC-PVDZ AUX)
    Blend: CC-PVDZ-JKFIT
  Basis Set: CC-PVDZ
    Blend: CC-PVDZ
  Basis Set: (CC-PVDZ AUX)
    Blend: CC-PVDZ-JKFIT
  @DF-UKS Final Energy:  -654.49618451612048
    Total Energy =                       -654.4961845161204792
  Basis Set: CC-PVDZ
    Blend: CC-PVDZ
  Basis Set: (CC-PVDZ AUX)
    Blend: CC-PVDZ-JKFIT
  Basis Set: CC-PVDZ
    Blend: CC-PVDZ
  @DF-UKS Final Energy:  -654.75254528668506
    Total Energy =                       -654.7525452866850628
  @DF-UKS Final Energy:  -654.83609157233116
    Total Energy =                       -654.8360915723312701
  @DF-UKS Final Energy:  -654.85760380251406
    Total Energy =                       -654.8576038025141770
  @DF-UKS Final Energy:  -654.86631571774842
    Total Energy =                       -654.8663157177484209
  @DF-UKS Final Energy:  -654.86870817227111
    Total Energy =                       -654.8687081722711127
  @DF-UKS Final Energy:  -654.86979660347583
    Total Energy =                       -654.8697966034758338
  @DF-UKS Final Energy:  -654.87081976099535
    Total Energy =                       -654.8708197609953459
  @DF-UKS Final Energy:  -654.87181118205126
    Total Energy =                       -654.8718111820512604
  @DF-UKS Final Energy:  -654.87628939327817
    Total Energy =                       -654.8762893932781708
  @DF-UKS Final Energy:  -654.92150589899882
    Total Energy =                       -654.9215058989987028
  @DF-UKS Final Energy:  -654.92334886325125
    Total Energy =                       -654.9233488632512490
  @DF-UKS Final Energy:  -654.92961842842044
    Total Energy =                       -654.9296184284204401
  @DF-UKS Final Energy:  -654.93044349286970
    Total Energy =                       -654.9304434928698129
  @DF-UKS Final Energy:  -654.93062001186922
    Total Energy =                       -654.9306200118692232
  @DF-UKS Final Energy:  -654.93063369466256
    Total Energy =                       -654.9306336946625606
  Basis Set: (CC-PVDZ AUX)
    Blend: CC-PVDZ-JKFIT
  Basis Set: CC-PVDZ
    Blend: CC-PVDZ
  Basis Set: (CC-PVDZ AUX)
    Blend: CC-PVDZ-JKFIT
  @DF-UKS Final Energy:  -654.93063502414225
    Total Energy =                       -654.9306350241422479
  Basis Set: CC-PVDZ
    Blend: CC-PVDZ
  Basis Set: (CC-PVDZ AUX)
    Blend: CC-PVDZ-JKFIT
  Charge       = -1
  Multiplicity = 4
  Basis Set: CC-PVDZ
    Blend: CC-PVDZ
  Basis Set: (CC-PVDZ AUX)
    Blend: CC-PVDZ-JKFIT

    Orbital Energies [Eh]
    ---------------------

    Alpha Occupied:

       1A1  -114.665287     2A1   -30.776977     3A1   -10.756670
       4A1    -8.322795     1B1    -8.300472     1B2    -8.296782
       5A1    -1.245764     6A1    -0.691324     2B1    -0.355057
       2B2    -0.354818     7A1    -0.353481     8A1    -0.189001
       3B1    -0.135663     3B2    -0.130777     9A1     0.728264
       4B2     0.767426

    Alpha Virtual:

       4B1     0.840670    10A1     0.966660    11A1     1.090006
       5B1     1.095208     5B2     1.109960     1A2     1.142701
      12A1     1.145085     6B1     1.541533     6B2     1.542035
      13A1     1.572621    14A1     2.013662     2A2     4.910768
      15A1     4.910997     7B1     4.912442     7B2     4.912599
      16A1     4.913673

    Beta Occupied:

       1A1  -114.641234     2A1   -30.775826     3A1   -10.734140
       1B1    -8.287011     4A1    -8.269591     1B2    -8.262137
       5A1    -1.244378     6A1    -0.596587     2B1    -0.354423
       2B2    -0.354117     7A1    -0.350057     3B1    -0.104472
       3B2    -0.066560

    Beta Virtual:

       8A1     0.027632     4B1     0.875682     9A1     0.906888
       4B2     0.908654    10A1     1.049749    11A1     1.164919
       1A2     1.171243     5B1     1.174368     5B2     1.202299
      12A1     1.207989     6B1     1.541712     6B2     1.542344
      13A1     1.578059    14A1     2.016219     2A2     4.911168
      15A1     4.911397     7B1     4.913644     7B2     4.913824
      16A1     4.915162

    Final Occupation by Irrep:
             A1    A2    B1    B2
    DOCC [     7,    0,    3,    3 ]
    SOCC [     2,    0,    0,    1 ]
    NA   [     9,    0,    3,    4 ]
    NB   [     7,    0,    3,    3 ]

  @DF-UKS Final Energy:  -654.93063518530721

   => Energetics <=

    Nuclear Repulsion Energy =             30.7806181939918702
    One-Electron Energy =                -979.1847741916508312
    Two-Electron Energy =                 328.7730811135685371
    DFT Exchange-Correlation Energy =     -35.2995603012167720
    Empirical Dispersion Energy =           0.0000000000000000
    VV10 Nonlocal Energy =                  0.0000000000000000
    Total Energy =                       -654.9306351853072101

  UHF NO Occupations:
  HONO-2 :    4 B2 1.0000000
  HONO-1 :    8 A1 1.0000000
  HONO-0 :    9 A1 1.0000000
  LUNO+0 :   10 A1 0.0010622
  LUNO+1 :    4 B1 0.0000473
  LUNO+2 :   11 A1 0.0000022
  LUNO+3 :    5 B2 0.0000002

Computation Completed

Properties will be evaluated at   0.000000,   0.000000,   0.000000 [a0]

Properties computed using the SCF density matrix

 Multipole Moments:

 ------------------------------------------------------------------------------------
     Multipole            Electronic (a.u.)      Nuclear  (a.u.)        Total (a.u.)
 ------------------------------------------------------------------------------------

 L = 1.  Multiply by 2.5417464519 to convert [e a0] to [Debye]
 Dipole X            :          0.0000000            0.0000000            0.0000000
 Dipole Y            :          0.0000000            0.0000000            0.0000000
 Dipole Z            :         -2.0540338            3.8780769            1.8240430
 Magnitude           :                                                    1.8240430

 ------------------------------------------------------------------------------------

*** tstop() called on Joses-MacBook-Pro-2.local at Thu Jul 17 11:05:07 2025
Module time:
	user time   =       2.26 seconds =       0.04 minutes
	system time =       3.60 seconds =       0.06 minutes
	total time  =          1 seconds =       0.02 minutes
Total time:
	user time   =      84.73 seconds =       1.41 minutes
	system time =     105.22 seconds =       1.75 minutes
	total time  =         19 seconds =       0.32 minutes

*** tstart() called on Joses-MacBook-Pro-2.local
*** at Thu Jul 17 11:05:07 2025

         ------------------------------------------------------------
                                   SCF GRAD
                          Rob Parrish, Justin Turney,
                       Andy Simmonett, and Alex Sokolov
         ------------------------------------------------------------

  ==> Geometry <==

    Molecular point group: c2v
    Full point group: C_inf_v

    Geometry (in Angstrom), charge = -1, multiplicity = 4:

       Center              X                  Y                   Z               Mass
    ------------   -----------------  -----------------  -----------------  -----------------
         NE           0.000000000000     0.000000000000     2.062640551562    19.992440176200
         AR           0.000000000000     0.000000000000    -1.031900867986    39.962383123700

  Nuclear repulsion =   30.780618193991870

  ==> Basis Set <==

  Basis Set: CC-PVDZ
    Blend: CC-PVDZ
    Number of shells: 14
    Number of basis functions: 32
    Number of Cartesian functions: 34
    Spherical Harmonics?: true
    Max angular momentum: 2

  ==> DFJKGrad: Density-Fitted SCF Gradients <==

    Gradient:                    1
    J tasked:                  Yes
    K tasked:                  Yes
    wK tasked:                  No
    OpenMP threads:              1
    Integrals threads:           1
    Memory [MiB]:              375
    Schwarz Cutoff:          1E-12
    Fitting Condition:       1E-10

   => Auxiliary Basis Set <=

  Basis Set: (CC-PVDZ AUX)
    Blend: CC-PVDZ-JKFIT
    Number of shells: 60
    Number of basis functions: 182
    Number of Cartesian functions: 211
    Spherical Harmonics?: true
    Max angular momentum: 3

  ==> DFT Potential <==

   => LibXC <=

    Version 6.2.2
    S. Lehtola, C. Steigemann, M. J.T. Oliveira, and M. A.L. Marques.,  SoftwareX 7, 1â€“5 (2018) (10.1016/j.softx.2017.11.002)

   => Composite Functional: B3LYP <=

    B3LYP Hyb-GGA Exchange-Correlation Functional

    P. J. Stephens, F. J. Devlin, C. F. Chabalowski, and M. J. Frisch.,  J. Phys. Chem. 98, 11623 (1994) (10.1021/j100096a001)

    Deriv               =              1
    GGA                 =           TRUE
    Meta                =          FALSE

    Exchange Hybrid     =           TRUE
    MP2 Hybrid          =          FALSE

   => Exchange Functionals <=

    0.0800   Slater exchange
    0.7200         Becke 88

   => Exact (HF) Exchange <=

    0.2000               HF

   => Correlation Functionals <=

    0.1900   Vosko, Wilk & Nusair (VWN5_RPA)
    0.8100   Lee, Yang & Parr

   => LibXC Density Thresholds  <==

    XC_HYB_GGA_XC_B3LYP:  1.00E-15

   => Molecular Quadrature <=

    Radial Scheme          =       TREUTLER
    Pruning Scheme         =           NONE
    Nuclear Scheme         =       TREUTLER

    Blocking Scheme        =         OCTREE
    BS radius alpha        =              1
    Pruning alpha          =              1
    Radial Points          =             75
    Spherical Points       =            302
    Total Points           =          41516
    Total Blocks           =            376
    Max Points             =            255
    Max Functions          =             32
    Weights Tolerance      =       1.00E-15

  -Total Gradient:
     Atom            X                  Y                   Z
    ------   -----------------  -----------------  -----------------
       1        0.000000000000    -0.000000000000    -0.000028920209
       2        0.000000000000     0.000000000000     0.000013139839

*** tstop() called on Joses-MacBook-Pro-2.local at Thu Jul 17 11:05:07 2025
Module time:
	user time   =       1.07 seconds =       0.02 minutes
	system time =       1.11 seconds =       0.02 minutes
	total time  =          0 seconds =       0.00 minutes
Total time:
	user time   =      85.80 seconds =       1.43 minutes
	system time =     106.34 seconds =       1.77 minutes
	total time  =         19 seconds =       0.32 minutes

    			-----------------------------------------

    			 OPTKING 3.0: for geometry optimizations

    			     By R.A. King, Bethel University

    			        with contributions from

    			    A.V. Copan, J. Cayton, A. Heide

    			-----------------------------------------

	                            ===> Fragment 1 <==

	 Z (Atomic Numbers)          Masses                          Geom
	      10.000000            19.992440          0.00000000  0.00000000  3.89782574
	      18.000000            39.962383          0.00000000  0.00000000 -1.95001003

	 - Coordinate -           - BOHR/RAD -       - ANG/DEG -
	 R(1,2)           =         5.847836           3.094541

	        --- Internal Coordinate Step in ANG or DEG, aJ/ANG or AJ/DEG ---
	-------------------------------------------------------------------------------
	           Coordinate      Previous         Force          Change          New
	           ----------      --------        ------          ------        ------
	               R(1,2)       3.09454        0.00017        0.00050       3.09504
	-------------------------------------------------------------------------------

	                                 ==> Convergence Check <==

	Measures of convergence in internal coordinates in au.

	Criteria marked as inactive (o), active & met (*), and active & unmet ( ).

	----------------------------------------------------------------------------------------------
	   Step    Total Energy     Delta E     Max Force     RMS Force      Max Disp      RMS Disp
	----------------------------------------------------------------------------------------------
	  Convergence Criteria     1.00e-06 *    3.00e-04 *             o    1.20e-03 *             o
	----------------------------------------------------------------------------------------------
	    19    -654.93063519   -1.61e-07 *    2.10e-05 *    2.10e-05 o    9.41e-04 *    9.41e-04 o  ~
	----------------------------------------------------------------------------------------------

Next Geometry in Ang
	Fragment 1 (Ang)

	   Ne   0.0000000000   0.0000000000   2.0628895164
	   Ar   0.0000000000   0.0000000000  -1.0321498328

    Final optimized geometry and variables:
    Molecular point group: c2v
    Full point group: C_inf_v

    Geometry (in Angstrom), charge = -1, multiplicity = 4:

    NE           0.000000000000     0.000000000000     2.062640551562
    AR           0.000000000000     0.000000000000    -1.031900867986

    Psi4 stopped on: Thursday, 17 July 2025 11:05AM
    Psi4 wall time for execution: 0:00:19.92

*** Psi4 exiting successfully. Buy a developer a beer!
