                               Psi4 1.9.1 release

  ==> Input File <==

--------------------------------------------------------------------------
molecule {
-1 4
N   0.00000        0.60000        0.00000
Na   0.00000       -0.60000        0.00000
}

set {
basis              cc-pvdz
reference          uks
maxiter            500
geom_maxiter       500
DAMPING_PERCENTAGE 1
guess              SAP
}

optimize('b3lyp')
--------------------------------------------------------------------------

    Molecular point group: c2v
  Charge       = -1
  Multiplicity = 4
  Basis Set: CC-PVDZ
    Blend: CC-PVDZ
  Basis Set: (CC-PVDZ AUX)
    Blend: CC-PVDZ-JKFIT + DEF2-UNIVERSAL-JKFIT
  @DF-UKS Final Energy:  -216.42856067432692
    Total Energy =                       -216.4285606743269170
 Dipole X            :          0.0000000            0.0000000            0.0000000
 Dipole Y            :          0.0000000            0.0000000            0.0000000
 Dipole Z            :          0.2975573            0.4226391            0.7201964
 Magnitude           :                                                    0.7201964
    Molecular point group: c2v
  Basis Set: CC-PVDZ
    Blend: CC-PVDZ
  Basis Set: (CC-PVDZ AUX)
    Blend: CC-PVDZ-JKFIT + DEF2-UNIVERSAL-JKFIT
  Basis Set: CC-PVDZ
    Blend: CC-PVDZ
  Basis Set: (CC-PVDZ AUX)
    Blend: CC-PVDZ-JKFIT + DEF2-UNIVERSAL-JKFIT
  @DF-UKS Final Energy:  -216.62118559647416
    Total Energy =                       -216.6211855964741630
  Basis Set: CC-PVDZ
    Blend: CC-PVDZ
  Basis Set: (CC-PVDZ AUX)
    Blend: CC-PVDZ-JKFIT + DEF2-UNIVERSAL-JKFIT
  Basis Set: CC-PVDZ
    Blend: CC-PVDZ
  @DF-UKS Final Energy:  -216.77625455501718
    Total Energy =                       -216.7762545550171751
  @DF-UKS Final Energy:  -216.86276749613501
    Total Energy =                       -216.8627674961350067
  @DF-UKS Final Energy:  -216.89936122366782
    Total Energy =                       -216.8993612236678246
  @DF-UKS Final Energy:  -216.91514876097932
    Total Energy =                       -216.9151487609793207
  @DF-UKS Final Energy:  -216.92093694365514
    Total Energy =                       -216.9209369436551640
  @DF-UKS Final Energy:  -216.92230850195295
    Total Energy =                       -216.9223085019529549
  @DF-UKS Final Energy:  -216.92278130078114
    Total Energy =                       -216.9227813007811392
  @DF-UKS Final Energy:  -216.92285872937413
    Total Energy =                       -216.9228587293741839
  @DF-UKS Final Energy:  -216.92287247410181
    Total Energy =                       -216.9228724741018084
  Basis Set: (CC-PVDZ AUX)
    Blend: CC-PVDZ-JKFIT + DEF2-UNIVERSAL-JKFIT
  Basis Set: CC-PVDZ
    Blend: CC-PVDZ
  Basis Set: (CC-PVDZ AUX)
    Blend: CC-PVDZ-JKFIT + DEF2-UNIVERSAL-JKFIT
  @DF-UKS Final Energy:  -216.92287526581197
    Total Energy =                       -216.9228752658119674
  Basis Set: CC-PVDZ
    Blend: CC-PVDZ
  Basis Set: (CC-PVDZ AUX)
    Blend: CC-PVDZ-JKFIT + DEF2-UNIVERSAL-JKFIT
  Charge       = -1
  Multiplicity = 4
  Basis Set: CC-PVDZ
    Blend: CC-PVDZ
  Basis Set: (CC-PVDZ AUX)
    Blend: CC-PVDZ-JKFIT + DEF2-UNIVERSAL-JKFIT

    Orbital Energies [Eh]
    ---------------------

    Alpha Occupied:

       1A1   -38.291835     2A1   -14.129773     3A1    -2.041376
       1B1    -0.973609     1B2    -0.972471     4A1    -0.972471
       5A1    -0.507359     6A1    -0.084857     2B1    -0.072919
       2B2    -0.024196     7A1     0.033952

    Alpha Virtual:

       3B1     0.105578     3B2     0.107562     8A1     0.127663
       9A1     0.183661     4B1     0.219141     4B2     0.222440
      10A1     0.267854     1A2     0.321669    11A1     0.321773
       5B1     0.353646     5B2     0.361866    12A1     0.417015
      13A1     0.965912     6B1     1.002480     6B2     1.036702
      14A1     1.479745    15A1     1.938232     7B1     1.963403
       2A2     1.989193    16A1     1.999345     7B2     2.001248

    Beta Occupied:

       1A1   -38.290516     2A1   -14.093072     3A1    -2.038961
       1B1    -0.972056     1B2    -0.971328     4A1    -0.969139
       5A1    -0.375242     2B2     0.027238

    Beta Virtual:

       6A1     0.083309     2B1     0.102896     3B2     0.117448
       7A1     0.124190     8A1     0.140839     3B1     0.150840
       9A1     0.211214     4B2     0.240156     4B1     0.246688
      10A1     0.304848     1A2     0.333047    11A1     0.338336
       5B2     0.384981     5B1     0.395155    12A1     0.445090
      13A1     1.062744     6B2     1.070951     6B1     1.096110
      14A1     1.544950    15A1     2.064507     2A2     2.069424
      16A1     2.080090     7B2     2.081591     7B1     2.099793

    Final Occupation by Irrep:
             A1    A2    B1    B2
    DOCC [     5,    0,    1,    2 ]
    SOCC [     2,    0,    1,    0 ]
    NA   [     7,    0,    2,    2 ]
    NB   [     5,    0,    1,    2 ]

  @DF-UKS Final Energy:  -216.92287540271872

   => Energetics <=

    Nuclear Repulsion Energy =             18.7718309338191887
    One-Electron Energy =                -343.2732973250269879
    Two-Electron Energy =                 124.8793442799088353
    DFT Exchange-Correlation Energy =     -17.3007532914197455
    Empirical Dispersion Energy =           0.0000000000000000
    VV10 Nonlocal Energy =                  0.0000000000000000
    Total Energy =                       -216.9228754027187449

  UHF NO Occupations:
  HONO-2 :    6 A1 1.0000000
  HONO-1 :    2 B1 1.0000000
  HONO-0 :    7 A1 1.0000000
  LUNO+0 :    3 B2 0.0196019
  LUNO+1 :    8 A1 0.0013640
  LUNO+2 :    9 A1 0.0000009
  LUNO+3 :   10 A1 0.0000003

Computation Completed

Properties will be evaluated at   0.000000,   0.000000,   0.000000 [a0]

Properties computed using the SCF density matrix

 Multipole Moments:

 ------------------------------------------------------------------------------------
     Multipole            Electronic (a.u.)      Nuclear  (a.u.)        Total (a.u.)
 ------------------------------------------------------------------------------------

 L = 1.  Multiply by 2.5417464519 to convert [e a0] to [Debye]
 Dipole X            :          0.0000000            0.0000000            0.0000000
 Dipole Y            :          0.0000000            0.0000000            0.0000000
 Dipole Z            :          0.3272393            0.7644932            1.0917325
 Magnitude           :                                                    1.0917325

 ------------------------------------------------------------------------------------

*** tstop() called on Joses-MacBook-Pro-2.local at Thu Jul 17 10:28:55 2025
Module time:
	user time   =       3.27 seconds =       0.05 minutes
	system time =       4.46 seconds =       0.07 minutes
	total time  =          1 seconds =       0.02 minutes
Total time:
	user time   =      57.13 seconds =       0.95 minutes
	system time =      97.50 seconds =       1.62 minutes
	total time  =         16 seconds =       0.27 minutes

*** tstart() called on Joses-MacBook-Pro-2.local
*** at Thu Jul 17 10:28:55 2025

         ------------------------------------------------------------
                                   SCF GRAD
                          Rob Parrish, Justin Turney,
                       Andy Simmonett, and Alex Sokolov
         ------------------------------------------------------------

  ==> Geometry <==

    Molecular point group: c2v
    Full point group: C_inf_v

    Geometry (in Angstrom), charge = -1, multiplicity = 4:

       Center              X                  Y                   Z               Mass
    ------------   -----------------  -----------------  -----------------  -----------------
         N            0.000000000000     0.000000000000     1.348969479929    14.003074004430
         NA           0.000000000000     0.000000000000    -0.821657634988    22.989769282000

  Nuclear repulsion =   18.771830933819189

  ==> Basis Set <==

  Basis Set: CC-PVDZ
    Blend: CC-PVDZ
    Number of shells: 14
    Number of basis functions: 32
    Number of Cartesian functions: 34
    Spherical Harmonics?: true
    Max angular momentum: 2

  ==> DFJKGrad: Density-Fitted SCF Gradients <==

    Gradient:                    1
    J tasked:                  Yes
    K tasked:                  Yes
    wK tasked:                  No
    OpenMP threads:              1
    Integrals threads:           1
    Memory [MiB]:              375
    Schwarz Cutoff:          1E-12
    Fitting Condition:       1E-10

   => Auxiliary Basis Set <=

  Basis Set: (CC-PVDZ AUX)
    Blend: CC-PVDZ-JKFIT + DEF2-UNIVERSAL-JKFIT
    Number of shells: 58
    Number of basis functions: 182
    Number of Cartesian functions: 218
    Spherical Harmonics?: true
    Max angular momentum: 4

  ==> DFT Potential <==

   => LibXC <=

    Version 6.2.2
    S. Lehtola, C. Steigemann, M. J.T. Oliveira, and M. A.L. Marques.,  SoftwareX 7, 1â€“5 (2018) (10.1016/j.softx.2017.11.002)

   => Composite Functional: B3LYP <=

    B3LYP Hyb-GGA Exchange-Correlation Functional

    P. J. Stephens, F. J. Devlin, C. F. Chabalowski, and M. J. Frisch.,  J. Phys. Chem. 98, 11623 (1994) (10.1021/j100096a001)

    Deriv               =              1
    GGA                 =           TRUE
    Meta                =          FALSE

    Exchange Hybrid     =           TRUE
    MP2 Hybrid          =          FALSE

   => Exchange Functionals <=

    0.0800   Slater exchange
    0.7200         Becke 88

   => Exact (HF) Exchange <=

    0.2000               HF

   => Correlation Functionals <=

    0.1900   Vosko, Wilk & Nusair (VWN5_RPA)
    0.8100   Lee, Yang & Parr

   => LibXC Density Thresholds  <==

    XC_HYB_GGA_XC_B3LYP:  1.00E-15

   => Molecular Quadrature <=

    Radial Scheme          =       TREUTLER
    Pruning Scheme         =           NONE
    Nuclear Scheme         =       TREUTLER

    Blocking Scheme        =         OCTREE
    BS radius alpha        =              1
    Pruning alpha          =              1
    Radial Points          =             75
    Spherical Points       =            302
    Total Points           =          43789
    Total Blocks           =            425
    Max Points             =            256
    Max Functions          =             32
    Weights Tolerance      =       1.00E-15

  -Total Gradient:
     Atom            X                  Y                   Z
    ------   -----------------  -----------------  -----------------
       1        0.000000000000     0.000000000000    -0.000068195887
       2        0.000000000000    -0.000000000000    -0.000016444452

*** tstop() called on Joses-MacBook-Pro-2.local at Thu Jul 17 10:28:55 2025
Module time:
	user time   =       0.77 seconds =       0.01 minutes
	system time =       1.79 seconds =       0.03 minutes
	total time  =          0 seconds =       0.00 minutes
Total time:
	user time   =      57.90 seconds =       0.96 minutes
	system time =      99.30 seconds =       1.66 minutes
	total time  =         16 seconds =       0.27 minutes

    			-----------------------------------------

    			 OPTKING 3.0: for geometry optimizations

    			     By R.A. King, Bethel University

    			        with contributions from

    			    A.V. Copan, J. Cayton, A. Heide

    			-----------------------------------------

	                            ===> Fragment 1 <==

	 Z (Atomic Numbers)          Masses                          Geom
	       7.000000            14.003074          0.00000000  0.00000000  2.54918287
	      11.000000            22.989769          0.00000000  0.00000000 -1.55270790

	 - Coordinate -           - BOHR/RAD -       - ANG/DEG -
	 R(1,2)           =         4.101891           2.170627

	        --- Internal Coordinate Step in ANG or DEG, aJ/ANG or AJ/DEG ---
	-------------------------------------------------------------------------------
	           Coordinate      Previous         Force          Change          New
	           ----------      --------        ------          ------        ------
	               R(1,2)       2.17063        0.00021        0.00025       2.17088
	-------------------------------------------------------------------------------

	                                 ==> Convergence Check <==

	Measures of convergence in internal coordinates in au.

	Criteria marked as inactive (o), active & met (*), and active & unmet ( ).

	----------------------------------------------------------------------------------------------
	   Step    Total Energy     Delta E     Max Force     RMS Force      Max Disp      RMS Disp
	----------------------------------------------------------------------------------------------
	  Convergence Criteria     1.00e-06 *    3.00e-04 *             o    1.20e-03 *             o
	----------------------------------------------------------------------------------------------
	    13    -216.92287540   -1.37e-07 *    2.59e-05 *    2.59e-05 o    4.78e-04 *    4.78e-04 o  ~
	----------------------------------------------------------------------------------------------

Next Geometry in Ang
	Fragment 1 (Ang)

	    N   0.0000000000   0.0000000000   1.3490959825
	   Na   0.0000000000   0.0000000000  -0.8217841376

    Final optimized geometry and variables:
    Molecular point group: c2v
    Full point group: C_inf_v

    Geometry (in Angstrom), charge = -1, multiplicity = 4:

    N            0.000000000000     0.000000000000     1.348969479929
    NA           0.000000000000     0.000000000000    -0.821657634988

    Psi4 stopped on: Thursday, 17 July 2025 10:28AM
    Psi4 wall time for execution: 0:00:17.05

*** Psi4 exiting successfully. Buy a developer a beer!
