                               Psi4 1.9.1 release

  ==> Input File <==

--------------------------------------------------------------------------
molecule {
-1 4
Be   0.00000        0.60000        0.00000
Ne   0.00000       -0.60000        0.00000
}

set {
basis              cc-pvdz
reference          uks
maxiter            500
geom_maxiter       500
DAMPING_PERCENTAGE 1
guess              SAP
}

optimize('b3lyp')
--------------------------------------------------------------------------

    Molecular point group: c2v
  Charge       = -1
  Multiplicity = 4
  Basis Set: CC-PVDZ
    Blend: CC-PVDZ
  Basis Set: (CC-PVDZ AUX)
    Blend: CC-PVDZ-JKFIT + DEF2-UNIVERSAL-JKFIT
  @DF-UKS Final Energy:  -143.32631093309669
    Total Energy =                       -143.3263109330966927
 Dipole X            :          0.0000000            0.0000000            0.0000000
 Dipole Y            :          0.0000000            0.0000000            0.0000000
 Dipole Z            :         -1.8271505           -0.7937203           -2.6208708
 Magnitude           :                                                    2.6208708
    Molecular point group: c2v
  Basis Set: CC-PVDZ
    Blend: CC-PVDZ
  Basis Set: (CC-PVDZ AUX)
    Blend: CC-PVDZ-JKFIT + DEF2-UNIVERSAL-JKFIT
  Basis Set: CC-PVDZ
    Blend: CC-PVDZ
  Basis Set: (CC-PVDZ AUX)
    Blend: CC-PVDZ-JKFIT + DEF2-UNIVERSAL-JKFIT
  @DF-UKS Final Energy:  -143.41229389882710
    Total Energy =                       -143.4122938988271017
  Basis Set: CC-PVDZ
    Blend: CC-PVDZ
  Basis Set: (CC-PVDZ AUX)
    Blend: CC-PVDZ-JKFIT + DEF2-UNIVERSAL-JKFIT
  Basis Set: CC-PVDZ
    Blend: CC-PVDZ
  @DF-UKS Final Energy:  -143.44005421394982
    Total Energy =                       -143.4400542139497929
  @DF-UKS Final Energy:  -143.45748621447282
    Total Energy =                       -143.4574862144728229
  @DF-UKS Final Energy:  -143.46471575773893
    Total Energy =                       -143.4647157577389009
  @DF-UKS Final Energy:  -143.46994868540423
    Total Energy =                       -143.4699486854042334
  @DF-UKS Final Energy:  -143.47390171622465
    Total Energy =                       -143.4739017162246455
  @DF-UKS Final Energy:  -143.47652124474843
    Total Energy =                       -143.4765212447484259
  @DF-UKS Final Energy:  -143.47865743143805
    Total Energy =                       -143.4786574314380232
  @DF-UKS Final Energy:  -143.47980178442347
    Total Energy =                       -143.4798017844234721
  @DF-UKS Final Energy:  -143.48035108255016
    Total Energy =                       -143.4803510825501576
  @DF-UKS Final Energy:  -143.48052630962985
    Total Energy =                       -143.4805263096298518
  @DF-UKS Final Energy:  -143.48055738771009
    Total Energy =                       -143.4805573877101210
  Basis Set: (CC-PVDZ AUX)
    Blend: CC-PVDZ-JKFIT + DEF2-UNIVERSAL-JKFIT
  Basis Set: CC-PVDZ
    Blend: CC-PVDZ
  Basis Set: (CC-PVDZ AUX)
    Blend: CC-PVDZ-JKFIT + DEF2-UNIVERSAL-JKFIT
  @DF-UKS Final Energy:  -143.48056037150340
    Total Energy =                       -143.4805603715034010
  Basis Set: CC-PVDZ
    Blend: CC-PVDZ
  Basis Set: (CC-PVDZ AUX)
    Blend: CC-PVDZ-JKFIT + DEF2-UNIVERSAL-JKFIT
  Charge       = -1
  Multiplicity = 4
  Basis Set: CC-PVDZ
    Blend: CC-PVDZ
  Basis Set: (CC-PVDZ AUX)
    Blend: CC-PVDZ-JKFIT + DEF2-UNIVERSAL-JKFIT

    Orbital Energies [Eh]
    ---------------------

    Alpha Occupied:

       1A1   -30.824390     2A1    -3.845203     3A1    -1.288665
       4A1    -0.398171     1B2    -0.396751     1B1    -0.396751
       5A1    -0.038495     2B1     0.091858     2B2     0.091858

    Alpha Virtual:

       6A1     0.156483     3B1     0.380055     3B2     0.380055
       7A1     0.381565     8A1     0.405037     1A2     0.677542
       9A1     0.677542     4B1     0.683189     4B2     0.683189
      10A1     0.692468     5B1     1.511556     5B2     1.511556
      11A1     1.553753    12A1     2.076551     6B2     4.868484
       6B1     4.868484     2A2     4.868717    13A1     4.868984
      14A1     4.869134

    Beta Occupied:

       1A1   -30.824035     2A1    -3.828010     3A1    -1.288044
       4A1    -0.397374     1B2    -0.396292     1B1    -0.396292

    Beta Virtual:

       5A1     0.123760     6A1     0.212547     2B1     0.234847
       2B2     0.234847     7A1     0.429360     8A1     0.443766
       3B1     0.452820     3B2     0.452820     9A1     0.768906
       4B1     0.787698     4B2     0.787698     1A2     0.817714
      10A1     0.817722     5B2     1.512115     5B1     1.512115
      11A1     1.556363    12A1     2.079359     6B2     4.869030
       6B1     4.869030     2A2     4.869086    13A1     4.869352
      14A1     4.869743

    Final Occupation by Irrep:
             A1    A2    B1    B2
    DOCC [     4,    0,    1,    1 ]
    SOCC [     1,    0,    1,    1 ]
    NA   [     5,    0,    2,    2 ]
    NB   [     4,    0,    1,    1 ]

  @DF-UKS Final Energy:  -143.48056077649960

   => Energetics <=

    Nuclear Repulsion Energy =              7.0266622753243944
    One-Electron Energy =                -217.9156609753916030
    Two-Electron Energy =                  79.9120606485231235
    DFT Exchange-Correlation Energy =     -12.5036227249555143
    Empirical Dispersion Energy =           0.0000000000000000
    VV10 Nonlocal Energy =                  0.0000000000000000
    Total Energy =                       -143.4805607764996012

  UHF NO Occupations:
  HONO-2 :    2 B1 1.0000000
  HONO-1 :    2 B2 1.0000000
  HONO-0 :    5 A1 1.0000000
  LUNO+0 :    6 A1 0.0000033
  LUNO+1 :    7 A1 0.0000003
  LUNO+2 :    3 B2 0.0000001
  LUNO+3 :    3 B1 0.0000001

Computation Completed

Properties will be evaluated at   0.000000,   0.000000,   0.000000 [a0]

Properties computed using the SCF density matrix

 Multipole Moments:

 ------------------------------------------------------------------------------------
     Multipole            Electronic (a.u.)      Nuclear  (a.u.)        Total (a.u.)
 ------------------------------------------------------------------------------------

 L = 1.  Multiply by 2.5417464519 to convert [e a0] to [Debye]
 Dipole X            :          0.0000000            0.0000000            0.0000000
 Dipole Y            :          0.0000000            0.0000000            0.0000000
 Dipole Z            :         -2.0335482           -1.9924998           -4.0260480
 Magnitude           :                                                    4.0260480

 ------------------------------------------------------------------------------------

*** tstop() called on Joses-MacBook-Pro-2.local at Thu Jul 17 09:41:56 2025
Module time:
	user time   =       2.63 seconds =       0.04 minutes
	system time =       2.38 seconds =       0.04 minutes
	total time  =          1 seconds =       0.02 minutes
Total time:
	user time   =      57.83 seconds =       0.96 minutes
	system time =      65.01 seconds =       1.08 minutes
	total time  =         12 seconds =       0.20 minutes

*** tstart() called on Joses-MacBook-Pro-2.local
*** at Thu Jul 17 09:41:56 2025

         ------------------------------------------------------------
                                   SCF GRAD
                          Rob Parrish, Justin Turney,
                       Andy Simmonett, and Alex Sokolov
         ------------------------------------------------------------

  ==> Geometry <==

    Molecular point group: c2v
    Full point group: C_inf_v

    Geometry (in Angstrom), charge = -1, multiplicity = 4:

       Center              X                  Y                   Z               Mass
    ------------   -----------------  -----------------  -----------------  -----------------
         BE           0.000000000000     0.000000000000     2.076398088057     9.012183065000
         NE           0.000000000000     0.000000000000    -0.935997783185    19.992440176200

  Nuclear repulsion =    7.026662275324394

  ==> Basis Set <==

  Basis Set: CC-PVDZ
    Blend: CC-PVDZ
    Number of shells: 12
    Number of basis functions: 28
    Number of Cartesian functions: 30
    Spherical Harmonics?: true
    Max angular momentum: 2

  ==> DFJKGrad: Density-Fitted SCF Gradients <==

    Gradient:                    1
    J tasked:                  Yes
    K tasked:                  Yes
    wK tasked:                  No
    OpenMP threads:              1
    Integrals threads:           1
    Memory [MiB]:              375
    Schwarz Cutoff:          1E-12
    Fitting Condition:       1E-10

   => Auxiliary Basis Set <=

  Basis Set: (CC-PVDZ AUX)
    Blend: CC-PVDZ-JKFIT + DEF2-UNIVERSAL-JKFIT
    Number of shells: 41
    Number of basis functions: 121
    Number of Cartesian functions: 141
    Spherical Harmonics?: true
    Max angular momentum: 3

  ==> DFT Potential <==

   => LibXC <=

    Version 6.2.2
    S. Lehtola, C. Steigemann, M. J.T. Oliveira, and M. A.L. Marques.,  SoftwareX 7, 1â€“5 (2018) (10.1016/j.softx.2017.11.002)

   => Composite Functional: B3LYP <=

    B3LYP Hyb-GGA Exchange-Correlation Functional

    P. J. Stephens, F. J. Devlin, C. F. Chabalowski, and M. J. Frisch.,  J. Phys. Chem. 98, 11623 (1994) (10.1021/j100096a001)

    Deriv               =              1
    GGA                 =           TRUE
    Meta                =          FALSE

    Exchange Hybrid     =           TRUE
    MP2 Hybrid          =          FALSE

   => Exchange Functionals <=

    0.0800   Slater exchange
    0.7200         Becke 88

   => Exact (HF) Exchange <=

    0.2000               HF

   => Correlation Functionals <=

    0.1900   Vosko, Wilk & Nusair (VWN5_RPA)
    0.8100   Lee, Yang & Parr

   => LibXC Density Thresholds  <==

    XC_HYB_GGA_XC_B3LYP:  1.00E-15

   => Molecular Quadrature <=

    Radial Scheme          =       TREUTLER
    Pruning Scheme         =           NONE
    Nuclear Scheme         =       TREUTLER

    Blocking Scheme        =         OCTREE
    BS radius alpha        =              1
    Pruning alpha          =              1
    Radial Points          =             75
    Spherical Points       =            302
    Total Points           =          43642
    Total Blocks           =            400
    Max Points             =            253
    Max Functions          =             28
    Weights Tolerance      =       1.00E-15

  -Total Gradient:
     Atom            X                  Y                   Z
    ------   -----------------  -----------------  -----------------
       1        0.000000000000     0.000000000000     0.000008027361
       2        0.000000000000     0.000000000000     0.000020919596

*** tstop() called on Joses-MacBook-Pro-2.local at Thu Jul 17 09:41:56 2025
Module time:
	user time   =       0.57 seconds =       0.01 minutes
	system time =       1.05 seconds =       0.02 minutes
	total time  =          0 seconds =       0.00 minutes
Total time:
	user time   =      58.40 seconds =       0.97 minutes
	system time =      66.06 seconds =       1.10 minutes
	total time  =         12 seconds =       0.20 minutes

    			-----------------------------------------

    			 OPTKING 3.0: for geometry optimizations

    			     By R.A. King, Bethel University

    			        with contributions from

    			    A.V. Copan, J. Cayton, A. Heide

    			-----------------------------------------

	                            ===> Fragment 1 <==

	 Z (Atomic Numbers)          Masses                          Geom
	       4.000000             9.012183          0.00000000  0.00000000  3.92382371
	      10.000000            19.992440          0.00000000  0.00000000 -1.76877946

	 - Coordinate -           - BOHR/RAD -       - ANG/DEG -
	 R(1,2)           =         5.692603           3.012396

	        --- Internal Coordinate Step in ANG or DEG, aJ/ANG or AJ/DEG ---
	-------------------------------------------------------------------------------
	           Coordinate      Previous         Force          Change          New
	           ----------      --------        ------          ------        ------
	               R(1,2)       3.01240        0.00005        0.00180       3.01420
	-------------------------------------------------------------------------------

	                                 ==> Convergence Check <==

	Measures of convergence in internal coordinates in au.

	Criteria marked as inactive (o), active & met (*), and active & unmet ( ).

	----------------------------------------------------------------------------------------------
	   Step    Total Energy     Delta E     Max Force     RMS Force      Max Disp      RMS Disp
	----------------------------------------------------------------------------------------------
	  Convergence Criteria     1.00e-06 *    3.00e-04 *             o    1.20e-03 *             o
	----------------------------------------------------------------------------------------------
	    15    -143.48056078   -4.05e-07 *    6.45e-06 *    6.45e-06 o    3.40e-03      3.40e-03 o  ~
	----------------------------------------------------------------------------------------------

Next Geometry in Ang
	Fragment 1 (Ang)

	   Be   0.0000000000   0.0000000000   2.0772976833
	   Ne   0.0000000000   0.0000000000  -0.9368973784

    Final optimized geometry and variables:
    Molecular point group: c2v
    Full point group: C_inf_v

    Geometry (in Angstrom), charge = -1, multiplicity = 4:

    BE           0.000000000000     0.000000000000     2.076398088057
    NE           0.000000000000     0.000000000000    -0.935997783185

    Psi4 stopped on: Thursday, 17 July 2025 09:41AM
    Psi4 wall time for execution: 0:00:12.37

*** Psi4 exiting successfully. Buy a developer a beer!
