                               Psi4 1.9.1 release

  ==> Input File <==

--------------------------------------------------------------------------
molecule {
-1 4
Na   0.00000        0.60000        0.00000
Al   0.00000       -0.60000        0.00000
}

set {
basis              cc-pvdz
reference          uks
maxiter            500
geom_maxiter       500
DAMPING_PERCENTAGE 1
guess              SAP
}

optimize('b3lyp')
--------------------------------------------------------------------------

    Molecular point group: c2v
  Charge       = -1
  Multiplicity = 4
  Basis Set: CC-PVDZ
    Blend: CC-PVDZ
  Basis Set: (CC-PVDZ AUX)
    Blend: CC-PVDZ-JKFIT + DEF2-UNIVERSAL-JKFIT
  @DF-UKS Final Energy:  -404.01802065363609
    Total Energy =                       -404.0180206536360288
 Dipole X            :          0.0000000            0.0000000            0.0000000
 Dipole Y            :          0.0000000            0.0000000            0.0000000
 Dipole Z            :         -0.5836673           -0.0939390           -0.6776063
 Magnitude           :                                                    0.6776063
    Molecular point group: c2v
  Basis Set: CC-PVDZ
    Blend: CC-PVDZ
  Basis Set: (CC-PVDZ AUX)
    Blend: CC-PVDZ-JKFIT + DEF2-UNIVERSAL-JKFIT
  Basis Set: CC-PVDZ
    Blend: CC-PVDZ
  Basis Set: (CC-PVDZ AUX)
    Blend: CC-PVDZ-JKFIT + DEF2-UNIVERSAL-JKFIT
  @DF-UKS Final Energy:  -404.02501710730365
    Total Energy =                       -404.0250171073035972
  Basis Set: CC-PVDZ
    Blend: CC-PVDZ
  Basis Set: (CC-PVDZ AUX)
    Blend: CC-PVDZ-JKFIT + DEF2-UNIVERSAL-JKFIT
  Basis Set: CC-PVDZ
    Blend: CC-PVDZ
  @DF-UKS Final Energy:  -404.03855812173043
    Total Energy =                       -404.0385581217303752
  @DF-UKS Final Energy:  -404.08806276120924
    Total Energy =                       -404.0880627612093008
  @DF-UKS Final Energy:  -404.32257715563594
    Total Energy =                       -404.3225771556359405
  @DF-UKS Final Energy:  -404.46284892289447
    Total Energy =                       -404.4628489228944659
  @DF-UKS Final Energy:  -404.56923286898848
    Total Energy =                       -404.5692328689884221
  @DF-UKS Final Energy:  -404.63962092052321
    Total Energy =                       -404.6396209205232708
  @DF-UKS Final Energy:  -404.67875683442594
    Total Energy =                       -404.6787568344258261
  @DF-UKS Final Energy:  -404.69716141727133
    Total Energy =                       -404.6971614172713885
  @DF-UKS Final Energy:  -404.70477356821903
    Total Energy =                       -404.7047735682190250
  @DF-UKS Final Energy:  -404.70747765560765
    Total Energy =                       -404.7074776556077040
  @DF-UKS Final Energy:  -404.70818461093984
    Total Energy =                       -404.7081846109398384
  @DF-UKS Final Energy:  -404.70827574531035
    Total Energy =                       -404.7082757453103454
  Basis Set: (CC-PVDZ AUX)
    Blend: CC-PVDZ-JKFIT + DEF2-UNIVERSAL-JKFIT
  Basis Set: CC-PVDZ
    Blend: CC-PVDZ
  Basis Set: (CC-PVDZ AUX)
    Blend: CC-PVDZ-JKFIT + DEF2-UNIVERSAL-JKFIT
  @DF-UKS Final Energy:  -404.70828983006788
    Total Energy =                       -404.7082898300679403
  Basis Set: CC-PVDZ
    Blend: CC-PVDZ
  Basis Set: (CC-PVDZ AUX)
    Blend: CC-PVDZ-JKFIT + DEF2-UNIVERSAL-JKFIT
  Charge       = -1
  Multiplicity = 4
  Basis Set: CC-PVDZ
    Blend: CC-PVDZ
  Basis Set: (CC-PVDZ AUX)
    Blend: CC-PVDZ-JKFIT + DEF2-UNIVERSAL-JKFIT

    Orbital Energies [Eh]
    ---------------------

    Alpha Occupied:

       1A1   -55.876703     2A1   -38.335450     3A1    -3.957273
       4A1    -2.511182     1B2    -2.509526     1B1    -2.509526
       5A1    -2.081632     6A1    -1.013040     2B1    -1.012476
       2B2    -1.012476     7A1    -0.156526     8A1    -0.001085
       3B2     0.029895     3B1     0.029895

    Alpha Virtual:

       9A1     0.071936     4B2     0.103538     4B1     0.103538
      10A1     0.118571    11A1     0.160747     5B2     0.188945
       5B1     0.188945    12A1     0.246539     1A2     0.286478
      13A1     0.286478     6B2     0.298894     6B1     0.298894
      14A1     0.300382     7B1     0.391258     7B2     0.391258
      15A1     0.406449     2A2     0.441568    16A1     0.441570
      17A1     0.493352     8B2     0.530353     8B1     0.530353
      18A1     0.684007

    Beta Occupied:

       1A1   -55.874028     2A1   -38.334125     3A1    -3.953956
       4A1    -2.508335     1B2    -2.504125     1B1    -2.504125
       5A1    -2.079093     6A1    -1.011561     2B1    -1.010506
       2B2    -1.010506     7A1    -0.113252

    Beta Virtual:

       8A1     0.057965     3B1     0.093804     3B2     0.093804
       9A1     0.100761    10A1     0.131579     4B1     0.134155
       4B2     0.134155    11A1     0.179084     5B2     0.212063
       5B1     0.212063    12A1     0.269331    13A1     0.315680
       1A2     0.315680    14A1     0.317679     6B1     0.327462
       6B2     0.327462     7B1     0.417797     7B2     0.417797
      15A1     0.429441     2A2     0.486815    16A1     0.486815
      17A1     0.513731     8B2     0.560573     8B1     0.560573
      18A1     0.702681

    Final Occupation by Irrep:
             A1    A2    B1    B2
    DOCC [     7,    0,    2,    2 ]
    SOCC [     1,    0,    1,    1 ]
    NA   [     8,    0,    3,    3 ]
    NB   [     7,    0,    2,    2 ]

  @DF-UKS Final Energy:  -404.70829047986149

   => Energetics <=

    Nuclear Repulsion Energy =             25.9686386999691372
    One-Electron Energy =                -620.4463201407162387
    Two-Electron Energy =                 216.5019952064993731
    DFT Exchange-Correlation Energy =     -26.7326042456137216
    Empirical Dispersion Energy =           0.0000000000000000
    VV10 Nonlocal Energy =                  0.0000000000000000
    Total Energy =                       -404.7082904798614891

  UHF NO Occupations:
  HONO-2 :    8 A1 1.0000000
  HONO-1 :    3 B2 1.0000000
  HONO-0 :    3 B1 1.0000000
  LUNO+0 :    9 A1 0.0008923
  LUNO+1 :   10 A1 0.0000006
  LUNO+2 :    4 B1 0.0000003
  LUNO+3 :    4 B2 0.0000003

Computation Completed

Properties will be evaluated at   0.000000,   0.000000,   0.000000 [a0]

Properties computed using the SCF density matrix

 Multipole Moments:

 ------------------------------------------------------------------------------------
     Multipole            Electronic (a.u.)      Nuclear  (a.u.)        Total (a.u.)
 ------------------------------------------------------------------------------------

 L = 1.  Multiply by 2.5417464519 to convert [e a0] to [Debye]
 Dipole X            :          0.0000000            0.0000000            0.0000000
 Dipole Y            :          0.0000000            0.0000000            0.0000000
 Dipole Z            :          0.3753293           -0.2281143            0.1472150
 Magnitude           :                                                    0.1472150

 ------------------------------------------------------------------------------------

*** tstop() called on Joses-MacBook-Pro-2.local at Thu Jul 17 11:09:54 2025
Module time:
	user time   =       7.98 seconds =       0.13 minutes
	system time =       2.67 seconds =       0.04 minutes
	total time  =          1 seconds =       0.02 minutes
Total time:
	user time   =     214.64 seconds =       3.58 minutes
	system time =      68.44 seconds =       1.14 minutes
	total time  =         28 seconds =       0.47 minutes

*** tstart() called on Joses-MacBook-Pro-2.local
*** at Thu Jul 17 11:09:54 2025

         ------------------------------------------------------------
                                   SCF GRAD
                          Rob Parrish, Justin Turney,
                       Andy Simmonett, and Alex Sokolov
         ------------------------------------------------------------

  ==> Geometry <==

    Molecular point group: c2v
    Full point group: C_inf_v

    Geometry (in Angstrom), charge = -1, multiplicity = 4:

       Center              X                  Y                   Z               Mass
    ------------   -----------------  -----------------  -----------------  -----------------
         NA           0.000000000000     0.000000000000     1.573381287423    22.989769282000
         AL           0.000000000000     0.000000000000    -1.340608236637    26.981538530000

  Nuclear repulsion =   25.968638699969137

  ==> Basis Set <==

  Basis Set: CC-PVDZ
    Blend: CC-PVDZ
    Number of shells: 16
    Number of basis functions: 36
    Number of Cartesian functions: 38
    Spherical Harmonics?: true
    Max angular momentum: 2

  ==> DFJKGrad: Density-Fitted SCF Gradients <==

    Gradient:                    1
    J tasked:                  Yes
    K tasked:                  Yes
    wK tasked:                  No
    OpenMP threads:              1
    Integrals threads:           1
    Memory [MiB]:              375
    Schwarz Cutoff:          1E-12
    Fitting Condition:       1E-10

   => Auxiliary Basis Set <=

  Basis Set: (CC-PVDZ AUX)
    Blend: CC-PVDZ-JKFIT + DEF2-UNIVERSAL-JKFIT
    Number of shells: 70
    Number of basis functions: 224
    Number of Cartesian functions: 267
    Spherical Harmonics?: true
    Max angular momentum: 4

  ==> DFT Potential <==

   => LibXC <=

    Version 6.2.2
    S. Lehtola, C. Steigemann, M. J.T. Oliveira, and M. A.L. Marques.,  SoftwareX 7, 1â€“5 (2018) (10.1016/j.softx.2017.11.002)

   => Composite Functional: B3LYP <=

    B3LYP Hyb-GGA Exchange-Correlation Functional

    P. J. Stephens, F. J. Devlin, C. F. Chabalowski, and M. J. Frisch.,  J. Phys. Chem. 98, 11623 (1994) (10.1021/j100096a001)

    Deriv               =              1
    GGA                 =           TRUE
    Meta                =          FALSE

    Exchange Hybrid     =           TRUE
    MP2 Hybrid          =          FALSE

   => Exchange Functionals <=

    0.0800   Slater exchange
    0.7200         Becke 88

   => Exact (HF) Exchange <=

    0.2000               HF

   => Correlation Functionals <=

    0.1900   Vosko, Wilk & Nusair (VWN5_RPA)
    0.8100   Lee, Yang & Parr

   => LibXC Density Thresholds  <==

    XC_HYB_GGA_XC_B3LYP:  1.00E-15

   => Molecular Quadrature <=

    Radial Scheme          =       TREUTLER
    Pruning Scheme         =           NONE
    Nuclear Scheme         =       TREUTLER

    Blocking Scheme        =         OCTREE
    BS radius alpha        =              1
    Pruning alpha          =              1
    Radial Points          =             75
    Spherical Points       =            302
    Total Points           =          43866
    Total Blocks           =            456
    Max Points             =            256
    Max Functions          =             36
    Weights Tolerance      =       1.00E-15

  -Total Gradient:
     Atom            X                  Y                   Z
    ------   -----------------  -----------------  -----------------
       1        0.000000000000    -0.000000000000    -0.000024878690
       2       -0.000000000000    -0.000000000000     0.000045499148

*** tstop() called on Joses-MacBook-Pro-2.local at Thu Jul 17 11:09:54 2025
Module time:
	user time   =       2.64 seconds =       0.04 minutes
	system time =       1.84 seconds =       0.03 minutes
	total time  =          0 seconds =       0.00 minutes
Total time:
	user time   =     217.28 seconds =       3.62 minutes
	system time =      70.29 seconds =       1.17 minutes
	total time  =         28 seconds =       0.47 minutes

    			-----------------------------------------

    			 OPTKING 3.0: for geometry optimizations

    			     By R.A. King, Bethel University

    			        with contributions from

    			    A.V. Copan, J. Cayton, A. Heide

    			-----------------------------------------

	                            ===> Fragment 1 <==

	 Z (Atomic Numbers)          Masses                          Geom
	      11.000000            22.989769          0.00000000  0.00000000  2.97325972
	      13.000000            26.981539          0.00000000  0.00000000 -2.53338241

	 - Coordinate -           - BOHR/RAD -       - ANG/DEG -
	 R(1,2)           =         5.506642           2.913990

	        --- Internal Coordinate Step in ANG or DEG, aJ/ANG or AJ/DEG ---
	-------------------------------------------------------------------------------
	           Coordinate      Previous         Force          Change          New
	           ----------      --------        ------          ------        ------
	               R(1,2)       2.91399        0.00029        0.00096       2.91495
	-------------------------------------------------------------------------------

	                                 ==> Convergence Check <==

	Measures of convergence in internal coordinates in au.

	Criteria marked as inactive (o), active & met (*), and active & unmet ( ).

	----------------------------------------------------------------------------------------------
	   Step    Total Energy     Delta E     Max Force     RMS Force      Max Disp      RMS Disp
	----------------------------------------------------------------------------------------------
	  Convergence Criteria     1.00e-06 *    3.00e-04 *             o    1.20e-03 *             o
	----------------------------------------------------------------------------------------------
	    16    -404.70829048   -6.50e-07 *    3.52e-05 *    3.52e-05 o    1.82e-03      1.82e-03 o  ~
	----------------------------------------------------------------------------------------------

Next Geometry in Ang
	Fragment 1 (Ang)

	   Na   0.0000000000   0.0000000000   1.5738615759
	   Al   0.0000000000   0.0000000000  -1.3410885251

    Final optimized geometry and variables:
    Molecular point group: c2v
    Full point group: C_inf_v

    Geometry (in Angstrom), charge = -1, multiplicity = 4:

    NA           0.000000000000     0.000000000000     1.573381287423
    AL           0.000000000000     0.000000000000    -1.340608236637

    Psi4 stopped on: Thursday, 17 July 2025 11:09AM
    Psi4 wall time for execution: 0:00:28.64

*** Psi4 exiting successfully. Buy a developer a beer!
