                               Psi4 1.9.1 release

  ==> Input File <==

--------------------------------------------------------------------------
molecule {
-1 4
F   0.00000        0.60000        0.00000
F   0.00000       -0.60000        0.00000
}

set {
basis              cc-pvdz
reference          uks
maxiter            500
geom_maxiter       500
DAMPING_PERCENTAGE 1
guess              SAP
}

optimize('b3lyp')
--------------------------------------------------------------------------

    Molecular point group: d2h
  Charge       = -1
  Multiplicity = 4
  Basis Set: CC-PVDZ
    Blend: CC-PVDZ
  Basis Set: (CC-PVDZ AUX)
    Blend: CC-PVDZ-JKFIT
  @DF-UKS Final Energy:  -198.10474403697680
    Total Energy =                       -198.1047440369767969
 Dipole X            :          0.0000000            0.0000000            0.0000000
 Dipole Y            :          0.0000000            0.0000000            0.0000000
 Dipole Z            :          0.0000000            0.0000000            0.0000000
 Magnitude           :                                                    0.0000000
    Molecular point group: d2h
  Basis Set: CC-PVDZ
    Blend: CC-PVDZ
  Basis Set: (CC-PVDZ AUX)
    Blend: CC-PVDZ-JKFIT
  Basis Set: CC-PVDZ
    Blend: CC-PVDZ
  Basis Set: (CC-PVDZ AUX)
    Blend: CC-PVDZ-JKFIT
  @DF-UKS Final Energy:  -198.25556006161389
    Total Energy =                       -198.2555600616138918
  Basis Set: CC-PVDZ
    Blend: CC-PVDZ
  Basis Set: (CC-PVDZ AUX)
    Blend: CC-PVDZ-JKFIT
  Basis Set: CC-PVDZ
    Blend: CC-PVDZ
  @DF-UKS Final Energy:  -198.25653341136527
    Total Energy =                       -198.2565334113652682
  Basis Set: (CC-PVDZ AUX)
    Blend: CC-PVDZ-JKFIT
  Basis Set: CC-PVDZ
    Blend: CC-PVDZ
  Basis Set: (CC-PVDZ AUX)
    Blend: CC-PVDZ-JKFIT
  @DF-UKS Final Energy:  -198.25700848368842
    Total Energy =                       -198.2570084836884234
  Basis Set: CC-PVDZ
    Blend: CC-PVDZ
  Basis Set: (CC-PVDZ AUX)
    Blend: CC-PVDZ-JKFIT
  Charge       = -1
  Multiplicity = 4
  Basis Set: CC-PVDZ
    Blend: CC-PVDZ
  Basis Set: (CC-PVDZ AUX)
    Blend: CC-PVDZ-JKFIT

    Orbital Energies [Eh]
    ---------------------

    Alpha Occupied:

       1B2u  -24.333094     1Ag   -24.332997     2Ag    -0.935293
       2B2u   -0.758343     3Ag    -0.226596     1B3u   -0.173358
       1B1u   -0.128339     1B1g   -0.072532     1B3g   -0.023960
       3B2u    0.061127     4B2u    1.313680

    Alpha Virtual:

       2B3u    1.335641     2B1u    1.368304     2B1g    1.521641
       2B3g    1.552001     4Ag     1.557401     5Ag     1.782401
       5B2u    2.311149     6Ag     3.562219     3B3u    3.732627
       3B1u    3.769145     1B2g    3.857683     7Ag     3.859495
       6B2u    3.883102     1Au     3.883306     3B1g    4.009023
       3B3g    4.046283     7B2u    4.704279

    Beta Occupied:

       1Ag   -24.281883     1B2u  -24.281854     2Ag    -0.837882
       2B2u   -0.644662     1B1u   -0.088940     3Ag    -0.069432
       1B3u   -0.041962     1B3g    0.021227

    Beta Virtual:

       1B1g    0.139073     3B2u    0.321236     2B1u    1.400963
       2B3u    1.419646     4B2u    1.517472     2B3g    1.588445
       2B1g    1.604690     4Ag     1.713120     5Ag     1.852150
       5B2u    2.375634     6Ag     3.652592     3B1u    3.831681
       3B3u    3.836509     1B2g    3.918652     7Ag     3.921293
       1Au     3.945621     6B2u    3.948213     3B3g    4.111833
       3B1g    4.117910     7B2u    4.793597

    Final Occupation by Irrep:
             Ag   B1g   B2g   B3g    Au   B1u   B2u   B3u
    DOCC [     3,    0,    0,    1,    0,    1,    2,    1 ]
    SOCC [     0,    1,    0,    0,    0,    0,    2,    0 ]
    NA   [     3,    1,    0,    1,    0,    1,    4,    1 ]
    NB   [     3,    0,    0,    1,    0,    1,    2,    1 ]

  @DF-UKS Final Energy:  -198.25701344918849

   => Energetics <=

    Nuclear Repulsion Energy =             28.5117282543255399
    One-Electron Energy =                -341.3666628899233046
    Two-Electron Energy =                 131.8063021917946287
    DFT Exchange-Correlation Energy =     -17.2083810053853377
    Empirical Dispersion Energy =           0.0000000000000000
    VV10 Nonlocal Energy =                  0.0000000000000000
    Total Energy =                       -198.2570134491884914

  UHF NO Occupations:
  HONO-2 :    3B2u 1.0000000
  HONO-1 :    1B1g 1.0000000
  HONO-0 :    4B2u 1.0000000
  LUNO+0 :    2B3u 0.0014455
  LUNO+1 :    4 Ag 0.0012608
  LUNO+2 :    5 Ag 0.0002205
  LUNO+3 :    5B2u 0.0001839

Computation Completed

Properties will be evaluated at   0.000000,   0.000000,   0.000000 [a0]

Properties computed using the SCF density matrix

 Multipole Moments:

 ------------------------------------------------------------------------------------
     Multipole            Electronic (a.u.)      Nuclear  (a.u.)        Total (a.u.)
 ------------------------------------------------------------------------------------

 L = 1.  Multiply by 2.5417464519 to convert [e a0] to [Debye]
 Dipole X            :          0.0000000            0.0000000            0.0000000
 Dipole Y            :          0.0000000            0.0000000            0.0000000
 Dipole Z            :          0.0000000            0.0000000            0.0000000
 Magnitude           :                                                    0.0000000

 ------------------------------------------------------------------------------------

*** tstop() called on Joses-MacBook-Pro-2.local at Thu Jul 17 10:49:40 2025
Module time:
	user time   =       2.20 seconds =       0.04 minutes
	system time =       3.75 seconds =       0.06 minutes
	total time  =          0 seconds =       0.00 minutes
Total time:
	user time   =      17.83 seconds =       0.30 minutes
	system time =      26.08 seconds =       0.43 minutes
	total time  =          4 seconds =       0.07 minutes

*** tstart() called on Joses-MacBook-Pro-2.local
*** at Thu Jul 17 10:49:40 2025

         ------------------------------------------------------------
                                   SCF GRAD
                          Rob Parrish, Justin Turney,
                       Andy Simmonett, and Alex Sokolov
         ------------------------------------------------------------

  ==> Geometry <==

    Molecular point group: d2h
    Full point group: D_inf_h

    Geometry (in Angstrom), charge = -1, multiplicity = 4:

       Center              X                  Y                   Z               Mass
    ------------   -----------------  -----------------  -----------------  -----------------
         F           -0.000000000000     0.751679338445     0.000000000000    18.998403162730
         F            0.000000000000    -0.751679338445     0.000000000000    18.998403162730

  Nuclear repulsion =   28.511728254325540

  ==> Basis Set <==

  Basis Set: CC-PVDZ
    Blend: CC-PVDZ
    Number of shells: 12
    Number of basis functions: 28
    Number of Cartesian functions: 30
    Spherical Harmonics?: true
    Max angular momentum: 2

  ==> DFJKGrad: Density-Fitted SCF Gradients <==

    Gradient:                    1
    J tasked:                  Yes
    K tasked:                  Yes
    wK tasked:                  No
    OpenMP threads:              1
    Integrals threads:           1
    Memory [MiB]:              375
    Schwarz Cutoff:          1E-12
    Fitting Condition:       1E-10

   => Auxiliary Basis Set <=

  Basis Set: (CC-PVDZ AUX)
    Blend: CC-PVDZ-JKFIT
    Number of shells: 48
    Number of basis functions: 140
    Number of Cartesian functions: 162
    Spherical Harmonics?: true
    Max angular momentum: 3

  ==> DFT Potential <==

   => LibXC <=

    Version 6.2.2
    S. Lehtola, C. Steigemann, M. J.T. Oliveira, and M. A.L. Marques.,  SoftwareX 7, 1â€“5 (2018) (10.1016/j.softx.2017.11.002)

   => Composite Functional: B3LYP <=

    B3LYP Hyb-GGA Exchange-Correlation Functional

    P. J. Stephens, F. J. Devlin, C. F. Chabalowski, and M. J. Frisch.,  J. Phys. Chem. 98, 11623 (1994) (10.1021/j100096a001)

    Deriv               =              1
    GGA                 =           TRUE
    Meta                =          FALSE

    Exchange Hybrid     =           TRUE
    MP2 Hybrid          =          FALSE

   => Exchange Functionals <=

    0.0800   Slater exchange
    0.7200         Becke 88

   => Exact (HF) Exchange <=

    0.2000               HF

   => Correlation Functionals <=

    0.1900   Vosko, Wilk & Nusair (VWN5_RPA)
    0.8100   Lee, Yang & Parr

   => LibXC Density Thresholds  <==

    XC_HYB_GGA_XC_B3LYP:  1.00E-15

   => Molecular Quadrature <=

    Radial Scheme          =       TREUTLER
    Pruning Scheme         =           NONE
    Nuclear Scheme         =       TREUTLER

    Blocking Scheme        =         OCTREE
    BS radius alpha        =              1
    Pruning alpha          =              1
    Radial Points          =             75
    Spherical Points       =            302
    Total Points           =          42058
    Total Blocks           =            382
    Max Points             =            254
    Max Functions          =             28
    Weights Tolerance      =       1.00E-15

  -Total Gradient:
     Atom            X                  Y                   Z
    ------   -----------------  -----------------  -----------------
       1        0.000000000000    -0.000236335042     0.000000000000
       2       -0.000000000000     0.000236335042     0.000000000000

*** tstop() called on Joses-MacBook-Pro-2.local at Thu Jul 17 10:49:41 2025
Module time:
	user time   =       0.61 seconds =       0.01 minutes
	system time =       1.30 seconds =       0.02 minutes
	total time  =          1 seconds =       0.02 minutes
Total time:
	user time   =      18.44 seconds =       0.31 minutes
	system time =      27.39 seconds =       0.46 minutes
	total time  =          5 seconds =       0.08 minutes

    			-----------------------------------------

    			 OPTKING 3.0: for geometry optimizations

    			     By R.A. King, Bethel University

    			        with contributions from

    			    A.V. Copan, J. Cayton, A. Heide

    			-----------------------------------------

	                            ===> Fragment 1 <==

	 Z (Atomic Numbers)          Masses                          Geom
	       9.000000            18.998403         -0.00000000  1.42046808  0.00000000
	       9.000000            18.998403          0.00000000 -1.42046808  0.00000000

	 - Coordinate -           - BOHR/RAD -       - ANG/DEG -
	 R(1,2)           =         2.840936           1.503359

	        --- Internal Coordinate Step in ANG or DEG, aJ/ANG or AJ/DEG ---
	-------------------------------------------------------------------------------
	           Coordinate      Previous         Force          Change          New
	           ----------      --------        ------          ------        ------
	               R(1,2)       1.50336        0.00195        0.00023       1.50358
	-------------------------------------------------------------------------------

	                                 ==> Convergence Check <==

	Measures of convergence in internal coordinates in au.

	Criteria marked as inactive (o), active & met (*), and active & unmet ( ).

	----------------------------------------------------------------------------------------------
	   Step    Total Energy     Delta E     Max Force     RMS Force      Max Disp      RMS Disp
	----------------------------------------------------------------------------------------------
	  Convergence Criteria     1.00e-06 *    3.00e-04 *             o    1.20e-03 *             o
	----------------------------------------------------------------------------------------------
	     5    -198.25701345   -4.97e-06      2.36e-04 *    2.36e-04 o    4.26e-04 *    4.26e-04 o  ~
	----------------------------------------------------------------------------------------------

Next Geometry in Ang
	Fragment 1 (Ang)

	    F  -0.0000000000   0.7517919240   0.0000000000
	    F   0.0000000000  -0.7517919240   0.0000000000

    Final optimized geometry and variables:
    Molecular point group: d2h
    Full point group: D_inf_h

    Geometry (in Angstrom), charge = -1, multiplicity = 4:

    F           -0.000000000000     0.751679338445     0.000000000000
    F            0.000000000000    -0.751679338445     0.000000000000

    Psi4 stopped on: Thursday, 17 July 2025 10:49AM
    Psi4 wall time for execution: 0:00:05.19

*** Psi4 exiting successfully. Buy a developer a beer!
