                               Psi4 1.9.1 release

  ==> Input File <==

--------------------------------------------------------------------------
molecule {
-1 4
Li   0.00000        0.60000        0.00000
N   0.00000       -0.60000        0.00000
}

set {
basis              cc-pvdz
reference          uks
maxiter            500
geom_maxiter       500
DAMPING_PERCENTAGE 1
guess              SAP
}

optimize('b3lyp')
--------------------------------------------------------------------------

    Molecular point group: c2v
  Charge       = -1
  Multiplicity = 4
  Basis Set: CC-PVDZ
    Blend: CC-PVDZ
  Basis Set: (CC-PVDZ AUX)
    Blend: CC-PVDZ-JKFIT + DEF2-UNIVERSAL-JKFIT
  @DF-UKS Final Energy:   -61.98619846759820
    Total Energy =                        -61.9861984675982001
 Dipole X            :          0.0000000            0.0000000            0.0000000
 Dipole Y            :          0.0000000            0.0000000            0.0000000
 Dipole Z            :         -1.6658497           -0.7662953           -2.4321450
 Magnitude           :                                                    2.4321450
    Molecular point group: c2v
  Basis Set: CC-PVDZ
    Blend: CC-PVDZ
  Basis Set: (CC-PVDZ AUX)
    Blend: CC-PVDZ-JKFIT + DEF2-UNIVERSAL-JKFIT
  Basis Set: CC-PVDZ
    Blend: CC-PVDZ
  Basis Set: (CC-PVDZ AUX)
    Blend: CC-PVDZ-JKFIT + DEF2-UNIVERSAL-JKFIT
  @DF-UKS Final Energy:   -62.09456060734740
    Total Energy =                        -62.0945606073473968
  Basis Set: CC-PVDZ
    Blend: CC-PVDZ
  Basis Set: (CC-PVDZ AUX)
    Blend: CC-PVDZ-JKFIT + DEF2-UNIVERSAL-JKFIT
  Basis Set: CC-PVDZ
    Blend: CC-PVDZ
  @DF-UKS Final Energy:   -62.12625852735563
    Total Energy =                        -62.1262585273556311
  @DF-UKS Final Energy:   -62.14098959903162
    Total Energy =                        -62.1409895990316201
  @DF-UKS Final Energy:   -62.14486748587403
    Total Energy =                        -62.1448674858740304
  @DF-UKS Final Energy:   -62.14638364276465
    Total Energy =                        -62.1463836427646541
  @DF-UKS Final Energy:   -62.14671948374635
    Total Energy =                        -62.1467194837463452
  @DF-UKS Final Energy:   -62.14681899972836
    Total Energy =                        -62.1468189997283602
  @DF-UKS Final Energy:   -62.14683052247882
    Total Energy =                        -62.1468305224788224
  Basis Set: (CC-PVDZ AUX)
    Blend: CC-PVDZ-JKFIT + DEF2-UNIVERSAL-JKFIT
  Basis Set: CC-PVDZ
    Blend: CC-PVDZ
  Basis Set: (CC-PVDZ AUX)
    Blend: CC-PVDZ-JKFIT + DEF2-UNIVERSAL-JKFIT
  @DF-UKS Final Energy:   -62.14683200065689
    Total Energy =                        -62.1468320006568931
  Basis Set: CC-PVDZ
    Blend: CC-PVDZ
  Basis Set: (CC-PVDZ AUX)
    Blend: CC-PVDZ-JKFIT + DEF2-UNIVERSAL-JKFIT
  Charge       = -1
  Multiplicity = 4
  Basis Set: CC-PVDZ
    Blend: CC-PVDZ
  Basis Set: (CC-PVDZ AUX)
    Blend: CC-PVDZ-JKFIT + DEF2-UNIVERSAL-JKFIT

    Orbital Energies [Eh]
    ---------------------

    Alpha Occupied:

       1A1   -14.140411     2A1    -1.805950     3A1    -0.522517
       4A1    -0.103582     1B1    -0.086121     1B2    -0.035510
       5A1     0.048039

    Alpha Virtual:

       2B1     0.124042     2B2     0.127608     6A1     0.146825
       7A1     0.229549     3B1     0.248075     3B2     0.253027
       8A1     0.349441     1A2     0.406932     9A1     0.407038
       4B1     0.444190     4B2     0.454441    10A1     0.532892
      11A1     0.986099     5B1     1.026512     5B2     1.061530
      12A1     1.657814    13A1     1.938917     6B1     1.979823
       2A2     1.985594    14A1     1.996725     6B2     2.019255

    Beta Occupied:

       1A1   -14.104611     2A1    -1.800150     3A1    -0.393863
       1B2     0.008981

    Beta Virtual:

       4A1     0.097682     1B1     0.100439     5A1     0.122342
       2B2     0.138091     2B1     0.160064     6A1     0.160964
       7A1     0.262971     3B2     0.267961     3B1     0.279636
       8A1     0.393330     1A2     0.418649     9A1     0.426331
       4B2     0.484795     4B1     0.497075    10A1     0.571088
      11A1     1.081049     5B2     1.092072     5B1     1.117058
      12A1     1.721157    13A1     2.059194     2A2     2.061829
      14A1     2.074926     6B2     2.095326     6B1     2.114153

    Final Occupation by Irrep:
             A1    A2    B1    B2
    DOCC [     3,    0,    0,    1 ]
    SOCC [     2,    0,    1,    0 ]
    NA   [     5,    0,    1,    1 ]
    NB   [     3,    0,    0,    1 ]

  @DF-UKS Final Energy:   -62.14683207291193

   => Energetics <=

    Nuclear Repulsion Energy =              6.0996602451503996
    One-Electron Energy =                 -98.3983156997843196
    Two-Electron Energy =                  37.3097670212856443
    DFT Exchange-Correlation Energy =      -7.1579436395636638
    Empirical Dispersion Energy =           0.0000000000000000
    VV10 Nonlocal Energy =                  0.0000000000000000
    Total Energy =                        -62.1468320729119341

  UHF NO Occupations:
  HONO-2 :    4 A1 1.0000000
  HONO-1 :    1 B1 1.0000000
  HONO-0 :    5 A1 1.0000000
  LUNO+0 :    2 B2 0.0075209
  LUNO+1 :    6 A1 0.0012815
  LUNO+2 :    7 A1 0.0000006
  LUNO+3 :    8 A1 0.0000002

Computation Completed

Properties will be evaluated at   0.000000,   0.000000,   0.000000 [a0]

Properties computed using the SCF density matrix

 Multipole Moments:

 ------------------------------------------------------------------------------------
     Multipole            Electronic (a.u.)      Nuclear  (a.u.)        Total (a.u.)
 ------------------------------------------------------------------------------------

 L = 1.  Multiply by 2.5417464519 to convert [e a0] to [Debye]
 Dipole X            :          0.0000000            0.0000000            0.0000000
 Dipole Y            :          0.0000000            0.0000000            0.0000000
 Dipole Z            :         -1.2442306           -1.1634017           -2.4076323
 Magnitude           :                                                    2.4076323

 ------------------------------------------------------------------------------------

*** tstop() called on Joses-MacBook-Pro-2.local at Thu Jul 17 09:29:18 2025
Module time:
	user time   =       2.73 seconds =       0.05 minutes
	system time =       3.50 seconds =       0.06 minutes
	total time  =          1 seconds =       0.02 minutes
Total time:
	user time   =      45.11 seconds =       0.75 minutes
	system time =      51.47 seconds =       0.86 minutes
	total time  =          9 seconds =       0.15 minutes

*** tstart() called on Joses-MacBook-Pro-2.local
*** at Thu Jul 17 09:29:18 2025

         ------------------------------------------------------------
                                   SCF GRAD
                          Rob Parrish, Justin Turney,
                       Andy Simmonett, and Alex Sokolov
         ------------------------------------------------------------

  ==> Geometry <==

    Molecular point group: c2v
    Full point group: C_inf_v

    Geometry (in Angstrom), charge = -1, multiplicity = 4:

       Center              X                  Y                   Z               Mass
    ------------   -----------------  -----------------  -----------------  -----------------
         LI           0.000000000000     0.000000000000     1.213736789537     7.016003436600
         N            0.000000000000     0.000000000000    -0.608122293992    14.003074004430

  Nuclear repulsion =    6.099660245150400

  ==> Basis Set <==

  Basis Set: CC-PVDZ
    Blend: CC-PVDZ
    Number of shells: 12
    Number of basis functions: 28
    Number of Cartesian functions: 30
    Spherical Harmonics?: true
    Max angular momentum: 2

  ==> DFJKGrad: Density-Fitted SCF Gradients <==

    Gradient:                    1
    J tasked:                  Yes
    K tasked:                  Yes
    wK tasked:                  No
    OpenMP threads:              1
    Integrals threads:           1
    Memory [MiB]:              375
    Schwarz Cutoff:          1E-12
    Fitting Condition:       1E-10

   => Auxiliary Basis Set <=

  Basis Set: (CC-PVDZ AUX)
    Blend: CC-PVDZ-JKFIT + DEF2-UNIVERSAL-JKFIT
    Number of shells: 41
    Number of basis functions: 121
    Number of Cartesian functions: 141
    Spherical Harmonics?: true
    Max angular momentum: 3

  ==> DFT Potential <==

   => LibXC <=

    Version 6.2.2
    S. Lehtola, C. Steigemann, M. J.T. Oliveira, and M. A.L. Marques.,  SoftwareX 7, 1â€“5 (2018) (10.1016/j.softx.2017.11.002)

   => Composite Functional: B3LYP <=

    B3LYP Hyb-GGA Exchange-Correlation Functional

    P. J. Stephens, F. J. Devlin, C. F. Chabalowski, and M. J. Frisch.,  J. Phys. Chem. 98, 11623 (1994) (10.1021/j100096a001)

    Deriv               =              1
    GGA                 =           TRUE
    Meta                =          FALSE

    Exchange Hybrid     =           TRUE
    MP2 Hybrid          =          FALSE

   => Exchange Functionals <=

    0.0800   Slater exchange
    0.7200         Becke 88

   => Exact (HF) Exchange <=

    0.2000               HF

   => Correlation Functionals <=

    0.1900   Vosko, Wilk & Nusair (VWN5_RPA)
    0.8100   Lee, Yang & Parr

   => LibXC Density Thresholds  <==

    XC_HYB_GGA_XC_B3LYP:  1.00E-15

   => Molecular Quadrature <=

    Radial Scheme          =       TREUTLER
    Pruning Scheme         =           NONE
    Nuclear Scheme         =       TREUTLER

    Blocking Scheme        =         OCTREE
    BS radius alpha        =              1
    Pruning alpha          =              1
    Radial Points          =             75
    Spherical Points       =            302
    Total Points           =          44287
    Total Blocks           =            427
    Max Points             =            255
    Max Functions          =             28
    Weights Tolerance      =       1.00E-15

  -Total Gradient:
     Atom            X                  Y                   Z
    ------   -----------------  -----------------  -----------------
       1        0.000000000000     0.000000000000     0.000010883734
       2       -0.000000000000     0.000000000000     0.000038785127

*** tstop() called on Joses-MacBook-Pro-2.local at Thu Jul 17 09:29:18 2025
Module time:
	user time   =       0.56 seconds =       0.01 minutes
	system time =       1.16 seconds =       0.02 minutes
	total time  =          0 seconds =       0.00 minutes
Total time:
	user time   =      45.67 seconds =       0.76 minutes
	system time =      52.63 seconds =       0.88 minutes
	total time  =          9 seconds =       0.15 minutes

    			-----------------------------------------

    			 OPTKING 3.0: for geometry optimizations

    			     By R.A. King, Bethel University

    			        with contributions from

    			    A.V. Copan, J. Cayton, A. Heide

    			-----------------------------------------

	                            ===> Fragment 1 <==

	 Z (Atomic Numbers)          Masses                          Geom
	       3.000000             7.016003          0.00000000  0.00000000  2.29363012
	       7.000000            14.003074          0.00000000  0.00000000 -1.14918459

	 - Coordinate -           - BOHR/RAD -       - ANG/DEG -
	 R(1,2)           =         3.442815           1.821859

	        --- Internal Coordinate Step in ANG or DEG, aJ/ANG or AJ/DEG ---
	-------------------------------------------------------------------------------
	           Coordinate      Previous         Force          Change          New
	           ----------      --------        ------          ------        ------
	               R(1,2)       1.82186        0.00011        0.00009       1.82195
	-------------------------------------------------------------------------------

	                                 ==> Convergence Check <==

	Measures of convergence in internal coordinates in au.

	Criteria marked as inactive (o), active & met (*), and active & unmet ( ).

	----------------------------------------------------------------------------------------------
	   Step    Total Energy     Delta E     Max Force     RMS Force      Max Disp      RMS Disp
	----------------------------------------------------------------------------------------------
	  Convergence Criteria     1.00e-06 *    3.00e-04 *             o    1.20e-03 *             o
	----------------------------------------------------------------------------------------------
	    11     -62.14683207   -7.23e-08 *    1.40e-05 *    1.40e-05 o    1.71e-04 *    1.71e-04 o  ~
	----------------------------------------------------------------------------------------------

Next Geometry in Ang
	Fragment 1 (Ang)

	   Li   0.0000000000   0.0000000000   1.2137821484
	    N   0.0000000000   0.0000000000  -0.6081676529

    Final optimized geometry and variables:
    Molecular point group: c2v
    Full point group: C_inf_v

    Geometry (in Angstrom), charge = -1, multiplicity = 4:

    LI           0.000000000000     0.000000000000     1.213736789537
    N            0.000000000000     0.000000000000    -0.608122293992

    Psi4 stopped on: Thursday, 17 July 2025 09:29AM
    Psi4 wall time for execution: 0:00:09.87

*** Psi4 exiting successfully. Buy a developer a beer!
