                               Psi4 1.9.1 release

  ==> Input File <==

--------------------------------------------------------------------------
molecule {
-1 4
Mg   0.00000        0.60000        0.00000
S   0.00000       -0.60000        0.00000
}

set {
basis              cc-pvdz
reference          uks
maxiter            500
geom_maxiter       500
DAMPING_PERCENTAGE 1
guess              SAP
}

optimize('b3lyp')
--------------------------------------------------------------------------

    Molecular point group: c2v
  Charge       = -1
  Multiplicity = 4
  Basis Set: CC-PVDZ
    Blend: CC-PVDZ
  Basis Set: (CC-PVDZ AUX)
    Blend: CC-PVDZ-JKFIT + DEF2-UNIVERSAL-JKFIT
  @DF-UKS Final Energy:  -597.12607450308883
    Total Energy =                       -597.1260745030888302
 Dipole X            :          0.0000000            0.0000000            0.0000000
 Dipole Y            :          0.0000000            0.0000000            0.0000000
 Dipole Z            :         -1.9185381           -0.0038828           -1.9224209
 Magnitude           :                                                    1.9224209
    Molecular point group: c2v
  Basis Set: CC-PVDZ
    Blend: CC-PVDZ
  Basis Set: (CC-PVDZ AUX)
    Blend: CC-PVDZ-JKFIT + DEF2-UNIVERSAL-JKFIT
  Basis Set: CC-PVDZ
    Blend: CC-PVDZ
  Basis Set: (CC-PVDZ AUX)
    Blend: CC-PVDZ-JKFIT + DEF2-UNIVERSAL-JKFIT
  @DF-UKS Final Energy:  -597.14433859248368
    Total Energy =                       -597.1443385924835638
  Basis Set: CC-PVDZ
    Blend: CC-PVDZ
  Basis Set: (CC-PVDZ AUX)
    Blend: CC-PVDZ-JKFIT + DEF2-UNIVERSAL-JKFIT
  Basis Set: CC-PVDZ
    Blend: CC-PVDZ
  @DF-UKS Final Energy:  -597.17945537413311
    Total Energy =                       -597.1794553741331129
  @DF-UKS Final Energy:  -597.30531041967856
    Total Energy =                       -597.3053104196785625
  @DF-UKS Final Energy:  -597.80897338021123
    Total Energy =                       -597.8089733802112278
  @DF-UKS Final Energy:  -598.01447712366746
    Total Energy =                       -598.0144771236673478
  @DF-UKS Final Energy:  -598.12505385655709
    Total Energy =                       -598.1250538565570878
  @DF-UKS Final Energy:  -598.17774305037153
    Total Energy =                       -598.1777430503715323
  @DF-UKS Final Energy:  -598.20294747698529
    Total Energy =                       -598.2029474769852868
  @DF-UKS Final Energy:  -598.21362489317050
    Total Energy =                       -598.2136248931705040
  @DF-UKS Final Energy:  -598.21740953847336
    Total Energy =                       -598.2174095384733619
  @DF-UKS Final Energy:  -598.21822447343197
    Total Energy =                       -598.2182244734318601
  @DF-UKS Final Energy:  -598.21846257316588
    Total Energy =                       -598.2184625731658798
  @DF-UKS Final Energy:  -598.21849286323754
    Total Energy =                       -598.2184928632374294
  Basis Set: (CC-PVDZ AUX)
    Blend: CC-PVDZ-JKFIT + DEF2-UNIVERSAL-JKFIT
  Basis Set: CC-PVDZ
    Blend: CC-PVDZ
  Basis Set: (CC-PVDZ AUX)
    Blend: CC-PVDZ-JKFIT + DEF2-UNIVERSAL-JKFIT
  @DF-UKS Final Energy:  -598.21849688349005
    Total Energy =                       -598.2184968834900474
  Basis Set: CC-PVDZ
    Blend: CC-PVDZ
  Basis Set: (CC-PVDZ AUX)
    Blend: CC-PVDZ-JKFIT + DEF2-UNIVERSAL-JKFIT
  Charge       = -1
  Multiplicity = 4
  Basis Set: CC-PVDZ
    Blend: CC-PVDZ
  Basis Set: (CC-PVDZ AUX)
    Blend: CC-PVDZ-JKFIT + DEF2-UNIVERSAL-JKFIT

    Orbital Energies [Eh]
    ---------------------

    Alpha Occupied:

       1A1   -88.661980     2A1   -46.700563     3A1    -7.721757
       4A1    -5.694836     1B2    -5.677381     1B1    -5.676655
       5A1    -2.978876     2B2    -1.723392     6A1    -1.722902
       2B1    -1.721003     7A1    -0.466512     8A1    -0.141767
       3B1    -0.055635     3B2    -0.055585     9A1    -0.036737
       4B1     0.069840

    Alpha Virtual:

       4B2     0.111844    10A1     0.158375    11A1     0.228396
       5B1     0.283962     5B2     0.290982    12A1     0.321212
       6B1     0.449828     6B2     0.452480     1A2     0.452586
      13A1     0.456005    14A1     0.498539    15A1     0.721309
       7B2     0.725098     7B1     0.727833    16A1     0.805931
       2A2     0.835052    17A1     0.835122     8B2     0.871867
       8B1     0.872635    18A1     1.164259

    Beta Occupied:

       1A1   -88.656911     2A1   -46.696785     3A1    -7.716481
       4A1    -5.679175     1B2    -5.674312     1B1    -5.672422
       5A1    -2.972670     2B2    -1.719708     6A1    -1.717532
       2B1    -1.714366     7A1    -0.419752     3B2    -0.042847
       3B1    -0.036536

    Beta Virtual:

       8A1    -0.016061     9A1     0.075806     4B2     0.139219
       4B1     0.154812    10A1     0.184325    11A1     0.254404
       5B2     0.311707     5B1     0.326824    12A1     0.362602
       6B2     0.495757    13A1     0.505280     1A2     0.506086
       6B1     0.511592    14A1     0.546975     7B2     0.733694
       7B1     0.738913    15A1     0.766646    16A1     0.841626
       2A2     0.844751    17A1     0.845853     8B2     0.913496
       8B1     0.920182    18A1     1.198019

    Final Occupation by Irrep:
             A1    A2    B1    B2
    DOCC [     7,    0,    3,    3 ]
    SOCC [     2,    0,    1,    0 ]
    NA   [     9,    0,    4,    3 ]
    NB   [     7,    0,    3,    3 ]

  @DF-UKS Final Energy:  -598.21849741703966

   => Energetics <=

    Nuclear Repulsion Energy =             40.2206033481741514
    One-Electron Energy =                -914.8985027852504572
    Two-Electron Energy =                 310.5667300588796707
    DFT Exchange-Correlation Energy =     -34.1073280388429936
    Empirical Dispersion Energy =           0.0000000000000000
    VV10 Nonlocal Energy =                  0.0000000000000000
    Total Energy =                       -598.2184974170396572

  UHF NO Occupations:
  HONO-2 :    8 A1 1.0000000
  HONO-1 :    9 A1 1.0000000
  HONO-0 :    4 B1 1.0000000
  LUNO+0 :   10 A1 0.0010130
  LUNO+1 :    5 B1 0.0003000
  LUNO+2 :    4 B2 0.0002119
  LUNO+3 :   11 A1 0.0000003

Computation Completed

Properties will be evaluated at   0.000000,   0.000000,   0.000000 [a0]

Properties computed using the SCF density matrix

 Multipole Moments:

 ------------------------------------------------------------------------------------
     Multipole            Electronic (a.u.)      Nuclear  (a.u.)        Total (a.u.)
 ------------------------------------------------------------------------------------

 L = 1.  Multiply by 2.5417464519 to convert [e a0] to [Debye]
 Dipole X            :          0.0000000            0.0000000            0.0000000
 Dipole Y            :          0.0000000            0.0000000            0.0000000
 Dipole Z            :         -0.7693470           -0.0081738           -0.7775208
 Magnitude           :                                                    0.7775208

 ------------------------------------------------------------------------------------

*** tstop() called on Joses-MacBook-Pro-2.local at Thu Jul 17 11:28:30 2025
Module time:
	user time   =       8.38 seconds =       0.14 minutes
	system time =       2.40 seconds =       0.04 minutes
	total time  =          1 seconds =       0.02 minutes
Total time:
	user time   =     182.39 seconds =       3.04 minutes
	system time =      63.06 seconds =       1.05 minutes
	total time  =         23 seconds =       0.38 minutes

*** tstart() called on Joses-MacBook-Pro-2.local
*** at Thu Jul 17 11:28:30 2025

         ------------------------------------------------------------
                                   SCF GRAD
                          Rob Parrish, Justin Turney,
                       Andy Simmonett, and Alex Sokolov
         ------------------------------------------------------------

  ==> Geometry <==

    Molecular point group: c2v
    Full point group: C_inf_v

    Geometry (in Angstrom), charge = -1, multiplicity = 4:

       Center              X                  Y                   Z               Mass
    ------------   -----------------  -----------------  -----------------  -----------------
         MG           0.000000000000     0.000000000000     1.443342010691    23.985041697000
         S            0.000000000000     0.000000000000    -1.082776843596    31.972071174400

  Nuclear repulsion =   40.220603348174151

  ==> Basis Set <==

  Basis Set: CC-PVDZ
    Blend: CC-PVDZ
    Number of shells: 16
    Number of basis functions: 36
    Number of Cartesian functions: 38
    Spherical Harmonics?: true
    Max angular momentum: 2

  ==> DFJKGrad: Density-Fitted SCF Gradients <==

    Gradient:                    1
    J tasked:                  Yes
    K tasked:                  Yes
    wK tasked:                  No
    OpenMP threads:              1
    Integrals threads:           1
    Memory [MiB]:              375
    Schwarz Cutoff:          1E-12
    Fitting Condition:       1E-10

   => Auxiliary Basis Set <=

  Basis Set: (CC-PVDZ AUX)
    Blend: CC-PVDZ-JKFIT + DEF2-UNIVERSAL-JKFIT
    Number of shells: 70
    Number of basis functions: 224
    Number of Cartesian functions: 267
    Spherical Harmonics?: true
    Max angular momentum: 4

  ==> DFT Potential <==

   => LibXC <=

    Version 6.2.2
    S. Lehtola, C. Steigemann, M. J.T. Oliveira, and M. A.L. Marques.,  SoftwareX 7, 1â€“5 (2018) (10.1016/j.softx.2017.11.002)

   => Composite Functional: B3LYP <=

    B3LYP Hyb-GGA Exchange-Correlation Functional

    P. J. Stephens, F. J. Devlin, C. F. Chabalowski, and M. J. Frisch.,  J. Phys. Chem. 98, 11623 (1994) (10.1021/j100096a001)

    Deriv               =              1
    GGA                 =           TRUE
    Meta                =          FALSE

    Exchange Hybrid     =           TRUE
    MP2 Hybrid          =          FALSE

   => Exchange Functionals <=

    0.0800   Slater exchange
    0.7200         Becke 88

   => Exact (HF) Exchange <=

    0.2000               HF

   => Correlation Functionals <=

    0.1900   Vosko, Wilk & Nusair (VWN5_RPA)
    0.8100   Lee, Yang & Parr

   => LibXC Density Thresholds  <==

    XC_HYB_GGA_XC_B3LYP:  1.00E-15

   => Molecular Quadrature <=

    Radial Scheme          =       TREUTLER
    Pruning Scheme         =           NONE
    Nuclear Scheme         =       TREUTLER

    Blocking Scheme        =         OCTREE
    BS radius alpha        =              1
    Pruning alpha          =              1
    Radial Points          =             75
    Spherical Points       =            302
    Total Points           =          43021
    Total Blocks           =            418
    Max Points             =            252
    Max Functions          =             36
    Weights Tolerance      =       1.00E-15

  -Total Gradient:
     Atom            X                  Y                   Z
    ------   -----------------  -----------------  -----------------
       1        0.000000000000     0.000000000000    -0.000019706324
       2        0.000000000000     0.000000000000     0.000081117852

*** tstop() called on Joses-MacBook-Pro-2.local at Thu Jul 17 11:28:30 2025
Module time:
	user time   =       2.93 seconds =       0.05 minutes
	system time =       1.06 seconds =       0.02 minutes
	total time  =          0 seconds =       0.00 minutes
Total time:
	user time   =     185.32 seconds =       3.09 minutes
	system time =      64.13 seconds =       1.07 minutes
	total time  =         23 seconds =       0.38 minutes

    			-----------------------------------------

    			 OPTKING 3.0: for geometry optimizations

    			     By R.A. King, Bethel University

    			        with contributions from

    			    A.V. Copan, J. Cayton, A. Heide

    			-----------------------------------------

	                            ===> Fragment 1 <==

	 Z (Atomic Numbers)          Masses                          Geom
	      12.000000            23.985042          0.00000000  0.00000000  2.72752111
	      16.000000            31.972071          0.00000000  0.00000000 -2.04615169

	 - Coordinate -           - BOHR/RAD -       - ANG/DEG -
	 R(1,2)           =         4.773673           2.526119

	        --- Internal Coordinate Step in ANG or DEG, aJ/ANG or AJ/DEG ---
	-------------------------------------------------------------------------------
	           Coordinate      Previous         Force          Change          New
	           ----------      --------        ------          ------        ------
	               R(1,2)       2.52612        0.00042        0.00065       2.52677
	-------------------------------------------------------------------------------

	                                 ==> Convergence Check <==

	Measures of convergence in internal coordinates in au.

	Criteria marked as inactive (o), active & met (*), and active & unmet ( ).

	----------------------------------------------------------------------------------------------
	   Step    Total Energy     Delta E     Max Force     RMS Force      Max Disp      RMS Disp
	----------------------------------------------------------------------------------------------
	  Convergence Criteria     1.00e-06 *    3.00e-04 *             o    1.20e-03 *             o
	----------------------------------------------------------------------------------------------
	    16    -598.21849742   -5.34e-07 *    5.04e-05 *    5.04e-05 o    1.22e-03      1.22e-03 o  ~
	----------------------------------------------------------------------------------------------

Next Geometry in Ang
	Fragment 1 (Ang)

	   Mg   0.0000000000   0.0000000000   1.4436651540
	    S   0.0000000000   0.0000000000  -1.0830999869

    Final optimized geometry and variables:
    Molecular point group: c2v
    Full point group: C_inf_v

    Geometry (in Angstrom), charge = -1, multiplicity = 4:

    MG           0.000000000000     0.000000000000     1.443342010691
    S            0.000000000000     0.000000000000    -1.082776843596

    Psi4 stopped on: Thursday, 17 July 2025 11:28AM
    Psi4 wall time for execution: 0:00:24.37

*** Psi4 exiting successfully. Buy a developer a beer!
