                               Psi4 1.9.1 release

  ==> Input File <==

--------------------------------------------------------------------------
molecule {
-1 4
C   0.00000        0.60000        0.00000
Mg   0.00000       -0.60000        0.00000
}

set {
basis              cc-pvdz
reference          uks
maxiter            500
geom_maxiter       500
DAMPING_PERCENTAGE 1
guess              SAP
}

optimize('b3lyp')
--------------------------------------------------------------------------

    Molecular point group: c2v
  Charge       = -1
  Multiplicity = 4
  Basis Set: CC-PVDZ
    Blend: CC-PVDZ
  Basis Set: (CC-PVDZ AUX)
    Blend: CC-PVDZ-JKFIT + DEF2-UNIVERSAL-JKFIT
  @DF-UKS Final Energy:  -237.47605370411205
    Total Energy =                       -237.4760537041120472
 Dipole X            :          0.0000000            0.0000000            0.0000000
 Dipole Y            :          0.0000000            0.0000000            0.0000000
 Dipole Z            :         -0.2448880           -0.0056558           -0.2505438
 Magnitude           :                                                    0.2505438
    Molecular point group: c2v
  Basis Set: CC-PVDZ
    Blend: CC-PVDZ
  Basis Set: (CC-PVDZ AUX)
    Blend: CC-PVDZ-JKFIT + DEF2-UNIVERSAL-JKFIT
  Basis Set: CC-PVDZ
    Blend: CC-PVDZ
  Basis Set: (CC-PVDZ AUX)
    Blend: CC-PVDZ-JKFIT + DEF2-UNIVERSAL-JKFIT
  @DF-UKS Final Energy:  -237.69933859230943
    Total Energy =                       -237.6993385923094309
  Basis Set: CC-PVDZ
    Blend: CC-PVDZ
  Basis Set: (CC-PVDZ AUX)
    Blend: CC-PVDZ-JKFIT + DEF2-UNIVERSAL-JKFIT
  Basis Set: CC-PVDZ
    Blend: CC-PVDZ
  @DF-UKS Final Energy:  -237.85479699220443
    Total Energy =                       -237.8547969922044274
  @DF-UKS Final Energy:  -237.93054000679672
    Total Energy =                       -237.9305400067967184
  @DF-UKS Final Energy:  -237.95961675368034
    Total Energy =                       -237.9596167536803364
  @DF-UKS Final Energy:  -238.01673394261701
    Total Energy =                       -238.0167339426170088
  @DF-UKS Final Energy:  -238.03004317817866
    Total Energy =                       -238.0300431781786585
  @DF-UKS Final Energy:  -238.03351221788057
    Total Energy =                       -238.0335122178805705
  @DF-UKS Final Energy:  -238.03372103275882
    Total Energy =                       -238.0337210327588195
  @DF-UKS Final Energy:  -238.03374063429433
    Total Energy =                       -238.0337406342943325
  Basis Set: (CC-PVDZ AUX)
    Blend: CC-PVDZ-JKFIT + DEF2-UNIVERSAL-JKFIT
  Basis Set: CC-PVDZ
    Blend: CC-PVDZ
  Basis Set: (CC-PVDZ AUX)
    Blend: CC-PVDZ-JKFIT + DEF2-UNIVERSAL-JKFIT
  @DF-UKS Final Energy:  -238.03374259417976
    Total Energy =                       -238.0337425941797562
  Basis Set: CC-PVDZ
    Blend: CC-PVDZ
  Basis Set: (CC-PVDZ AUX)
    Blend: CC-PVDZ-JKFIT + DEF2-UNIVERSAL-JKFIT
  Charge       = -1
  Multiplicity = 4
  Basis Set: CC-PVDZ
    Blend: CC-PVDZ
  Basis Set: (CC-PVDZ AUX)
    Blend: CC-PVDZ-JKFIT + DEF2-UNIVERSAL-JKFIT

    Orbital Energies [Eh]
    ---------------------

    Alpha Occupied:

       1A1   -46.610359     2A1    -9.997551     3A1    -2.893618
       1B1    -1.638118     1B2    -1.638118     4A1    -1.635960
       5A1    -0.347986     6A1    -0.049559     2B2    -0.009418
       2B1    -0.009418     7A1     0.031291

    Alpha Virtual:

       3B2     0.145492     3B1     0.145492     8A1     0.186307
       9A1     0.267913     4B1     0.332781     4B2     0.332781
      10A1     0.409492     1A2     0.510596    11A1     0.510596
       5B1     0.539179     5B2     0.539179    12A1     0.630958
       6B2     0.735097     6B1     0.735097    13A1     0.791142
      14A1     1.032831    15A1     1.374884     2A2     1.374899
       7B1     1.461504     7B2     1.461504    16A1     1.755038

    Beta Occupied:

       1A1   -46.609791     2A1    -9.966996     3A1    -2.892955
       1B1    -1.637508     1B2    -1.637508     4A1    -1.633842
       5A1    -0.220253     6A1     0.007861

    Beta Virtual:

       2B2     0.115530     2B1     0.115530     7A1     0.136604
       3B2     0.198372     3B1     0.198372     8A1     0.202734
       9A1     0.276333     4B1     0.336485     4B2     0.336485
      10A1     0.433040     1A2     0.514518    11A1     0.514518
       5B1     0.565019     5B2     0.565019    12A1     0.670264
       6B2     0.807464     6B1     0.807464    13A1     0.852400
      14A1     1.103410    15A1     1.478712     2A2     1.478730
       7B1     1.555360     7B2     1.555360    16A1     1.835299

    Final Occupation by Irrep:
             A1    A2    B1    B2
    DOCC [     6,    0,    1,    1 ]
    SOCC [     1,    0,    1,    1 ]
    NA   [     7,    0,    2,    2 ]
    NB   [     6,    0,    1,    1 ]

  @DF-UKS Final Energy:  -238.03374278893807

   => Energetics <=

    Nuclear Repulsion Energy =             17.2675156477485565
    One-Electron Energy =                -368.5309728365583624
    Two-Electron Energy =                 130.9485829993778339
    DFT Exchange-Correlation Energy =     -17.7188685995060879
    Empirical Dispersion Energy =           0.0000000000000000
    VV10 Nonlocal Energy =                  0.0000000000000000
    Total Energy =                       -238.0337427889380706

  UHF NO Occupations:
  HONO-2 :    7 A1 1.0000000
  HONO-1 :    2 B2 1.0000000
  HONO-0 :    2 B1 1.0000000
  LUNO+0 :    8 A1 0.0018720
  LUNO+1 :    9 A1 0.0011672
  LUNO+2 :   10 A1 0.0000003
  LUNO+3 :   11 A1 0.0000001

Computation Completed

Properties will be evaluated at   0.000000,   0.000000,   0.000000 [a0]

Properties computed using the SCF density matrix

 Multipole Moments:

 ------------------------------------------------------------------------------------
     Multipole            Electronic (a.u.)      Nuclear  (a.u.)        Total (a.u.)
 ------------------------------------------------------------------------------------

 L = 1.  Multiply by 2.5417464519 to convert [e a0] to [Debye]
 Dipole X            :          0.0000000            0.0000000            0.0000000
 Dipole Y            :          0.0000000            0.0000000            0.0000000
 Dipole Z            :          0.4293251           -0.0103995            0.4189255
 Magnitude           :                                                    0.4189255

 ------------------------------------------------------------------------------------

*** tstop() called on Joses-MacBook-Pro-2.local at Thu Jul 17 10:19:12 2025
Module time:
	user time   =       3.66 seconds =       0.06 minutes
	system time =       2.89 seconds =       0.05 minutes
	total time  =          1 seconds =       0.02 minutes
Total time:
	user time   =      73.34 seconds =       1.22 minutes
	system time =      66.08 seconds =       1.10 minutes
	total time  =         14 seconds =       0.23 minutes

*** tstart() called on Joses-MacBook-Pro-2.local
*** at Thu Jul 17 10:19:12 2025

         ------------------------------------------------------------
                                   SCF GRAD
                          Rob Parrish, Justin Turney,
                       Andy Simmonett, and Alex Sokolov
         ------------------------------------------------------------

  ==> Geometry <==

    Molecular point group: c2v
    Full point group: C_inf_v

    Geometry (in Angstrom), charge = -1, multiplicity = 4:

       Center              X                  Y                   Z               Mass
    ------------   -----------------  -----------------  -----------------  -----------------
         C            0.000000000000     0.000000000000     1.470693721934    12.000000000000
         MG           0.000000000000     0.000000000000    -0.735805461010    23.985041697000

  Nuclear repulsion =   17.267515647748557

  ==> Basis Set <==

  Basis Set: CC-PVDZ
    Blend: CC-PVDZ
    Number of shells: 14
    Number of basis functions: 32
    Number of Cartesian functions: 34
    Spherical Harmonics?: true
    Max angular momentum: 2

  ==> DFJKGrad: Density-Fitted SCF Gradients <==

    Gradient:                    1
    J tasked:                  Yes
    K tasked:                  Yes
    wK tasked:                  No
    OpenMP threads:              1
    Integrals threads:           1
    Memory [MiB]:              375
    Schwarz Cutoff:          1E-12
    Fitting Condition:       1E-10

   => Auxiliary Basis Set <=

  Basis Set: (CC-PVDZ AUX)
    Blend: CC-PVDZ-JKFIT + DEF2-UNIVERSAL-JKFIT
    Number of shells: 58
    Number of basis functions: 182
    Number of Cartesian functions: 218
    Spherical Harmonics?: true
    Max angular momentum: 4

  ==> DFT Potential <==

   => LibXC <=

    Version 6.2.2
    S. Lehtola, C. Steigemann, M. J.T. Oliveira, and M. A.L. Marques.,  SoftwareX 7, 1â€“5 (2018) (10.1016/j.softx.2017.11.002)

   => Composite Functional: B3LYP <=

    B3LYP Hyb-GGA Exchange-Correlation Functional

    P. J. Stephens, F. J. Devlin, C. F. Chabalowski, and M. J. Frisch.,  J. Phys. Chem. 98, 11623 (1994) (10.1021/j100096a001)

    Deriv               =              1
    GGA                 =           TRUE
    Meta                =          FALSE

    Exchange Hybrid     =           TRUE
    MP2 Hybrid          =          FALSE

   => Exchange Functionals <=

    0.0800   Slater exchange
    0.7200         Becke 88

   => Exact (HF) Exchange <=

    0.2000               HF

   => Correlation Functionals <=

    0.1900   Vosko, Wilk & Nusair (VWN5_RPA)
    0.8100   Lee, Yang & Parr

   => LibXC Density Thresholds  <==

    XC_HYB_GGA_XC_B3LYP:  1.00E-15

   => Molecular Quadrature <=

    Radial Scheme          =       TREUTLER
    Pruning Scheme         =           NONE
    Nuclear Scheme         =       TREUTLER

    Blocking Scheme        =         OCTREE
    BS radius alpha        =              1
    Pruning alpha          =              1
    Radial Points          =             75
    Spherical Points       =            302
    Total Points           =          43484
    Total Blocks           =            415
    Max Points             =            255
    Max Functions          =             32
    Weights Tolerance      =       1.00E-15

  -Total Gradient:
     Atom            X                  Y                   Z
    ------   -----------------  -----------------  -----------------
       1        0.000000000000    -0.000000000000    -0.000066747365
       2        0.000000000000    -0.000000000000     0.000035284942

*** tstop() called on Joses-MacBook-Pro-2.local at Thu Jul 17 10:19:12 2025
Module time:
	user time   =       0.88 seconds =       0.01 minutes
	system time =       1.91 seconds =       0.03 minutes
	total time  =          0 seconds =       0.00 minutes
Total time:
	user time   =      74.22 seconds =       1.24 minutes
	system time =      67.99 seconds =       1.13 minutes
	total time  =         14 seconds =       0.23 minutes

    			-----------------------------------------

    			 OPTKING 3.0: for geometry optimizations

    			     By R.A. King, Bethel University

    			        with contributions from

    			    A.V. Copan, J. Cayton, A. Heide

    			-----------------------------------------

	                            ===> Fragment 1 <==

	 Z (Atomic Numbers)          Masses                          Geom
	       6.000000            12.000000          0.00000000  0.00000000  2.77920835
	      12.000000            23.985042          0.00000000  0.00000000 -1.39047080

	 - Coordinate -           - BOHR/RAD -       - ANG/DEG -
	 R(1,2)           =         4.169679           2.206499

	        --- Internal Coordinate Step in ANG or DEG, aJ/ANG or AJ/DEG ---
	-------------------------------------------------------------------------------
	           Coordinate      Previous         Force          Change          New
	           ----------      --------        ------          ------        ------
	               R(1,2)       2.20650        0.00042        0.00045       2.20695
	-------------------------------------------------------------------------------

	                                 ==> Convergence Check <==

	Measures of convergence in internal coordinates in au.

	Criteria marked as inactive (o), active & met (*), and active & unmet ( ).

	----------------------------------------------------------------------------------------------
	   Step    Total Energy     Delta E     Max Force     RMS Force      Max Disp      RMS Disp
	----------------------------------------------------------------------------------------------
	  Convergence Criteria     1.00e-06 *    3.00e-04 *             o    1.20e-03 *             o
	----------------------------------------------------------------------------------------------
	    12    -238.03374279   -1.95e-07 *    5.10e-05 *    5.10e-05 o    8.48e-04 *    8.48e-04 o  ~
	----------------------------------------------------------------------------------------------

Next Geometry in Ang
	Fragment 1 (Ang)

	    C   0.0000000000   0.0000000000   1.4709180562
	   Mg   0.0000000000   0.0000000000  -0.7360297953

    Final optimized geometry and variables:
    Molecular point group: c2v
    Full point group: C_inf_v

    Geometry (in Angstrom), charge = -1, multiplicity = 4:

    C            0.000000000000     0.000000000000     1.470693721934
    MG           0.000000000000     0.000000000000    -0.735805461010

    Psi4 stopped on: Thursday, 17 July 2025 10:19AM
    Psi4 wall time for execution: 0:00:14.88

*** Psi4 exiting successfully. Buy a developer a beer!
