                               Psi4 1.9.1 release

  ==> Input File <==

--------------------------------------------------------------------------
molecule {
-1 4
Ne   0.00000        0.60000        0.00000
Mg   0.00000       -0.60000        0.00000
}

set {
basis              cc-pvdz
reference          uks
maxiter            500
geom_maxiter       500
DAMPING_PERCENTAGE 1
guess              SAP
}

optimize('b3lyp')
--------------------------------------------------------------------------

    Molecular point group: c2v
  Charge       = -1
  Multiplicity = 4
  Basis Set: CC-PVDZ
    Blend: CC-PVDZ
  Basis Set: (CC-PVDZ AUX)
    Blend: CC-PVDZ-JKFIT + DEF2-UNIVERSAL-JKFIT
  @DF-UKS Final Energy:  -328.43786707697939
    Total Energy =                       -328.4378670769793871
 Dipole X            :          0.0000000            0.0000000            0.0000000
 Dipole Y            :          0.0000000            0.0000000            0.0000000
 Dipole Z            :          1.8432069           -0.0030353            1.8401715
 Magnitude           :                                                    1.8401715
    Molecular point group: c2v
  Basis Set: CC-PVDZ
    Blend: CC-PVDZ
  Basis Set: (CC-PVDZ AUX)
    Blend: CC-PVDZ-JKFIT + DEF2-UNIVERSAL-JKFIT
  Basis Set: CC-PVDZ
    Blend: CC-PVDZ
  Basis Set: (CC-PVDZ AUX)
    Blend: CC-PVDZ-JKFIT + DEF2-UNIVERSAL-JKFIT
  @DF-UKS Final Energy:  -328.67074970148553
    Total Energy =                       -328.6707497014854766
  Basis Set: CC-PVDZ
    Blend: CC-PVDZ
  Basis Set: (CC-PVDZ AUX)
    Blend: CC-PVDZ-JKFIT + DEF2-UNIVERSAL-JKFIT
  Basis Set: CC-PVDZ
    Blend: CC-PVDZ
  @DF-UKS Final Energy:  -328.77470940550160
    Total Energy =                       -328.7747094055015964
  @DF-UKS Final Energy:  -328.83263599125610
    Total Energy =                       -328.8326359912561543
  @DF-UKS Final Energy:  -328.85652578507319
    Total Energy =                       -328.8565257850731882
  @DF-UKS Final Energy:  -328.87314272307509
    Total Energy =                       -328.8731427230750910
  @DF-UKS Final Energy:  -328.88403196546989
    Total Energy =                       -328.8840319654698874
  @DF-UKS Final Energy:  -328.89021679924963
    Total Energy =                       -328.8902167992496288
  @DF-UKS Final Energy:  -328.89390829900793
    Total Energy =                       -328.8939082990079328
  @DF-UKS Final Energy:  -328.89614721427046
    Total Energy =                       -328.8961472142705134
  @DF-UKS Final Energy:  -328.89744378188357
    Total Energy =                       -328.8974437818835668
  @DF-UKS Final Energy:  -328.89814977253667
    Total Energy =                       -328.8981497725366694
  @DF-UKS Final Energy:  -328.89850034612982
    Total Energy =                       -328.8985003461298788
  @DF-UKS Final Energy:  -328.89864457000681
    Total Energy =                       -328.8986445700067520
  @DF-UKS Final Energy:  -328.89868544238254
    Total Energy =                       -328.8986854423825434
  Basis Set: (CC-PVDZ AUX)
    Blend: CC-PVDZ-JKFIT + DEF2-UNIVERSAL-JKFIT
  Basis Set: CC-PVDZ
    Blend: CC-PVDZ
  Basis Set: (CC-PVDZ AUX)
    Blend: CC-PVDZ-JKFIT + DEF2-UNIVERSAL-JKFIT
  @DF-UKS Final Energy:  -328.89869071182738
    Total Energy =                       -328.8986907118273848
  Basis Set: CC-PVDZ
    Blend: CC-PVDZ
  Basis Set: (CC-PVDZ AUX)
    Blend: CC-PVDZ-JKFIT + DEF2-UNIVERSAL-JKFIT
  Charge       = -1
  Multiplicity = 4
  Basis Set: CC-PVDZ
    Blend: CC-PVDZ
  Basis Set: (CC-PVDZ AUX)
    Blend: CC-PVDZ-JKFIT + DEF2-UNIVERSAL-JKFIT

    Orbital Energies [Eh]
    ---------------------

    Alpha Occupied:

       1A1   -46.676298     2A1   -30.856014     3A1    -2.955448
       4A1    -1.700598     1B2    -1.698131     1B1    -1.698131
       5A1    -1.319495     6A1    -0.432011     2B1    -0.426490
       2B2    -0.426490     7A1    -0.057338     3B1     0.064955
       3B2     0.064955

    Alpha Virtual:

       8A1     0.117396     9A1     0.232341     4B2     0.296589
       4B1     0.296589    10A1     0.303818    11A1     0.464665
       1A2     0.464667     5B2     0.467521     5B1     0.467521
      12A1     0.486330     6B1     1.491172     6B2     1.491172
      13A1     1.559841    14A1     2.084557     7B1     4.837360
       7B2     4.837360     2A2     4.839073    15A1     4.839655
      16A1     4.840837

    Beta Occupied:

       1A1   -46.672160     2A1   -30.855319     3A1    -2.948662
       4A1    -1.696702     1B2    -1.691426     1B1    -1.691426
       5A1    -1.318221     6A1    -0.430423     2B1    -0.425419
       2B2    -0.425419

    Beta Virtual:

       7A1     0.056139     8A1     0.154247     3B1     0.164018
       3B2     0.164018     9A1     0.267261    10A1     0.326813
       4B2     0.345667     4B1     0.345667     5B2     0.522077
       5B1     0.522077    11A1     0.524353     1A2     0.541697
      12A1     0.541701     6B1     1.492210     6B2     1.492210
      13A1     1.562351    14A1     2.087883     7B1     4.838409
       7B2     4.838409     2A2     4.839903    15A1     4.840484
      16A1     4.841972

    Final Occupation by Irrep:
             A1    A2    B1    B2
    DOCC [     6,    0,    2,    2 ]
    SOCC [     1,    0,    1,    1 ]
    NA   [     7,    0,    3,    3 ]
    NB   [     6,    0,    2,    2 ]

  @DF-UKS Final Energy:  -328.89869140226477

   => Energetics <=

    Nuclear Repulsion Energy =             22.5373359654860472
    One-Electron Energy =                -509.8214118642816288
    Two-Electron Energy =                 181.8627899410882378
    DFT Exchange-Correlation Energy =     -23.4774054445573945
    Empirical Dispersion Energy =           0.0000000000000000
    VV10 Nonlocal Energy =                  0.0000000000000000
    Total Energy =                       -328.8986914022647738

  UHF NO Occupations:
  HONO-2 :    3 B2 1.0000000
  HONO-1 :    3 B1 1.0000000
  HONO-0 :    7 A1 1.0000000
  LUNO+0 :    8 A1 0.0000029
  LUNO+1 :    4 B2 0.0000005
  LUNO+2 :    4 B1 0.0000005
  LUNO+3 :    9 A1 0.0000004

Computation Completed

Properties will be evaluated at   0.000000,   0.000000,   0.000000 [a0]

Properties computed using the SCF density matrix

 Multipole Moments:

 ------------------------------------------------------------------------------------
     Multipole            Electronic (a.u.)      Nuclear  (a.u.)        Total (a.u.)
 ------------------------------------------------------------------------------------

 L = 1.  Multiply by 2.5417464519 to convert [e a0] to [Debye]
 Dipole X            :          0.0000000            0.0000000            0.0000000
 Dipole Y            :          0.0000000            0.0000000            0.0000000
 Dipole Z            :          2.6621834           -0.0071270            2.6550564
 Magnitude           :                                                    2.6550564

 ------------------------------------------------------------------------------------

*** tstop() called on Joses-MacBook-Pro-2.local at Thu Jul 17 10:59:12 2025
Module time:
	user time   =       3.36 seconds =       0.06 minutes
	system time =       2.20 seconds =       0.04 minutes
	total time  =          1 seconds =       0.02 minutes
Total time:
	user time   =      73.63 seconds =       1.23 minutes
	system time =      89.44 seconds =       1.49 minutes
	total time  =         17 seconds =       0.28 minutes

*** tstart() called on Joses-MacBook-Pro-2.local
*** at Thu Jul 17 10:59:12 2025

         ------------------------------------------------------------
                                   SCF GRAD
                          Rob Parrish, Justin Turney,
                       Andy Simmonett, and Alex Sokolov
         ------------------------------------------------------------

  ==> Geometry <==

    Molecular point group: c2v
    Full point group: C_inf_v

    Geometry (in Angstrom), charge = -1, multiplicity = 4:

       Center              X                  Y                   Z               Mass
    ------------   -----------------  -----------------  -----------------  -----------------
         NE           0.000000000000     0.000000000000     1.536702930786    19.992440176200
         MG           0.000000000000     0.000000000000    -1.280900062649    23.985041697000

  Nuclear repulsion =   22.537335965486047

  ==> Basis Set <==

  Basis Set: CC-PVDZ
    Blend: CC-PVDZ
    Number of shells: 14
    Number of basis functions: 32
    Number of Cartesian functions: 34
    Spherical Harmonics?: true
    Max angular momentum: 2

  ==> DFJKGrad: Density-Fitted SCF Gradients <==

    Gradient:                    1
    J tasked:                  Yes
    K tasked:                  Yes
    wK tasked:                  No
    OpenMP threads:              1
    Integrals threads:           1
    Memory [MiB]:              375
    Schwarz Cutoff:          1E-12
    Fitting Condition:       1E-10

   => Auxiliary Basis Set <=

  Basis Set: (CC-PVDZ AUX)
    Blend: CC-PVDZ-JKFIT + DEF2-UNIVERSAL-JKFIT
    Number of shells: 58
    Number of basis functions: 182
    Number of Cartesian functions: 218
    Spherical Harmonics?: true
    Max angular momentum: 4

  ==> DFT Potential <==

   => LibXC <=

    Version 6.2.2
    S. Lehtola, C. Steigemann, M. J.T. Oliveira, and M. A.L. Marques.,  SoftwareX 7, 1â€“5 (2018) (10.1016/j.softx.2017.11.002)

   => Composite Functional: B3LYP <=

    B3LYP Hyb-GGA Exchange-Correlation Functional

    P. J. Stephens, F. J. Devlin, C. F. Chabalowski, and M. J. Frisch.,  J. Phys. Chem. 98, 11623 (1994) (10.1021/j100096a001)

    Deriv               =              1
    GGA                 =           TRUE
    Meta                =          FALSE

    Exchange Hybrid     =           TRUE
    MP2 Hybrid          =          FALSE

   => Exchange Functionals <=

    0.0800   Slater exchange
    0.7200         Becke 88

   => Exact (HF) Exchange <=

    0.2000               HF

   => Correlation Functionals <=

    0.1900   Vosko, Wilk & Nusair (VWN5_RPA)
    0.8100   Lee, Yang & Parr

   => LibXC Density Thresholds  <==

    XC_HYB_GGA_XC_B3LYP:  1.00E-15

   => Molecular Quadrature <=

    Radial Scheme          =       TREUTLER
    Pruning Scheme         =           NONE
    Nuclear Scheme         =       TREUTLER

    Blocking Scheme        =         OCTREE
    BS radius alpha        =              1
    Pruning alpha          =              1
    Radial Points          =             75
    Spherical Points       =            302
    Total Points           =          43510
    Total Blocks           =            412
    Max Points             =            254
    Max Functions          =             32
    Weights Tolerance      =       1.00E-15

  -Total Gradient:
     Atom            X                  Y                   Z
    ------   -----------------  -----------------  -----------------
       1        0.000000000000     0.000000000000    -0.000070705134
       2       -0.000000000000     0.000000000000     0.000009808177

*** tstop() called on Joses-MacBook-Pro-2.local at Thu Jul 17 10:59:12 2025
Module time:
	user time   =       1.19 seconds =       0.02 minutes
	system time =       1.72 seconds =       0.03 minutes
	total time  =          0 seconds =       0.00 minutes
Total time:
	user time   =      74.82 seconds =       1.25 minutes
	system time =      91.17 seconds =       1.52 minutes
	total time  =         17 seconds =       0.28 minutes

    			-----------------------------------------

    			 OPTKING 3.0: for geometry optimizations

    			     By R.A. King, Bethel University

    			        with contributions from

    			    A.V. Copan, J. Cayton, A. Heide

    			-----------------------------------------

	                            ===> Fragment 1 <==

	 Z (Atomic Numbers)          Masses                          Geom
	      10.000000            19.992440          0.00000000  0.00000000  2.90394768
	      12.000000            23.985042          0.00000000  0.00000000 -2.42055031

	 - Coordinate -           - BOHR/RAD -       - ANG/DEG -
	 R(1,2)           =         5.324498           2.817603

	        --- Internal Coordinate Step in ANG or DEG, aJ/ANG or AJ/DEG ---
	-------------------------------------------------------------------------------
	           Coordinate      Previous         Force          Change          New
	           ----------      --------        ------          ------        ------
	               R(1,2)       2.81760        0.00033        0.00644       2.82404
	-------------------------------------------------------------------------------

	                                 ==> Convergence Check <==

	Measures of convergence in internal coordinates in au.

	Criteria marked as inactive (o), active & met (*), and active & unmet ( ).

	----------------------------------------------------------------------------------------------
	   Step    Total Energy     Delta E     Max Force     RMS Force      Max Disp      RMS Disp
	----------------------------------------------------------------------------------------------
	  Convergence Criteria     1.00e-06 *    3.00e-04 *             o    1.20e-03 *             o
	----------------------------------------------------------------------------------------------
	    17    -328.89869140   -6.90e-07 *    4.03e-05 *    4.03e-05 o    1.22e-02      1.22e-02 o  ~
	----------------------------------------------------------------------------------------------

Next Geometry in Ang
	Fragment 1 (Ang)

	   Ne   0.0000000000   0.0000000000   1.5399220018
	   Mg   0.0000000000   0.0000000000  -1.2841191337

    Final optimized geometry and variables:
    Molecular point group: c2v
    Full point group: C_inf_v

    Geometry (in Angstrom), charge = -1, multiplicity = 4:

    NE           0.000000000000     0.000000000000     1.536702930786
    MG           0.000000000000     0.000000000000    -1.280900062649

    Psi4 stopped on: Thursday, 17 July 2025 10:59AM
    Psi4 wall time for execution: 0:00:17.74

*** Psi4 exiting successfully. Buy a developer a beer!
