                               Psi4 1.9.1 release

  ==> Input File <==

--------------------------------------------------------------------------
molecule {
-1 4
O   0.00000        0.60000        0.00000
O   0.00000       -0.60000        0.00000
}

set {
basis              cc-pvdz
reference          uks
maxiter            500
geom_maxiter       500
DAMPING_PERCENTAGE 1
guess              SAP
}

optimize('b3lyp')
--------------------------------------------------------------------------

    Molecular point group: d2h
  Charge       = -1
  Multiplicity = 4
  Basis Set: CC-PVDZ
    Blend: CC-PVDZ
  Basis Set: (CC-PVDZ AUX)
    Blend: CC-PVDZ-JKFIT
  @DF-UKS Final Energy:  -149.96458190722447
    Total Energy =                       -149.9645819072244706
 Dipole X            :          0.0000000            0.0000000            0.0000000
 Dipole Y            :          0.0000000            0.0000000            0.0000000
 Dipole Z            :          0.0000000            0.0000000            0.0000000
 Magnitude           :                                                    0.0000000
    Molecular point group: d2h
  Basis Set: CC-PVDZ
    Blend: CC-PVDZ
  Basis Set: (CC-PVDZ AUX)
    Blend: CC-PVDZ-JKFIT
  Basis Set: CC-PVDZ
    Blend: CC-PVDZ
  Basis Set: (CC-PVDZ AUX)
    Blend: CC-PVDZ-JKFIT
  @DF-UKS Final Energy:  -150.15997576993300
    Total Energy =                       -150.1599757699329984
  Basis Set: CC-PVDZ
    Blend: CC-PVDZ
  Basis Set: (CC-PVDZ AUX)
    Blend: CC-PVDZ-JKFIT
  Basis Set: CC-PVDZ
    Blend: CC-PVDZ
  @DF-UKS Final Energy:  -150.18985116814665
    Total Energy =                       -150.1898511681466459
  @DF-UKS Final Energy:  -150.20304048330590
    Total Energy =                       -150.2030404833058981
  @DF-UKS Final Energy:  -150.20582921622201
    Total Energy =                       -150.2058292162220141
  @DF-UKS Final Energy:  -150.20655437795949
    Total Energy =                       -150.2065543779594918
  @DF-UKS Final Energy:  -150.20680885340056
    Total Energy =                       -150.2068088534005597
  @DF-UKS Final Energy:  -150.20685364804783
    Total Energy =                       -150.2068536480478258
  Basis Set: (CC-PVDZ AUX)
    Blend: CC-PVDZ-JKFIT
  Basis Set: CC-PVDZ
    Blend: CC-PVDZ
  Basis Set: (CC-PVDZ AUX)
    Blend: CC-PVDZ-JKFIT
  @DF-UKS Final Energy:  -150.20686321540936
    Total Energy =                       -150.2068632154093564
  Basis Set: CC-PVDZ
    Blend: CC-PVDZ
  Basis Set: (CC-PVDZ AUX)
    Blend: CC-PVDZ-JKFIT
  Charge       = -1
  Multiplicity = 4
  Basis Set: CC-PVDZ
    Blend: CC-PVDZ
  Basis Set: (CC-PVDZ AUX)
    Blend: CC-PVDZ-JKFIT

    Orbital Energies [Eh]
    ---------------------

    Alpha Occupied:

       1B2u  -18.841323     1Ag   -18.841273     2Ag    -0.641081
       2B2u   -0.543145     3Ag    -0.081300     1B1u   -0.042095
       1B3u   -0.042095     1B3g    0.022813     1B1g    0.022813
       3B2u    0.125350

    Alpha Virtual:

       2B1u    1.143260     2B3u    1.143260     4B2u    1.183165
       2B3g    1.279809     2B1g    1.279809     4Ag     1.323471
       5Ag     1.454744     5B2u    1.854850     6Ag     2.695824
       3B3u    2.821270     3B1u    2.821270     7Ag     2.883993
       1B2g    2.883999     6B2u    2.901237     1Au     2.901243
       3B1g    3.012464     3B3g    3.012464     7B2u    3.525314

    Beta Occupied:

       1Ag   -18.800141     1B2u  -18.800107     2Ag    -0.530337
       2B2u   -0.421286     3Ag     0.029975     1B1u    0.076413
       1B3u    0.076413

    Beta Virtual:

       1B3g    0.208293     1B1g    0.208293     3B2u    0.330907
       2B1u    1.214735     2B3u    1.214735     4B2u    1.245804
       2B3g    1.349252     2B1g    1.349252     4Ag     1.384423
       5Ag     1.528441     5B2u    1.923447     6Ag     2.778716
       3B3u    2.908110     3B1u    2.908110     7Ag     2.975939
       1B2g    2.975945     6B2u    2.995401     1Au     2.995407
       3B1g    3.102922     3B3g    3.102922     7B2u    3.610104

    Final Occupation by Irrep:
             Ag   B1g   B2g   B3g    Au   B1u   B2u   B3u
    DOCC [     3,    0,    0,    0,    0,    1,    2,    1 ]
    SOCC [     0,    1,    0,    1,    0,    0,    1,    0 ]
    NA   [     3,    1,    0,    1,    0,    1,    3,    1 ]
    NB   [     3,    0,    0,    0,    0,    1,    2,    1 ]

  @DF-UKS Final Energy:  -150.20686386017198

   => Energetics <=

    Nuclear Repulsion Energy =             19.0429695566511441
    One-Electron Energy =                -251.2136247143185415
    Two-Electron Energy =                  95.9626954241946493
    DFT Exchange-Correlation Energy =     -13.9989041266992107
    Empirical Dispersion Energy =           0.0000000000000000
    VV10 Nonlocal Energy =                  0.0000000000000000
    Total Energy =                       -150.2068638601719783

  UHF NO Occupations:
  HONO-2 :    1B1g 1.0000000
  HONO-1 :    1B3g 1.0000000
  HONO-0 :    3B2u 1.0000000
  LUNO+0 :    2B1u 0.0019810
  LUNO+1 :    2B3u 0.0019810
  LUNO+2 :    4 Ag 0.0015259
  LUNO+3 :    5 Ag 0.0002556

Computation Completed

Properties will be evaluated at   0.000000,   0.000000,   0.000000 [a0]

Properties computed using the SCF density matrix

 Multipole Moments:

 ------------------------------------------------------------------------------------
     Multipole            Electronic (a.u.)      Nuclear  (a.u.)        Total (a.u.)
 ------------------------------------------------------------------------------------

 L = 1.  Multiply by 2.5417464519 to convert [e a0] to [Debye]
 Dipole X            :          0.0000000            0.0000000            0.0000000
 Dipole Y            :          0.0000000            0.0000000            0.0000000
 Dipole Z            :          0.0000000            0.0000000            0.0000000
 Magnitude           :                                                    0.0000000

 ------------------------------------------------------------------------------------

*** tstop() called on Joses-MacBook-Pro-2.local at Thu Jul 17 10:38:28 2025
Module time:
	user time   =       2.64 seconds =       0.04 minutes
	system time =       3.16 seconds =       0.05 minutes
	total time  =          0 seconds =       0.00 minutes
Total time:
	user time   =      35.99 seconds =       0.60 minutes
	system time =      47.81 seconds =       0.80 minutes
	total time  =          8 seconds =       0.13 minutes

*** tstart() called on Joses-MacBook-Pro-2.local
*** at Thu Jul 17 10:38:28 2025

         ------------------------------------------------------------
                                   SCF GRAD
                          Rob Parrish, Justin Turney,
                       Andy Simmonett, and Alex Sokolov
         ------------------------------------------------------------

  ==> Geometry <==

    Molecular point group: d2h
    Full point group: D_inf_h

    Geometry (in Angstrom), charge = -1, multiplicity = 4:

       Center              X                  Y                   Z               Mass
    ------------   -----------------  -----------------  -----------------  -----------------
         O           -0.000000000000     0.889234774601     0.000000000000    15.994914619570
         O            0.000000000000    -0.889234774601     0.000000000000    15.994914619570

  Nuclear repulsion =   19.042969556651144

  ==> Basis Set <==

  Basis Set: CC-PVDZ
    Blend: CC-PVDZ
    Number of shells: 12
    Number of basis functions: 28
    Number of Cartesian functions: 30
    Spherical Harmonics?: true
    Max angular momentum: 2

  ==> DFJKGrad: Density-Fitted SCF Gradients <==

    Gradient:                    1
    J tasked:                  Yes
    K tasked:                  Yes
    wK tasked:                  No
    OpenMP threads:              1
    Integrals threads:           1
    Memory [MiB]:              375
    Schwarz Cutoff:          1E-12
    Fitting Condition:       1E-10

   => Auxiliary Basis Set <=

  Basis Set: (CC-PVDZ AUX)
    Blend: CC-PVDZ-JKFIT
    Number of shells: 48
    Number of basis functions: 140
    Number of Cartesian functions: 162
    Spherical Harmonics?: true
    Max angular momentum: 3

  ==> DFT Potential <==

   => LibXC <=

    Version 6.2.2
    S. Lehtola, C. Steigemann, M. J.T. Oliveira, and M. A.L. Marques.,  SoftwareX 7, 1â€“5 (2018) (10.1016/j.softx.2017.11.002)

   => Composite Functional: B3LYP <=

    B3LYP Hyb-GGA Exchange-Correlation Functional

    P. J. Stephens, F. J. Devlin, C. F. Chabalowski, and M. J. Frisch.,  J. Phys. Chem. 98, 11623 (1994) (10.1021/j100096a001)

    Deriv               =              1
    GGA                 =           TRUE
    Meta                =          FALSE

    Exchange Hybrid     =           TRUE
    MP2 Hybrid          =          FALSE

   => Exchange Functionals <=

    0.0800   Slater exchange
    0.7200         Becke 88

   => Exact (HF) Exchange <=

    0.2000               HF

   => Correlation Functionals <=

    0.1900   Vosko, Wilk & Nusair (VWN5_RPA)
    0.8100   Lee, Yang & Parr

   => LibXC Density Thresholds  <==

    XC_HYB_GGA_XC_B3LYP:  1.00E-15

   => Molecular Quadrature <=

    Radial Scheme          =       TREUTLER
    Pruning Scheme         =           NONE
    Nuclear Scheme         =       TREUTLER

    Blocking Scheme        =         OCTREE
    BS radius alpha        =              1
    Pruning alpha          =              1
    Radial Points          =             75
    Spherical Points       =            302
    Total Points           =          41518
    Total Blocks           =            382
    Max Points             =            252
    Max Functions          =             28
    Weights Tolerance      =       1.00E-15

  -Total Gradient:
     Atom            X                  Y                   Z
    ------   -----------------  -----------------  -----------------
       1        0.000000000000    -0.000065371022     0.000000000000
       2       -0.000000000000     0.000065371022    -0.000000000000

*** tstop() called on Joses-MacBook-Pro-2.local at Thu Jul 17 10:38:28 2025
Module time:
	user time   =       0.79 seconds =       0.01 minutes
	system time =       0.94 seconds =       0.02 minutes
	total time  =          0 seconds =       0.00 minutes
Total time:
	user time   =      36.79 seconds =       0.61 minutes
	system time =      48.75 seconds =       0.81 minutes
	total time  =          8 seconds =       0.13 minutes

    			-----------------------------------------

    			 OPTKING 3.0: for geometry optimizations

    			     By R.A. King, Bethel University

    			        with contributions from

    			    A.V. Copan, J. Cayton, A. Heide

    			-----------------------------------------

	                            ===> Fragment 1 <==

	 Z (Atomic Numbers)          Masses                          Geom
	       8.000000            15.994915         -0.00000000  1.68041019  0.00000000
	       8.000000            15.994915          0.00000000 -1.68041019  0.00000000

	 - Coordinate -           - BOHR/RAD -       - ANG/DEG -
	 R(1,2)           =         3.360820           1.778470

	        --- Internal Coordinate Step in ANG or DEG, aJ/ANG or AJ/DEG ---
	-------------------------------------------------------------------------------
	           Coordinate      Previous         Force          Change          New
	           ----------      --------        ------          ------        ------
	               R(1,2)       1.77847        0.00054        0.00023       1.77870
	-------------------------------------------------------------------------------

	                                 ==> Convergence Check <==

	Measures of convergence in internal coordinates in au.

	Criteria marked as inactive (o), active & met (*), and active & unmet ( ).

	----------------------------------------------------------------------------------------------
	   Step    Total Energy     Delta E     Max Force     RMS Force      Max Disp      RMS Disp
	----------------------------------------------------------------------------------------------
	  Convergence Criteria     1.00e-06 *    3.00e-04 *             o    1.20e-03 *             o
	----------------------------------------------------------------------------------------------
	    10    -150.20686386   -6.45e-07 *    6.54e-05 *    6.54e-05 o    4.32e-04 *    4.32e-04 o  ~
	----------------------------------------------------------------------------------------------

Next Geometry in Ang
	Fragment 1 (Ang)

	    O  -0.0000000000   0.8893491330   0.0000000000
	    O   0.0000000000  -0.8893491330   0.0000000000

    Final optimized geometry and variables:
    Molecular point group: d2h
    Full point group: D_inf_h

    Geometry (in Angstrom), charge = -1, multiplicity = 4:

    O           -0.000000000000     0.889234774601     0.000000000000
    O            0.000000000000    -0.889234774601     0.000000000000

    Psi4 stopped on: Thursday, 17 July 2025 10:38AM
    Psi4 wall time for execution: 0:00:09.22

*** Psi4 exiting successfully. Buy a developer a beer!
