                               Psi4 1.9.1 release

  ==> Input File <==

--------------------------------------------------------------------------
molecule {
-1 4
Al   0.00000        0.60000        0.00000
P   0.00000       -0.60000        0.00000
}

set {
basis              cc-pvdz
reference          uks
maxiter            500
geom_maxiter       500
DAMPING_PERCENTAGE 1
guess              SAP
}

optimize('b3lyp')
--------------------------------------------------------------------------

    Molecular point group: c2v
  Charge       = -1
  Multiplicity = 4
  Basis Set: CC-PVDZ
    Blend: CC-PVDZ
  Basis Set: (CC-PVDZ AUX)
    Blend: CC-PVDZ-JKFIT
  @DF-UKS Final Energy:  -582.52010182396577
    Total Energy =                       -582.5201018239657742
 Dipole X            :          0.0000000            0.0000000            0.0000000
 Dipole Y            :          0.0000000            0.0000000            0.0000000
 Dipole Z            :         -1.3365618           -0.0807668           -1.4173286
 Magnitude           :                                                    1.4173286
    Molecular point group: c2v
  Basis Set: CC-PVDZ
    Blend: CC-PVDZ
  Basis Set: (CC-PVDZ AUX)
    Blend: CC-PVDZ-JKFIT
  Basis Set: CC-PVDZ
    Blend: CC-PVDZ
  Basis Set: (CC-PVDZ AUX)
    Blend: CC-PVDZ-JKFIT
  @DF-UKS Final Energy:  -582.54041761634835
    Total Energy =                       -582.5404176163483498
  Basis Set: CC-PVDZ
    Blend: CC-PVDZ
  Basis Set: (CC-PVDZ AUX)
    Blend: CC-PVDZ-JKFIT
  Basis Set: CC-PVDZ
    Blend: CC-PVDZ
  @DF-UKS Final Energy:  -582.57946881672854
    Total Energy =                       -582.5794688167285358
  @DF-UKS Final Energy:  -582.71921741175061
    Total Energy =                       -582.7192174117506056
  @DF-UKS Final Energy:  -583.26448407628152
    Total Energy =                       -583.2644840762815193
  @DF-UKS Final Energy:  -583.47652291090844
    Total Energy =                       -583.4765229109083293
  @DF-UKS Final Energy:  -583.64446580143806
    Total Energy =                       -583.6444658014380593
  @DF-UKS Final Energy:  -583.71328974816083
    Total Energy =                       -583.7132897481608325
  @DF-UKS Final Energy:  -583.72884685740905
    Total Energy =                       -583.7288468574090530
  @DF-UKS Final Energy:  -583.73534720852786
    Total Energy =                       -583.7353472085279691
  @DF-UKS Final Energy:  -583.73667042873649
    Total Energy =                       -583.7366704287364882
  @DF-UKS Final Energy:  -583.73705293283740
    Total Energy =                       -583.7370529328374005
  @DF-UKS Final Energy:  -583.73710972619779
    Total Energy =                       -583.7371097261976729
  @DF-UKS Final Energy:  -583.73711891294943
    Total Energy =                       -583.7371189129494269
  Basis Set: (CC-PVDZ AUX)
    Blend: CC-PVDZ-JKFIT
  Basis Set: CC-PVDZ
    Blend: CC-PVDZ
  Basis Set: (CC-PVDZ AUX)
    Blend: CC-PVDZ-JKFIT
  @DF-UKS Final Energy:  -583.73712065707161
    Total Energy =                       -583.7371206570716140
  Basis Set: CC-PVDZ
    Blend: CC-PVDZ
  Basis Set: (CC-PVDZ AUX)
    Blend: CC-PVDZ-JKFIT
  Charge       = -1
  Multiplicity = 4
  Basis Set: CC-PVDZ
    Blend: CC-PVDZ
  Basis Set: (CC-PVDZ AUX)
    Blend: CC-PVDZ-JKFIT

    Orbital Energies [Eh]
    ---------------------

    Alpha Occupied:

       1A1   -76.866954     2A1   -55.855488     3A1    -6.335053
       1B2    -4.501314     4A1    -4.498980     1B1    -4.490919
       5A1    -3.936635     6A1    -2.489799     2B1    -2.489643
       2B2    -2.488987     7A1    -0.363316     8A1    -0.138698
       3B2    -0.044610     9A1    -0.029165     3B1    -0.011339
       4B2     0.071344

    Alpha Virtual:

       4B1     0.128894    10A1     0.198718    11A1     0.331622
       5B2     0.385070    12A1     0.385230     5B1     0.396735
       6B2     0.440690     1A2     0.448622    13A1     0.450921
       6B1     0.455982    14A1     0.490514     7B2     0.626354
       7B1     0.648883    15A1     0.676686     2A2     0.695105
      16A1     0.699105    17A1     0.749346     8B2     0.800162
       8B1     0.823219    18A1     1.072330

    Beta Occupied:

       1A1   -76.860866     2A1   -55.852750     3A1    -6.328581
       4A1    -4.488972     1B1    -4.486829     1B2    -4.486619
       5A1    -3.933131     2B1    -2.488039     6A1    -2.485036
       2B2    -2.482047     7A1    -0.304142     8A1    -0.088757
       3B1     0.005420

    Beta Virtual:

       9A1     0.064687     3B2     0.076768     4B1     0.144384
       4B2     0.169779    10A1     0.223036    11A1     0.351301
       5B1     0.400058    12A1     0.416799     5B2     0.417538
       6B1     0.480316    13A1     0.484060     1A2     0.484171
       6B2     0.499788    14A1     0.523123     7B1     0.660606
       7B2     0.673306    15A1     0.711293     2A2     0.743922
      16A1     0.747603    17A1     0.780544     8B1     0.847848
       8B2     0.863048    18A1     1.103843

    Final Occupation by Irrep:
             A1    A2    B1    B2
    DOCC [     8,    0,    3,    2 ]
    SOCC [     1,    0,    0,    2 ]
    NA   [     9,    0,    3,    4 ]
    NB   [     8,    0,    3,    2 ]

  @DF-UKS Final Energy:  -583.73712075179105

   => Energetics <=

    Nuclear Repulsion Energy =             43.2685332523419319
    One-Electron Energy =                -901.1396683936105774
    Two-Electron Energy =                 307.9894399421528419
    DFT Exchange-Correlation Energy =     -33.8554255526752144
    Empirical Dispersion Energy =           0.0000000000000000
    VV10 Nonlocal Energy =                  0.0000000000000000
    Total Energy =                       -583.7371207517909397

  UHF NO Occupations:
  HONO-2 :    3 B2 1.0000000
  HONO-1 :    4 B2 1.0000000
  HONO-0 :    9 A1 1.0000000
  LUNO+0 :   10 A1 0.0026043
  LUNO+1 :    4 B1 0.0010730
  LUNO+2 :   11 A1 0.0008058
  LUNO+3 :    5 B1 0.0000001

Computation Completed

Properties will be evaluated at   0.000000,   0.000000,   0.000000 [a0]

Properties computed using the SCF density matrix

 Multipole Moments:

 ------------------------------------------------------------------------------------
     Multipole            Electronic (a.u.)      Nuclear  (a.u.)        Total (a.u.)
 ------------------------------------------------------------------------------------

 L = 1.  Multiply by 2.5417464519 to convert [e a0] to [Debye]
 Dipole X            :          0.0000000            0.0000000            0.0000000
 Dipole Y            :          0.0000000            0.0000000            0.0000000
 Dipole Z            :         -0.3209074           -0.1605148           -0.4814222
 Magnitude           :                                                    0.4814222

 ------------------------------------------------------------------------------------

*** tstop() called on Joses-MacBook-Pro-2.local at Thu Jul 17 11:38:28 2025
Module time:
	user time   =      13.50 seconds =       0.23 minutes
	system time =       2.22 seconds =       0.04 minutes
	total time  =          2 seconds =       0.03 minutes
Total time:
	user time   =     282.06 seconds =       4.70 minutes
	system time =      58.93 seconds =       0.98 minutes
	total time  =         35 seconds =       0.58 minutes

*** tstart() called on Joses-MacBook-Pro-2.local
*** at Thu Jul 17 11:38:28 2025

         ------------------------------------------------------------
                                   SCF GRAD
                          Rob Parrish, Justin Turney,
                       Andy Simmonett, and Alex Sokolov
         ------------------------------------------------------------

  ==> Geometry <==

    Molecular point group: c2v
    Full point group: C_inf_v

    Geometry (in Angstrom), charge = -1, multiplicity = 4:

       Center              X                  Y                   Z               Mass
    ------------   -----------------  -----------------  -----------------  -----------------
         AL           0.000000000000     0.000000000000     1.274571975980    26.981538530000
         P            0.000000000000     0.000000000000    -1.110291765040    30.973761998420

  Nuclear repulsion =   43.268533252341932

  ==> Basis Set <==

  Basis Set: CC-PVDZ
    Blend: CC-PVDZ
    Number of shells: 16
    Number of basis functions: 36
    Number of Cartesian functions: 38
    Spherical Harmonics?: true
    Max angular momentum: 2

  ==> DFJKGrad: Density-Fitted SCF Gradients <==

    Gradient:                    1
    J tasked:                  Yes
    K tasked:                  Yes
    wK tasked:                  No
    OpenMP threads:              1
    Integrals threads:           1
    Memory [MiB]:              375
    Schwarz Cutoff:          1E-12
    Fitting Condition:       1E-10

   => Auxiliary Basis Set <=

  Basis Set: (CC-PVDZ AUX)
    Blend: CC-PVDZ-JKFIT
    Number of shells: 72
    Number of basis functions: 224
    Number of Cartesian functions: 260
    Spherical Harmonics?: true
    Max angular momentum: 3

  ==> DFT Potential <==

   => LibXC <=

    Version 6.2.2
    S. Lehtola, C. Steigemann, M. J.T. Oliveira, and M. A.L. Marques.,  SoftwareX 7, 1â€“5 (2018) (10.1016/j.softx.2017.11.002)

   => Composite Functional: B3LYP <=

    B3LYP Hyb-GGA Exchange-Correlation Functional

    P. J. Stephens, F. J. Devlin, C. F. Chabalowski, and M. J. Frisch.,  J. Phys. Chem. 98, 11623 (1994) (10.1021/j100096a001)

    Deriv               =              1
    GGA                 =           TRUE
    Meta                =          FALSE

    Exchange Hybrid     =           TRUE
    MP2 Hybrid          =          FALSE

   => Exchange Functionals <=

    0.0800   Slater exchange
    0.7200         Becke 88

   => Exact (HF) Exchange <=

    0.2000               HF

   => Correlation Functionals <=

    0.1900   Vosko, Wilk & Nusair (VWN5_RPA)
    0.8100   Lee, Yang & Parr

   => LibXC Density Thresholds  <==

    XC_HYB_GGA_XC_B3LYP:  1.00E-15

   => Molecular Quadrature <=

    Radial Scheme          =       TREUTLER
    Pruning Scheme         =           NONE
    Nuclear Scheme         =       TREUTLER

    Blocking Scheme        =         OCTREE
    BS radius alpha        =              1
    Pruning alpha          =              1
    Radial Points          =             75
    Spherical Points       =            302
    Total Points           =          42669
    Total Blocks           =            403
    Max Points             =            255
    Max Functions          =             36
    Weights Tolerance      =       1.00E-15

  -Total Gradient:
     Atom            X                  Y                   Z
    ------   -----------------  -----------------  -----------------
       1       -0.000000000000    -0.000000000000    -0.000004917178
       2        0.000000000000     0.000000000000     0.000026678495

*** tstop() called on Joses-MacBook-Pro-2.local at Thu Jul 17 11:38:28 2025
Module time:
	user time   =       3.97 seconds =       0.07 minutes
	system time =       1.47 seconds =       0.02 minutes
	total time  =          0 seconds =       0.00 minutes
Total time:
	user time   =     286.03 seconds =       4.77 minutes
	system time =      60.41 seconds =       1.01 minutes
	total time  =         35 seconds =       0.58 minutes

    			-----------------------------------------

    			 OPTKING 3.0: for geometry optimizations

    			     By R.A. King, Bethel University

    			        with contributions from

    			    A.V. Copan, J. Cayton, A. Heide

    			-----------------------------------------

	                            ===> Fragment 1 <==

	 Z (Atomic Numbers)          Masses                          Geom
	      13.000000            26.981539          0.00000000  0.00000000  2.40859196
	      15.000000            30.973762          0.00000000  0.00000000 -2.09814736

	 - Coordinate -           - BOHR/RAD -       - ANG/DEG -
	 R(1,2)           =         4.506739           2.384864

	        --- Internal Coordinate Step in ANG or DEG, aJ/ANG or AJ/DEG ---
	-------------------------------------------------------------------------------
	           Coordinate      Previous         Force          Change          New
	           ----------      --------        ------          ------        ------
	               R(1,2)       2.38486        0.00013        0.00012       2.38498
	-------------------------------------------------------------------------------

	                                 ==> Convergence Check <==

	Measures of convergence in internal coordinates in au.

	Criteria marked as inactive (o), active & met (*), and active & unmet ( ).

	----------------------------------------------------------------------------------------------
	   Step    Total Energy     Delta E     Max Force     RMS Force      Max Disp      RMS Disp
	----------------------------------------------------------------------------------------------
	  Convergence Criteria     1.00e-06 *    3.00e-04 *             o    1.20e-03 *             o
	----------------------------------------------------------------------------------------------
	    16    -583.73712075   -9.47e-08 *    1.58e-05 *    1.58e-05 o    2.29e-04 *    2.29e-04 o  ~
	----------------------------------------------------------------------------------------------

Next Geometry in Ang
	Fragment 1 (Ang)

	   Al   0.0000000000   0.0000000000   1.2746325106
	    P   0.0000000000   0.0000000000  -1.1103522997

    Final optimized geometry and variables:
    Molecular point group: c2v
    Full point group: C_inf_v

    Geometry (in Angstrom), charge = -1, multiplicity = 4:

    AL           0.000000000000     0.000000000000     1.274571975980
    P            0.000000000000     0.000000000000    -1.110291765040

    Psi4 stopped on: Thursday, 17 July 2025 11:38AM
    Psi4 wall time for execution: 0:00:35.86

*** Psi4 exiting successfully. Buy a developer a beer!
