                               Psi4 1.9.1 release

  ==> Input File <==

--------------------------------------------------------------------------
molecule {
-1 4
C   0.00000        0.60000        0.00000
Ar   0.00000       -0.60000        0.00000
}

set {
basis              cc-pvdz
reference          uks
maxiter            500
geom_maxiter       500
DAMPING_PERCENTAGE 1
guess              SAP
}

optimize('b3lyp')
--------------------------------------------------------------------------

    Molecular point group: c2v
  Charge       = -1
  Multiplicity = 4
  Basis Set: CC-PVDZ
    Blend: CC-PVDZ
  Basis Set: (CC-PVDZ AUX)
    Blend: CC-PVDZ-JKFIT
  @DF-UKS Final Energy:  -564.64329530058376
    Total Energy =                       -564.6432953005836453
 Dipole X            :          0.0000000            0.0000000            0.0000000
 Dipole Y            :          0.0000000            0.0000000            0.0000000
 Dipole Z            :         -2.7803090            1.0375255           -1.7427835
 Magnitude           :                                                    1.7427835
    Molecular point group: c2v
  Basis Set: CC-PVDZ
    Blend: CC-PVDZ
  Basis Set: (CC-PVDZ AUX)
    Blend: CC-PVDZ-JKFIT
  Basis Set: CC-PVDZ
    Blend: CC-PVDZ
  Basis Set: (CC-PVDZ AUX)
    Blend: CC-PVDZ-JKFIT
  @DF-UKS Final Energy:  -564.87786297829552
    Total Energy =                       -564.8778629782954113
  Basis Set: CC-PVDZ
    Blend: CC-PVDZ
  Basis Set: (CC-PVDZ AUX)
    Blend: CC-PVDZ-JKFIT
  Basis Set: CC-PVDZ
    Blend: CC-PVDZ
  @DF-UKS Final Energy:  -565.05022169477797
    Total Energy =                       -565.0502216947779743
  @DF-UKS Final Energy:  -565.18936084046027
    Total Energy =                       -565.1893608404603810
  @DF-UKS Final Energy:  -565.30172910794295
    Total Energy =                       -565.3017291079429469
  @DF-UKS Final Energy:  -565.33100237989242
    Total Energy =                       -565.3310023798924249
  @DF-UKS Final Energy:  -565.37189392725918
    Total Energy =                       -565.3718939272591797
  @DF-UKS Final Energy:  -565.38935612503110
    Total Energy =                       -565.3893561250310995
  @DF-UKS Final Energy:  -565.39860249569347
    Total Energy =                       -565.3986024956934671
  @DF-UKS Final Energy:  -565.40324804326053
    Total Energy =                       -565.4032480432606462
  @DF-UKS Final Energy:  -565.40558427157384
    Total Energy =                       -565.4055842715738436
  @DF-UKS Final Energy:  -565.40669902646562
    Total Energy =                       -565.4066990264655033
  @DF-UKS Final Energy:  -565.40716886612449
    Total Energy =                       -565.4071688661244934
  @DF-UKS Final Energy:  -565.40732615064496
    Total Energy =                       -565.4073261506449626
  @DF-UKS Final Energy:  -565.40736222239286
    Total Energy =                       -565.4073622223929760
  Basis Set: (CC-PVDZ AUX)
    Blend: CC-PVDZ-JKFIT
  Basis Set: CC-PVDZ
    Blend: CC-PVDZ
  Basis Set: (CC-PVDZ AUX)
    Blend: CC-PVDZ-JKFIT
  @DF-UKS Final Energy:  -565.40736622831071
    Total Energy =                       -565.4073662283107069
  Basis Set: CC-PVDZ
    Blend: CC-PVDZ
  Basis Set: (CC-PVDZ AUX)
    Blend: CC-PVDZ-JKFIT
  Charge       = -1
  Multiplicity = 4
  Basis Set: CC-PVDZ
    Blend: CC-PVDZ
  Basis Set: (CC-PVDZ AUX)
    Blend: CC-PVDZ-JKFIT

    Orbital Energies [Eh]
    ---------------------

    Alpha Occupied:

       1A1  -114.954938     2A1   -10.991051     3A1    -9.854096
       1B1    -8.541061     1B2    -8.541061     4A1    -8.540646
       5A1    -0.819783     2B2    -0.279075     2B1    -0.279075
       6A1    -0.274237     7A1    -0.203252     8A1     0.123374
       3B1     0.123423     3B2     0.123423

    Alpha Virtual:

       9A1     0.692139     4B2     0.719986     4B1     0.719986
       5B2     0.796223     5B1     0.796223    10A1     0.806642
      11A1     0.863944    12A1     0.944113    13A1     0.978851
       1A2     0.978857     6B1     0.981691     6B2     0.981691
      14A1     0.993466    15A1     1.499363     7B1     1.499370
       7B2     1.499370     2A2     1.499386    16A1     1.501092

    Beta Occupied:

       1A1  -114.954870     2A1   -10.990983     3A1    -9.822987
       1B1    -8.541006     1B2    -8.541006     4A1    -8.540490
       5A1    -0.819561     2B2    -0.279018     2B1    -0.279018
       6A1    -0.273864     7A1    -0.060665

    Beta Virtual:

       8A1     0.299083     3B1     0.300558     3B2     0.300558
       9A1     0.714559     4B2     0.721422     4B1     0.721422
      10A1     0.838736     5B2     0.882935     5B1     0.882935
      11A1     0.926410    12A1     0.973906    13A1     0.978937
       1A2     0.978944     6B1     0.981965     6B2     0.981965
      14A1     1.016510     7B1     1.609963     7B2     1.609963
      15A1     1.610147     2A2     1.610172    16A1     1.611347

    Final Occupation by Irrep:
             A1    A2    B1    B2
    DOCC [     7,    0,    2,    2 ]
    SOCC [     1,    0,    1,    1 ]
    NA   [     8,    0,    3,    3 ]
    NB   [     7,    0,    2,    2 ]

  @DF-UKS Final Energy:  -565.40736674736388

   => Energetics <=

    Nuclear Repulsion Energy =             15.3156902270502826
    One-Electron Energy =                -814.5382894291175262
    Two-Electron Energy =                 263.1832891439596551
    DFT Exchange-Correlation Energy =     -29.3680566892562886
    Empirical Dispersion Energy =           0.0000000000000000
    VV10 Nonlocal Energy =                  0.0000000000000000
    Total Energy =                       -565.4073667473638807

  UHF NO Occupations:
  HONO-2 :    3 B1 1.0000000
  HONO-1 :    3 B2 1.0000000
  HONO-0 :    8 A1 1.0000000
  LUNO+0 :    9 A1 0.0006764
  LUNO+1 :   10 A1 0.0000007
  LUNO+2 :    4 B1 0.0000000
  LUNO+3 :    4 B2 0.0000000

Computation Completed

Properties will be evaluated at   0.000000,   0.000000,   0.000000 [a0]

Properties computed using the SCF density matrix

 Multipole Moments:

 ------------------------------------------------------------------------------------
     Multipole            Electronic (a.u.)      Nuclear  (a.u.)        Total (a.u.)
 ------------------------------------------------------------------------------------

 L = 1.  Multiply by 2.5417464519 to convert [e a0] to [Debye]
 Dipole X            :          0.0000000            0.0000000            0.0000000
 Dipole Y            :          0.0000000            0.0000000            0.0000000
 Dipole Z            :         -8.5442342            3.2263081           -5.3179261
 Magnitude           :                                                    5.3179261

 ------------------------------------------------------------------------------------

*** tstop() called on Joses-MacBook-Pro-2.local at Thu Jul 17 10:23:54 2025
Module time:
	user time   =       2.37 seconds =       0.04 minutes
	system time =       3.09 seconds =       0.05 minutes
	total time  =          0 seconds =       0.00 minutes
Total time:
	user time   =      80.08 seconds =       1.33 minutes
	system time =      90.71 seconds =       1.51 minutes
	total time  =         17 seconds =       0.28 minutes

*** tstart() called on Joses-MacBook-Pro-2.local
*** at Thu Jul 17 10:23:54 2025

         ------------------------------------------------------------
                                   SCF GRAD
                          Rob Parrish, Justin Turney,
                       Andy Simmonett, and Alex Sokolov
         ------------------------------------------------------------

  ==> Geometry <==

    Molecular point group: c2v
    Full point group: C_inf_v

    Geometry (in Angstrom), charge = -1, multiplicity = 4:

       Center              X                  Y                   Z               Mass
    ------------   -----------------  -----------------  -----------------  -----------------
         C            0.000000000000     0.000000000000     2.869793402974    12.000000000000
         AR           0.000000000000     0.000000000000    -0.861748427993    39.962383123700

  Nuclear repulsion =   15.315690227050283

  ==> Basis Set <==

  Basis Set: CC-PVDZ
    Blend: CC-PVDZ
    Number of shells: 14
    Number of basis functions: 32
    Number of Cartesian functions: 34
    Spherical Harmonics?: true
    Max angular momentum: 2

  ==> DFJKGrad: Density-Fitted SCF Gradients <==

    Gradient:                    1
    J tasked:                  Yes
    K tasked:                  Yes
    wK tasked:                  No
    OpenMP threads:              1
    Integrals threads:           1
    Memory [MiB]:              375
    Schwarz Cutoff:          1E-12
    Fitting Condition:       1E-10

   => Auxiliary Basis Set <=

  Basis Set: (CC-PVDZ AUX)
    Blend: CC-PVDZ-JKFIT
    Number of shells: 60
    Number of basis functions: 182
    Number of Cartesian functions: 211
    Spherical Harmonics?: true
    Max angular momentum: 3

  ==> DFT Potential <==

   => LibXC <=

    Version 6.2.2
    S. Lehtola, C. Steigemann, M. J.T. Oliveira, and M. A.L. Marques.,  SoftwareX 7, 1â€“5 (2018) (10.1016/j.softx.2017.11.002)

   => Composite Functional: B3LYP <=

    B3LYP Hyb-GGA Exchange-Correlation Functional

    P. J. Stephens, F. J. Devlin, C. F. Chabalowski, and M. J. Frisch.,  J. Phys. Chem. 98, 11623 (1994) (10.1021/j100096a001)

    Deriv               =              1
    GGA                 =           TRUE
    Meta                =          FALSE

    Exchange Hybrid     =           TRUE
    MP2 Hybrid          =          FALSE

   => Exchange Functionals <=

    0.0800   Slater exchange
    0.7200         Becke 88

   => Exact (HF) Exchange <=

    0.2000               HF

   => Correlation Functionals <=

    0.1900   Vosko, Wilk & Nusair (VWN5_RPA)
    0.8100   Lee, Yang & Parr

   => LibXC Density Thresholds  <==

    XC_HYB_GGA_XC_B3LYP:  1.00E-15

   => Molecular Quadrature <=

    Radial Scheme          =       TREUTLER
    Pruning Scheme         =           NONE
    Nuclear Scheme         =       TREUTLER

    Blocking Scheme        =         OCTREE
    BS radius alpha        =              1
    Pruning alpha          =              1
    Radial Points          =             75
    Spherical Points       =            302
    Total Points           =          41311
    Total Blocks           =            382
    Max Points             =            255
    Max Functions          =             32
    Weights Tolerance      =       1.00E-15

  -Total Gradient:
     Atom            X                  Y                   Z
    ------   -----------------  -----------------  -----------------
       1        0.000000000000     0.000000000000    -0.000012796428
       2        0.000000000000     0.000000000000     0.000015185995

*** tstop() called on Joses-MacBook-Pro-2.local at Thu Jul 17 10:23:54 2025
Module time:
	user time   =       0.91 seconds =       0.02 minutes
	system time =       1.42 seconds =       0.02 minutes
	total time  =          0 seconds =       0.00 minutes
Total time:
	user time   =      80.99 seconds =       1.35 minutes
	system time =      92.13 seconds =       1.54 minutes
	total time  =         17 seconds =       0.28 minutes

    			-----------------------------------------

    			 OPTKING 3.0: for geometry optimizations

    			     By R.A. King, Bethel University

    			        with contributions from

    			    A.V. Copan, J. Cayton, A. Heide

    			-----------------------------------------

	                            ===> Fragment 1 <==

	 Z (Atomic Numbers)          Masses                          Geom
	       6.000000            12.000000          0.00000000  0.00000000  5.42312357
	      18.000000            39.962383          0.00000000  0.00000000 -1.62846852

	 - Coordinate -           - BOHR/RAD -       - ANG/DEG -
	 R(1,2)           =         7.051592           3.731542

	        --- Internal Coordinate Step in ANG or DEG, aJ/ANG or AJ/DEG ---
	-------------------------------------------------------------------------------
	           Coordinate      Previous         Force          Change          New
	           ----------      --------        ------          ------        ------
	               R(1,2)       3.73154        0.00012        0.00337       3.73491
	-------------------------------------------------------------------------------

	                                 ==> Convergence Check <==

	Measures of convergence in internal coordinates in au.

	Criteria marked as inactive (o), active & met (*), and active & unmet ( ).

	----------------------------------------------------------------------------------------------
	   Step    Total Energy     Delta E     Max Force     RMS Force      Max Disp      RMS Disp
	----------------------------------------------------------------------------------------------
	  Convergence Criteria     1.00e-06 *    3.00e-04 *             o    1.20e-03 *             o
	----------------------------------------------------------------------------------------------
	    17    -565.40736675   -5.19e-07 *    1.40e-05 *    1.40e-05 o    6.37e-03      6.37e-03 o  ~
	----------------------------------------------------------------------------------------------

Next Geometry in Ang
	Fragment 1 (Ang)

	    C   0.0000000000   0.0000000000   2.8714797593
	   Ar   0.0000000000   0.0000000000  -0.8634347844

    Final optimized geometry and variables:
    Molecular point group: c2v
    Full point group: C_inf_v

    Geometry (in Angstrom), charge = -1, multiplicity = 4:

    C            0.000000000000     0.000000000000     2.869793402974
    AR           0.000000000000     0.000000000000    -0.861748427993

    Psi4 stopped on: Thursday, 17 July 2025 10:23AM
    Psi4 wall time for execution: 0:00:17.94

*** Psi4 exiting successfully. Buy a developer a beer!
