                               Psi4 1.9.1 release

  ==> Input File <==

--------------------------------------------------------------------------
molecule {
-1 4
H   0.00000        0.60000        0.00000
N   0.00000       -0.60000        0.00000
}

set {
basis              cc-pvdz
reference          uks
maxiter            500
geom_maxiter       500
DAMPING_PERCENTAGE 1
guess              SAP
}

optimize('b3lyp')
--------------------------------------------------------------------------

    Molecular point group: c2v
  Charge       = -1
  Multiplicity = 4
  Basis Set: CC-PVDZ
    Blend: CC-PVDZ
  Basis Set: (CC-PVDZ AUX)
    Blend: CC-PVDZ-JKFIT
  @DF-UKS Final Energy:   -55.07664378726966
    Total Energy =                        -55.0766437872696599
 Dipole X            :          0.0000000            0.0000000            0.0000000
 Dipole Y            :          0.0000000            0.0000000            0.0000000
 Dipole Z            :         -2.5069270            1.0496678           -1.4572592
 Magnitude           :                                                    1.4572592
    Molecular point group: c2v
  Basis Set: CC-PVDZ
    Blend: CC-PVDZ
  Basis Set: (CC-PVDZ AUX)
    Blend: CC-PVDZ-JKFIT
  Basis Set: CC-PVDZ
    Blend: CC-PVDZ
  Basis Set: (CC-PVDZ AUX)
    Blend: CC-PVDZ-JKFIT
  @DF-UKS Final Energy:   -55.08251492475161
    Total Energy =                        -55.0825149247516066
  Basis Set: CC-PVDZ
    Blend: CC-PVDZ
  Basis Set: (CC-PVDZ AUX)
    Blend: CC-PVDZ-JKFIT
  Basis Set: CC-PVDZ
    Blend: CC-PVDZ
  @DF-UKS Final Energy:   -55.10222217368747
    Total Energy =                        -55.1022221736874798
  @DF-UKS Final Energy:   -55.11016467885948
    Total Energy =                        -55.1101646788594763
  @DF-UKS Final Energy:   -55.11141578141854
    Total Energy =                        -55.1114157814185432
  @DF-UKS Final Energy:   -55.11177313319008
    Total Energy =                        -55.1117731331900700
  @DF-UKS Final Energy:   -55.11182812569162
    Total Energy =                        -55.1118281256916163
  Basis Set: (CC-PVDZ AUX)
    Blend: CC-PVDZ-JKFIT
  Basis Set: CC-PVDZ
    Blend: CC-PVDZ
  Basis Set: (CC-PVDZ AUX)
    Blend: CC-PVDZ-JKFIT
  @DF-UKS Final Energy:   -55.11183933334229
    Total Energy =                        -55.1118393333422887
  Basis Set: CC-PVDZ
    Blend: CC-PVDZ
  Basis Set: (CC-PVDZ AUX)
    Blend: CC-PVDZ-JKFIT
  Charge       = -1
  Multiplicity = 4
  Basis Set: CC-PVDZ
    Blend: CC-PVDZ
  Basis Set: (CC-PVDZ AUX)
    Blend: CC-PVDZ-JKFIT

    Orbital Energies [Eh]
    ---------------------

    Alpha Occupied:

       1A1   -14.094874     2A1    -0.473657     1B1    -0.029774
       1B2    -0.029774     3A1    -0.017701     4A1     0.084543

    Alpha Virtual:

       5A1     0.775496     2B2     0.941321     2B1     0.941321
       6A1     0.977580     7A1     1.094322     3B2     1.614523
       3B1     1.614523     8A1     1.734142     9A1     1.989751
       1A2     1.989752     4B2     2.012356     4B1     2.012356
      10A1     2.065149

    Beta Occupied:

       1A1   -14.047039     2A1    -0.305392     3A1     0.083091

    Beta Virtual:

       1B1     0.208594     1B2     0.208594     4A1     0.227836
       5A1     0.824869     2B2     1.049956     2B1     1.049956
       6A1     1.053851     7A1     1.178883     3B2     1.663112
       3B1     1.663112     8A1     1.789414     4B2     2.131507
       4B1     2.131507     9A1     2.135384     1A2     2.135385
      10A1     2.170405

    Final Occupation by Irrep:
             A1    A2    B1    B2
    DOCC [     3,    0,    0,    0 ]
    SOCC [     1,    0,    1,    1 ]
    NA   [     4,    0,    1,    1 ]
    NB   [     3,    0,    0,    0 ]

  @DF-UKS Final Energy:   -55.11184021218443

   => Energetics <=

    Nuclear Repulsion Energy =              1.6299286480772581
    One-Electron Energy =                 -80.3741201688799549
    Two-Electron Energy =                  29.5774308749641222
    DFT Exchange-Correlation Energy =      -5.9450795663458464
    Empirical Dispersion Energy =           0.0000000000000000
    VV10 Nonlocal Energy =                  0.0000000000000000
    Total Energy =                        -55.1118402121844255

  UHF NO Occupations:
  HONO-2 :    1 B1 1.0000000
  HONO-1 :    1 B2 1.0000000
  HONO-0 :    4 A1 1.0000000
  LUNO+0 :    5 A1 0.0022084
  LUNO+1 :    6 A1 0.0007218
  LUNO+2 :    7 A1 0.0000001
  LUNO+3 :    8 A1 0.0000000

Computation Completed

Properties will be evaluated at   0.000000,   0.000000,   0.000000 [a0]

Properties computed using the SCF density matrix

 Multipole Moments:

 ------------------------------------------------------------------------------------
     Multipole            Electronic (a.u.)      Nuclear  (a.u.)        Total (a.u.)
 ------------------------------------------------------------------------------------

 L = 1.  Multiply by 2.5417464519 to convert [e a0] to [Debye]
 Dipole X            :          0.0000000            0.0000000            0.0000000
 Dipole Y            :          0.0000000            0.0000000            0.0000000
 Dipole Z            :         -4.2968748            1.9879306           -2.3089441
 Magnitude           :                                                    2.3089441

 ------------------------------------------------------------------------------------

*** tstop() called on Joses-MacBook-Pro-2.local at Thu Jul 17 09:11:42 2025
Module time:
	user time   =       0.91 seconds =       0.02 minutes
	system time =       3.12 seconds =       0.05 minutes
	total time  =          0 seconds =       0.00 minutes
Total time:
	user time   =      11.75 seconds =       0.20 minutes
	system time =      35.19 seconds =       0.59 minutes
	total time  =          5 seconds =       0.08 minutes

*** tstart() called on Joses-MacBook-Pro-2.local
*** at Thu Jul 17 09:11:42 2025

         ------------------------------------------------------------
                                   SCF GRAD
                          Rob Parrish, Justin Turney,
                       Andy Simmonett, and Alex Sokolov
         ------------------------------------------------------------

  ==> Geometry <==

    Molecular point group: c2v
    Full point group: C_inf_v

    Geometry (in Angstrom), charge = -1, multiplicity = 4:

       Center              X                  Y                   Z               Mass
    ------------   -----------------  -----------------  -----------------  -----------------
         H            0.000000000000     0.000000000000     2.120055644052     1.007825032230
         N            0.000000000000     0.000000000000    -0.152584007420    14.003074004430

  Nuclear repulsion =    1.629928648077258

  ==> Basis Set <==

  Basis Set: CC-PVDZ
    Blend: CC-PVDZ
    Number of shells: 9
    Number of basis functions: 19
    Number of Cartesian functions: 20
    Spherical Harmonics?: true
    Max angular momentum: 2

  ==> DFJKGrad: Density-Fitted SCF Gradients <==

    Gradient:                    1
    J tasked:                  Yes
    K tasked:                  Yes
    wK tasked:                  No
    OpenMP threads:              1
    Integrals threads:           1
    Memory [MiB]:              375
    Schwarz Cutoff:          1E-12
    Fitting Condition:       1E-10

   => Auxiliary Basis Set <=

  Basis Set: (CC-PVDZ AUX)
    Blend: CC-PVDZ-JKFIT
    Number of shells: 33
    Number of basis functions: 93
    Number of Cartesian functions: 106
    Spherical Harmonics?: true
    Max angular momentum: 3

  ==> DFT Potential <==

   => LibXC <=

    Version 6.2.2
    S. Lehtola, C. Steigemann, M. J.T. Oliveira, and M. A.L. Marques.,  SoftwareX 7, 1â€“5 (2018) (10.1016/j.softx.2017.11.002)

   => Composite Functional: B3LYP <=

    B3LYP Hyb-GGA Exchange-Correlation Functional

    P. J. Stephens, F. J. Devlin, C. F. Chabalowski, and M. J. Frisch.,  J. Phys. Chem. 98, 11623 (1994) (10.1021/j100096a001)

    Deriv               =              1
    GGA                 =           TRUE
    Meta                =          FALSE

    Exchange Hybrid     =           TRUE
    MP2 Hybrid          =          FALSE

   => Exchange Functionals <=

    0.0800   Slater exchange
    0.7200         Becke 88

   => Exact (HF) Exchange <=

    0.2000               HF

   => Correlation Functionals <=

    0.1900   Vosko, Wilk & Nusair (VWN5_RPA)
    0.8100   Lee, Yang & Parr

   => LibXC Density Thresholds  <==

    XC_HYB_GGA_XC_B3LYP:  1.00E-15

   => Molecular Quadrature <=

    Radial Scheme          =       TREUTLER
    Pruning Scheme         =           NONE
    Nuclear Scheme         =       TREUTLER

    Blocking Scheme        =         OCTREE
    BS radius alpha        =              1
    Pruning alpha          =              1
    Radial Points          =             75
    Spherical Points       =            302
    Total Points           =          43923
    Total Blocks           =            388
    Max Points             =            253
    Max Functions          =             19
    Weights Tolerance      =       1.00E-15

  -Total Gradient:
     Atom            X                  Y                   Z
    ------   -----------------  -----------------  -----------------
       1        0.000000000000     0.000000000000    -0.000031394653
       2       -0.000000000000     0.000000000000     0.000031174299

*** tstop() called on Joses-MacBook-Pro-2.local at Thu Jul 17 09:11:42 2025
Module time:
	user time   =       0.27 seconds =       0.00 minutes
	system time =       0.78 seconds =       0.01 minutes
	total time  =          0 seconds =       0.00 minutes
Total time:
	user time   =      12.03 seconds =       0.20 minutes
	system time =      35.97 seconds =       0.60 minutes
	total time  =          5 seconds =       0.08 minutes

    			-----------------------------------------

    			 OPTKING 3.0: for geometry optimizations

    			     By R.A. King, Bethel University

    			        with contributions from

    			    A.V. Copan, J. Cayton, A. Heide

    			-----------------------------------------

	                            ===> Fragment 1 <==

	 Z (Atomic Numbers)          Masses                          Geom
	       1.000000             1.007825          0.00000000  0.00000000  4.00632454
	       7.000000            14.003074          0.00000000  0.00000000 -0.28834199

	 - Coordinate -           - BOHR/RAD -       - ANG/DEG -
	 R(1,2)           =         4.294667           2.272640

	        --- Internal Coordinate Step in ANG or DEG, aJ/ANG or AJ/DEG ---
	-------------------------------------------------------------------------------
	           Coordinate      Previous         Force          Change          New
	           ----------      --------        ------          ------        ------
	               R(1,2)       2.27264        0.00026        0.00192       2.27456
	-------------------------------------------------------------------------------

	                                 ==> Convergence Check <==

	Measures of convergence in internal coordinates in au.

	Criteria marked as inactive (o), active & met (*), and active & unmet ( ).

	----------------------------------------------------------------------------------------------
	   Step    Total Energy     Delta E     Max Force     RMS Force      Max Disp      RMS Disp
	----------------------------------------------------------------------------------------------
	  Convergence Criteria     1.00e-06 *    3.00e-04 *             o    1.20e-03 *             o
	----------------------------------------------------------------------------------------------
	     9     -55.11184021   -8.79e-07 *    3.13e-05 *    3.13e-05 o    3.63e-03      3.63e-03 o  ~
	----------------------------------------------------------------------------------------------

Next Geometry in Ang
	Fragment 1 (Ang)

	    H   0.0000000000   0.0000000000   2.1210170991
	    N   0.0000000000   0.0000000000  -0.1535454625

    Final optimized geometry and variables:
    Molecular point group: c2v
    Full point group: C_inf_v

    Geometry (in Angstrom), charge = -1, multiplicity = 4:

    H            0.000000000000     0.000000000000     2.120055644052
    N            0.000000000000     0.000000000000    -0.152584007420

    Psi4 stopped on: Thursday, 17 July 2025 09:11AM
    Psi4 wall time for execution: 0:00:06.10

*** Psi4 exiting successfully. Buy a developer a beer!
