                               Psi4 1.9.1 release

  ==> Input File <==

--------------------------------------------------------------------------
molecule {
-1 4
Al   0.00000        0.60000        0.00000
Al   0.00000       -0.60000        0.00000
}

set {
basis              cc-pvdz
reference          uks
maxiter            500
geom_maxiter       500
DAMPING_PERCENTAGE 1
guess              SAP
}

optimize('b3lyp')
--------------------------------------------------------------------------

    Molecular point group: d2h
  Charge       = -1
  Multiplicity = 4
  Basis Set: CC-PVDZ
    Blend: CC-PVDZ
  Basis Set: (CC-PVDZ AUX)
    Blend: CC-PVDZ-JKFIT
  @DF-UKS Final Energy:  -483.77940340260670
    Total Energy =                       -483.7794034026067038
 Dipole X            :          0.0000000            0.0000000            0.0000000
 Dipole Y            :          0.0000000            0.0000000            0.0000000
 Dipole Z            :          0.0000000            0.0000000            0.0000000
 Magnitude           :                                                    0.0000000
    Molecular point group: d2h
  Basis Set: CC-PVDZ
    Blend: CC-PVDZ
  Basis Set: (CC-PVDZ AUX)
    Blend: CC-PVDZ-JKFIT
  Basis Set: CC-PVDZ
    Blend: CC-PVDZ
  Basis Set: (CC-PVDZ AUX)
    Blend: CC-PVDZ-JKFIT
  @DF-UKS Final Energy:  -483.79163648271816
    Total Energy =                       -483.7916364827181610
  Basis Set: CC-PVDZ
    Blend: CC-PVDZ
  Basis Set: (CC-PVDZ AUX)
    Blend: CC-PVDZ-JKFIT
  Basis Set: CC-PVDZ
    Blend: CC-PVDZ
  @DF-UKS Final Energy:  -483.81533021934814
    Total Energy =                       -483.8153302193481409
  @DF-UKS Final Energy:  -483.90207428986162
    Total Energy =                       -483.9020742898616163
  @DF-UKS Final Energy:  -484.30330004277806
    Total Energy =                       -484.3033000427780621
  @DF-UKS Final Energy:  -484.55017450705031
    Total Energy =                       -484.5501745070503148
  @DF-UKS Final Energy:  -484.73328810285039
    Total Energy =                       -484.7332881028503948
  @DF-UKS Final Energy:  -484.81734845216215
    Total Energy =                       -484.8173484521621504
  @DF-UKS Final Energy:  -484.84312365744006
    Total Energy =                       -484.8431236574400600
  @DF-UKS Final Energy:  -484.85393366315429
    Total Energy =                       -484.8539336631542938
  @DF-UKS Final Energy:  -484.85704577541480
    Total Energy =                       -484.8570457754148038
  @DF-UKS Final Energy:  -484.85755204731657
    Total Energy =                       -484.8575520473165739
  @DF-UKS Final Energy:  -484.85765647618115
    Total Energy =                       -484.8576564761811483
  Basis Set: (CC-PVDZ AUX)
    Blend: CC-PVDZ-JKFIT
  Basis Set: CC-PVDZ
    Blend: CC-PVDZ
  Basis Set: (CC-PVDZ AUX)
    Blend: CC-PVDZ-JKFIT
  @DF-UKS Final Energy:  -484.85766425695948
    Total Energy =                       -484.8576642569594810
  Basis Set: CC-PVDZ
    Blend: CC-PVDZ
  Basis Set: (CC-PVDZ AUX)
    Blend: CC-PVDZ-JKFIT
  Charge       = -1
  Multiplicity = 4
  Basis Set: CC-PVDZ
    Blend: CC-PVDZ
  Basis Set: (CC-PVDZ AUX)
    Blend: CC-PVDZ-JKFIT

    Orbital Energies [Eh]
    ---------------------

    Alpha Occupied:

       1B2u  -55.854742     1Ag   -55.854742     2B2u   -3.936740
       2Ag    -3.936701     1B1u   -2.490010     1B3u   -2.490010
       1B3g   -2.489956     1B1g   -2.489956     3Ag    -2.489086
       3B2u   -2.488423     4Ag    -0.197136     4B2u   -0.089567
       5Ag     0.021413     2B3u    0.021957     2B1u    0.021957

    Alpha Virtual:

       2B3g    0.125818     2B1g    0.125818     5B2u    0.192225
       6Ag     0.293824     7Ag     0.340522     3B3u    0.350983
       3B1u    0.350983     6B2u    0.382355     8Ag     0.408355
       1B2g    0.408356     3B3g    0.411093     3B1g    0.411093
       4B3u    0.418263     4B1u    0.418263     7B2u    0.479075
       8B2u    0.488205     1Au     0.488205     9Ag     0.594829
       4B1g    0.623015     4B3g    0.623015     9B2u    0.818593

    Beta Occupied:

       1B2u  -55.852223     1Ag   -55.852223     2B2u   -3.933713
       2Ag    -3.933647     1B1u   -2.486053     1B3u   -2.486053
       1B3g   -2.486008     1B1g   -2.486008     3Ag    -2.483886
       3B2u   -2.483268     4Ag    -0.146916     4B2u   -0.050834

    Beta Virtual:

       2B3u    0.093215     2B1u    0.093215     5Ag     0.096721
       2B3g    0.155565     2B1g    0.155565     5B2u    0.212714
       6Ag     0.326127     7Ag     0.360805     3B3u    0.380813
       3B1u    0.380813     6B2u    0.411147     3B3g    0.427760
       3B1g    0.427760     8Ag     0.445105     1B2g    0.445106
       4B3u    0.451646     4B1u    0.451646     7B2u    0.494215
       8B2u    0.518341     1Au     0.518342     9Ag     0.626216
       4B1g    0.655351     4B3g    0.655351     9B2u    0.842866

    Final Occupation by Irrep:
             Ag   B1g   B2g   B3g    Au   B1u   B2u   B3u
    DOCC [     4,    1,    0,    1,    0,    1,    4,    1 ]
    SOCC [     1,    0,    0,    0,    0,    1,    0,    1 ]
    NA   [     5,    1,    0,    1,    0,    2,    4,    2 ]
    NB   [     4,    1,    0,    1,    0,    1,    4,    1 ]

  @DF-UKS Final Energy:  -484.85766485145257

   => Energetics <=

    Nuclear Repulsion Energy =             34.5495715602786362
    One-Electron Energy =                -747.9025402882152775
    Two-Electron Energy =                 258.6225561825189629
    DFT Exchange-Correlation Energy =     -30.1272523060349222
    Empirical Dispersion Energy =           0.0000000000000000
    VV10 Nonlocal Energy =                  0.0000000000000000
    Total Energy =                       -484.8576648514525687

  UHF NO Occupations:
  HONO-2 :    5 Ag 1.0000000
  HONO-1 :    2B1u 1.0000000
  HONO-0 :    2B3u 1.0000000
  LUNO+0 :    5B2u 0.0002862
  LUNO+1 :    6 Ag 0.0001429
  LUNO+2 :    6B2u 0.0000000
  LUNO+3 :    2B3g 0.0000000

Computation Completed

Properties will be evaluated at   0.000000,   0.000000,   0.000000 [a0]

Properties computed using the SCF density matrix

 Multipole Moments:

 ------------------------------------------------------------------------------------
     Multipole            Electronic (a.u.)      Nuclear  (a.u.)        Total (a.u.)
 ------------------------------------------------------------------------------------

 L = 1.  Multiply by 2.5417464519 to convert [e a0] to [Debye]
 Dipole X            :          0.0000000            0.0000000            0.0000000
 Dipole Y            :          0.0000000            0.0000000            0.0000000
 Dipole Z            :          0.0000000            0.0000000            0.0000000
 Magnitude           :                                                    0.0000000

 ------------------------------------------------------------------------------------

*** tstop() called on Joses-MacBook-Pro-2.local at Thu Jul 17 11:34:39 2025
Module time:
	user time   =       5.52 seconds =       0.09 minutes
	system time =       2.10 seconds =       0.03 minutes
	total time  =          1 seconds =       0.02 minutes
Total time:
	user time   =     263.13 seconds =       4.39 minutes
	system time =      68.72 seconds =       1.15 minutes
	total time  =         33 seconds =       0.55 minutes

*** tstart() called on Joses-MacBook-Pro-2.local
*** at Thu Jul 17 11:34:39 2025

         ------------------------------------------------------------
                                   SCF GRAD
                          Rob Parrish, Justin Turney,
                       Andy Simmonett, and Alex Sokolov
         ------------------------------------------------------------

  ==> Geometry <==

    Molecular point group: d2h
    Full point group: D_inf_h

    Geometry (in Angstrom), charge = -1, multiplicity = 4:

       Center              X                  Y                   Z               Mass
    ------------   -----------------  -----------------  -----------------  -----------------
         AL          -0.000000000000     1.294241065294     0.000000000000    26.981538530000
         AL           0.000000000000    -1.294241065294     0.000000000000    26.981538530000

  Nuclear repulsion =   34.549571560278636

  ==> Basis Set <==

  Basis Set: CC-PVDZ
    Blend: CC-PVDZ
    Number of shells: 16
    Number of basis functions: 36
    Number of Cartesian functions: 38
    Spherical Harmonics?: true
    Max angular momentum: 2

  ==> DFJKGrad: Density-Fitted SCF Gradients <==

    Gradient:                    1
    J tasked:                  Yes
    K tasked:                  Yes
    wK tasked:                  No
    OpenMP threads:              1
    Integrals threads:           1
    Memory [MiB]:              375
    Schwarz Cutoff:          1E-12
    Fitting Condition:       1E-10

   => Auxiliary Basis Set <=

  Basis Set: (CC-PVDZ AUX)
    Blend: CC-PVDZ-JKFIT
    Number of shells: 72
    Number of basis functions: 224
    Number of Cartesian functions: 260
    Spherical Harmonics?: true
    Max angular momentum: 3

  ==> DFT Potential <==

   => LibXC <=

    Version 6.2.2
    S. Lehtola, C. Steigemann, M. J.T. Oliveira, and M. A.L. Marques.,  SoftwareX 7, 1â€“5 (2018) (10.1016/j.softx.2017.11.002)

   => Composite Functional: B3LYP <=

    B3LYP Hyb-GGA Exchange-Correlation Functional

    P. J. Stephens, F. J. Devlin, C. F. Chabalowski, and M. J. Frisch.,  J. Phys. Chem. 98, 11623 (1994) (10.1021/j100096a001)

    Deriv               =              1
    GGA                 =           TRUE
    Meta                =          FALSE

    Exchange Hybrid     =           TRUE
    MP2 Hybrid          =          FALSE

   => Exchange Functionals <=

    0.0800   Slater exchange
    0.7200         Becke 88

   => Exact (HF) Exchange <=

    0.2000               HF

   => Correlation Functionals <=

    0.1900   Vosko, Wilk & Nusair (VWN5_RPA)
    0.8100   Lee, Yang & Parr

   => LibXC Density Thresholds  <==

    XC_HYB_GGA_XC_B3LYP:  1.00E-15

   => Molecular Quadrature <=

    Radial Scheme          =       TREUTLER
    Pruning Scheme         =           NONE
    Nuclear Scheme         =       TREUTLER

    Blocking Scheme        =         OCTREE
    BS radius alpha        =              1
    Pruning alpha          =              1
    Radial Points          =             75
    Spherical Points       =            302
    Total Points           =          42374
    Total Blocks           =            400
    Max Points             =            250
    Max Functions          =             36
    Weights Tolerance      =       1.00E-15

  -Total Gradient:
     Atom            X                  Y                   Z
    ------   -----------------  -----------------  -----------------
       1        0.000000000000    -0.000072144443    -0.000000000000
       2       -0.000000000000     0.000072144443     0.000000000000

*** tstop() called on Joses-MacBook-Pro-2.local at Thu Jul 17 11:34:39 2025
Module time:
	user time   =       2.16 seconds =       0.04 minutes
	system time =       1.44 seconds =       0.02 minutes
	total time  =          0 seconds =       0.00 minutes
Total time:
	user time   =     265.29 seconds =       4.42 minutes
	system time =      70.17 seconds =       1.17 minutes
	total time  =         33 seconds =       0.55 minutes

    			-----------------------------------------

    			 OPTKING 3.0: for geometry optimizations

    			     By R.A. King, Bethel University

    			        with contributions from

    			    A.V. Copan, J. Cayton, A. Heide

    			-----------------------------------------

	                            ===> Fragment 1 <==

	 Z (Atomic Numbers)          Masses                          Geom
	      13.000000            26.981539         -0.00000000  2.44576115  0.00000000
	      13.000000            26.981539          0.00000000 -2.44576115  0.00000000

	 - Coordinate -           - BOHR/RAD -       - ANG/DEG -
	 R(1,2)           =         4.891522           2.588482

	        --- Internal Coordinate Step in ANG or DEG, aJ/ANG or AJ/DEG ---
	-------------------------------------------------------------------------------
	           Coordinate      Previous         Force          Change          New
	           ----------      --------        ------          ------        ------
	               R(1,2)       2.58848        0.00059        0.00066       2.58914
	-------------------------------------------------------------------------------

	                                 ==> Convergence Check <==

	Measures of convergence in internal coordinates in au.

	Criteria marked as inactive (o), active & met (*), and active & unmet ( ).

	----------------------------------------------------------------------------------------------
	   Step    Total Energy     Delta E     Max Force     RMS Force      Max Disp      RMS Disp
	----------------------------------------------------------------------------------------------
	  Convergence Criteria     1.00e-06 *    3.00e-04 *             o    1.20e-03 *             o
	----------------------------------------------------------------------------------------------
	    15    -484.85766485   -5.94e-07 *    7.21e-05 *    7.21e-05 o    1.24e-03      1.24e-03 o  ~
	----------------------------------------------------------------------------------------------

Next Geometry in Ang
	Fragment 1 (Ang)

	   Al  -0.0000000000   1.2945695360   0.0000000000
	   Al   0.0000000000  -1.2945695360   0.0000000000

    Final optimized geometry and variables:
    Molecular point group: d2h
    Full point group: D_inf_h

    Geometry (in Angstrom), charge = -1, multiplicity = 4:

    AL          -0.000000000000     1.294241065294     0.000000000000
    AL           0.000000000000    -1.294241065294     0.000000000000

    Psi4 stopped on: Thursday, 17 July 2025 11:34AM
    Psi4 wall time for execution: 0:00:33.86

*** Psi4 exiting successfully. Buy a developer a beer!
