                               Psi4 1.9.1 release

  ==> Input File <==

--------------------------------------------------------------------------
molecule {
-1 4
Be   0.00000        0.60000        0.00000
Mg   0.00000       -0.60000        0.00000
}

set {
basis              cc-pvdz
reference          uks
maxiter            500
geom_maxiter       500
DAMPING_PERCENTAGE 1
guess              SAP
}

optimize('b3lyp')
--------------------------------------------------------------------------

    Molecular point group: c2v
  Charge       = -1
  Multiplicity = 4
  Basis Set: CC-PVDZ
    Blend: CC-PVDZ
  Basis Set: (CC-PVDZ AUX)
    Blend: DEF2-UNIVERSAL-JKFIT
  @DF-UKS Final Energy:  -214.32988891189561
    Total Energy =                       -214.3298889118955799
 Dipole X            :          0.0000000            0.0000000            0.0000000
 Dipole Y            :          0.0000000            0.0000000            0.0000000
 Dipole Z            :          0.5755014           -0.8388361           -0.2633347
 Magnitude           :                                                    0.2633347
    Molecular point group: c2v
  Basis Set: CC-PVDZ
    Blend: CC-PVDZ
  Basis Set: (CC-PVDZ AUX)
    Blend: DEF2-UNIVERSAL-JKFIT
  Basis Set: CC-PVDZ
    Blend: CC-PVDZ
  Basis Set: (CC-PVDZ AUX)
    Blend: DEF2-UNIVERSAL-JKFIT
  @DF-UKS Final Energy:  -214.41286029189951
    Total Energy =                       -214.4128602918995057
  Basis Set: CC-PVDZ
    Blend: CC-PVDZ
  Basis Set: (CC-PVDZ AUX)
    Blend: DEF2-UNIVERSAL-JKFIT
  Basis Set: CC-PVDZ
    Blend: CC-PVDZ
  @DF-UKS Final Energy:  -214.51277614272601
    Total Energy =                       -214.5127761427260111
  @DF-UKS Final Energy:  -214.63664314115800
    Total Energy =                       -214.6366431411579754
  @DF-UKS Final Energy:  -214.69853853201096
    Total Energy =                       -214.6985385320109856
  @DF-UKS Final Energy:  -214.72217126102080
    Total Energy =                       -214.7221712610208044
  @DF-UKS Final Energy:  -214.73024813562117
    Total Energy =                       -214.7302481356211672
  @DF-UKS Final Energy:  -214.73224889880535
    Total Energy =                       -214.7322488988053522
  @DF-UKS Final Energy:  -214.73248376711797
    Total Energy =                       -214.7324837671179978
  Basis Set: (CC-PVDZ AUX)
    Blend: DEF2-UNIVERSAL-JKFIT
  Basis Set: CC-PVDZ
    Blend: CC-PVDZ
  Basis Set: (CC-PVDZ AUX)
    Blend: DEF2-UNIVERSAL-JKFIT
  @DF-UKS Final Energy:  -214.73251606609645
    Total Energy =                       -214.7325160660964798
  Basis Set: CC-PVDZ
    Blend: CC-PVDZ
  Basis Set: (CC-PVDZ AUX)
    Blend: DEF2-UNIVERSAL-JKFIT
  Charge       = -1
  Multiplicity = 4
  Basis Set: CC-PVDZ
    Blend: CC-PVDZ
  Basis Set: (CC-PVDZ AUX)
    Blend: DEF2-UNIVERSAL-JKFIT

    Orbital Energies [Eh]
    ---------------------

    Alpha Occupied:

       1A1   -46.649374     2A1    -3.873930     3A1    -2.932305
       4A1    -1.676028     1B1    -1.675721     1B2    -1.675721
       5A1    -0.107194     6A1    -0.018848     2B1     0.045733
       2B2     0.045733

    Alpha Virtual:

       7A1     0.093454     3B2     0.140519     3B1     0.140519
       8A1     0.179240     9A1     0.242427     4B2     0.300660
       4B1     0.300660    10A1     0.314839     5B1     0.374190
       5B2     0.374190    11A1     0.394697     1A2     0.469942
      12A1     0.469943    13A1     0.490858     6B1     0.493594
       6B2     0.493594     2A2     0.668933    14A1     0.668933
      15A1     0.730355     7B2     0.816467     7B1     0.816467
      16A1     0.993866

    Beta Occupied:

       1A1   -46.647471     2A1    -3.865268     3A1    -2.929238
       4A1    -1.674060     1B1    -1.672372     1B2    -1.672372
       5A1    -0.066432

    Beta Virtual:

       6A1     0.062989     2B1     0.117105     2B2     0.117105
       7A1     0.124464     3B2     0.181942     3B1     0.181942
       8A1     0.195406     9A1     0.264123     4B2     0.322110
       4B1     0.322110    10A1     0.331983     5B1     0.404286
       5B2     0.404286    11A1     0.425708     1A2     0.505058
      12A1     0.505059    13A1     0.513261     6B1     0.526015
       6B2     0.526015    14A1     0.722008     2A2     0.722008
      15A1     0.757675     7B2     0.855511     7B1     0.855511
      16A1     1.012894

    Final Occupation by Irrep:
             A1    A2    B1    B2
    DOCC [     5,    0,    1,    1 ]
    SOCC [     1,    0,    1,    1 ]
    NA   [     6,    0,    2,    2 ]
    NB   [     5,    0,    1,    1 ]

  @DF-UKS Final Energy:  -214.73251738346269

   => Energetics <=

    Nuclear Repulsion Energy =             10.9080978891103904
    One-Electron Energy =                -323.0314459601005410
    Two-Electron Energy =                 113.0562251013448503
    DFT Exchange-Correlation Energy =     -15.6653944138173653
    Empirical Dispersion Energy =           0.0000000000000000
    VV10 Nonlocal Energy =                  0.0000000000000000
    Total Energy =                       -214.7325173834626639

  UHF NO Occupations:
  HONO-2 :    6 A1 1.0000000
  HONO-1 :    2 B2 1.0000000
  HONO-0 :    2 B1 1.0000000
  LUNO+0 :    7 A1 0.0115764
  LUNO+1 :    8 A1 0.0000004
  LUNO+2 :    3 B2 0.0000002
  LUNO+3 :    3 B1 0.0000002

Computation Completed

Properties will be evaluated at   0.000000,   0.000000,   0.000000 [a0]

Properties computed using the SCF density matrix

 Multipole Moments:

 ------------------------------------------------------------------------------------
     Multipole            Electronic (a.u.)      Nuclear  (a.u.)        Total (a.u.)
 ------------------------------------------------------------------------------------

 L = 1.  Multiply by 2.5417464519 to convert [e a0] to [Debye]
 Dipole X            :          0.0000000            0.0000000            0.0000000
 Dipole Y            :          0.0000000            0.0000000            0.0000000
 Dipole Z            :          0.7075799           -1.6277557           -0.9201758
 Magnitude           :                                                    0.9201758

 ------------------------------------------------------------------------------------

*** tstop() called on Joses-MacBook-Pro-2.local at Thu Jul 17 09:43:26 2025
Module time:
	user time   =       3.53 seconds =       0.06 minutes
	system time =       3.83 seconds =       0.06 minutes
	total time  =          0 seconds =       0.00 minutes
Total time:
	user time   =      60.01 seconds =       1.00 minutes
	system time =      62.68 seconds =       1.04 minutes
	total time  =         12 seconds =       0.20 minutes

*** tstart() called on Joses-MacBook-Pro-2.local
*** at Thu Jul 17 09:43:26 2025

         ------------------------------------------------------------
                                   SCF GRAD
                          Rob Parrish, Justin Turney,
                       Andy Simmonett, and Alex Sokolov
         ------------------------------------------------------------

  ==> Geometry <==

    Molecular point group: c2v
    Full point group: C_inf_v

    Geometry (in Angstrom), charge = -1, multiplicity = 4:

       Center              X                  Y                   Z               Mass
    ------------   -----------------  -----------------  -----------------  -----------------
         BE           0.000000000000     0.000000000000     1.692608066687     9.012183065000
         MG           0.000000000000     0.000000000000    -0.635983624585    23.985041697000

  Nuclear repulsion =   10.908097889110390

  ==> Basis Set <==

  Basis Set: CC-PVDZ
    Blend: CC-PVDZ
    Number of shells: 14
    Number of basis functions: 32
    Number of Cartesian functions: 34
    Spherical Harmonics?: true
    Max angular momentum: 2

  ==> DFJKGrad: Density-Fitted SCF Gradients <==

    Gradient:                    1
    J tasked:                  Yes
    K tasked:                  Yes
    wK tasked:                  No
    OpenMP threads:              1
    Integrals threads:           1
    Memory [MiB]:              375
    Schwarz Cutoff:          1E-12
    Fitting Condition:       1E-10

   => Auxiliary Basis Set <=

  Basis Set: (CC-PVDZ AUX)
    Blend: DEF2-UNIVERSAL-JKFIT
    Number of shells: 51
    Number of basis functions: 163
    Number of Cartesian functions: 197
    Spherical Harmonics?: true
    Max angular momentum: 4

  ==> DFT Potential <==

   => LibXC <=

    Version 6.2.2
    S. Lehtola, C. Steigemann, M. J.T. Oliveira, and M. A.L. Marques.,  SoftwareX 7, 1â€“5 (2018) (10.1016/j.softx.2017.11.002)

   => Composite Functional: B3LYP <=

    B3LYP Hyb-GGA Exchange-Correlation Functional

    P. J. Stephens, F. J. Devlin, C. F. Chabalowski, and M. J. Frisch.,  J. Phys. Chem. 98, 11623 (1994) (10.1021/j100096a001)

    Deriv               =              1
    GGA                 =           TRUE
    Meta                =          FALSE

    Exchange Hybrid     =           TRUE
    MP2 Hybrid          =          FALSE

   => Exchange Functionals <=

    0.0800   Slater exchange
    0.7200         Becke 88

   => Exact (HF) Exchange <=

    0.2000               HF

   => Correlation Functionals <=

    0.1900   Vosko, Wilk & Nusair (VWN5_RPA)
    0.8100   Lee, Yang & Parr

   => LibXC Density Thresholds  <==

    XC_HYB_GGA_XC_B3LYP:  1.00E-15

   => Molecular Quadrature <=

    Radial Scheme          =       TREUTLER
    Pruning Scheme         =           NONE
    Nuclear Scheme         =       TREUTLER

    Blocking Scheme        =         OCTREE
    BS radius alpha        =              1
    Pruning alpha          =              1
    Radial Points          =             75
    Spherical Points       =            302
    Total Points           =          42962
    Total Blocks           =            419
    Max Points             =            256
    Max Functions          =             32
    Weights Tolerance      =       1.00E-15

  -Total Gradient:
     Atom            X                  Y                   Z
    ------   -----------------  -----------------  -----------------
       1       -0.000000000000     0.000000000000    -0.000080612787
       2        0.000000000000    -0.000000000000     0.000073748819

*** tstop() called on Joses-MacBook-Pro-2.local at Thu Jul 17 09:43:27 2025
Module time:
	user time   =       1.03 seconds =       0.02 minutes
	system time =       1.48 seconds =       0.02 minutes
	total time  =          1 seconds =       0.02 minutes
Total time:
	user time   =      61.04 seconds =       1.02 minutes
	system time =      64.17 seconds =       1.07 minutes
	total time  =         13 seconds =       0.22 minutes

    			-----------------------------------------

    			 OPTKING 3.0: for geometry optimizations

    			     By R.A. King, Bethel University

    			        with contributions from

    			    A.V. Copan, J. Cayton, A. Heide

    			-----------------------------------------

	                            ===> Fragment 1 <==

	 Z (Atomic Numbers)          Masses                          Geom
	       4.000000             9.012183          0.00000000  0.00000000  3.19856568
	      12.000000            23.985042          0.00000000  0.00000000 -1.20183487

	 - Coordinate -           - BOHR/RAD -       - ANG/DEG -
	 R(1,2)           =         4.400401           2.328592

	        --- Internal Coordinate Step in ANG or DEG, aJ/ANG or AJ/DEG ---
	-------------------------------------------------------------------------------
	           Coordinate      Previous         Force          Change          New
	           ----------      --------        ------          ------        ------
	               R(1,2)       2.32859        0.00064        0.00063       2.32922
	-------------------------------------------------------------------------------

	                                 ==> Convergence Check <==

	Measures of convergence in internal coordinates in au.

	Criteria marked as inactive (o), active & met (*), and active & unmet ( ).

	----------------------------------------------------------------------------------------------
	   Step    Total Energy     Delta E     Max Force     RMS Force      Max Disp      RMS Disp
	----------------------------------------------------------------------------------------------
	  Convergence Criteria     1.00e-06 *    3.00e-04 *             o    1.20e-03 *             o
	----------------------------------------------------------------------------------------------
	    11    -214.73251738   -1.32e-06      7.72e-05 *    7.72e-05 o    1.19e-03 *    1.19e-03 o  ~
	----------------------------------------------------------------------------------------------

Next Geometry in Ang
	Fragment 1 (Ang)

	   Be   0.0000000000   0.0000000000   1.6929241548
	   Mg   0.0000000000   0.0000000000  -0.6362997127

    Final optimized geometry and variables:
    Molecular point group: c2v
    Full point group: C_inf_v

    Geometry (in Angstrom), charge = -1, multiplicity = 4:

    BE           0.000000000000     0.000000000000     1.692608066687
    MG           0.000000000000     0.000000000000    -0.635983624585

    Psi4 stopped on: Thursday, 17 July 2025 09:43AM
    Psi4 wall time for execution: 0:00:12.91

*** Psi4 exiting successfully. Buy a developer a beer!
