                               Psi4 1.9.1 release

  ==> Input File <==

--------------------------------------------------------------------------
molecule {
-1 4
N   0.00000        0.60000        0.00000
P   0.00000       -0.60000        0.00000
}

set {
basis              cc-pvdz
reference          uks
maxiter            500
geom_maxiter       500
DAMPING_PERCENTAGE 1
guess              SAP
}

optimize('b3lyp')
--------------------------------------------------------------------------

    Molecular point group: c2v
  Charge       = -1
  Multiplicity = 4
  Basis Set: CC-PVDZ
    Blend: CC-PVDZ
  Basis Set: (CC-PVDZ AUX)
    Blend: CC-PVDZ-JKFIT
  @DF-UKS Final Energy:  -395.63855141015557
    Total Energy =                       -395.6385514101555714
 Dipole X            :          0.0000000            0.0000000            0.0000000
 Dipole Y            :          0.0000000            0.0000000            0.0000000
 Dipole Z            :         -0.0180684            0.3413456            0.3232771
 Magnitude           :                                                    0.3232771
    Molecular point group: c2v
  Basis Set: CC-PVDZ
    Blend: CC-PVDZ
  Basis Set: (CC-PVDZ AUX)
    Blend: CC-PVDZ-JKFIT
  Basis Set: CC-PVDZ
    Blend: CC-PVDZ
  Basis Set: (CC-PVDZ AUX)
    Blend: CC-PVDZ-JKFIT
  @DF-UKS Final Energy:  -395.82068978791364
    Total Energy =                       -395.8206897879136363
  Basis Set: CC-PVDZ
    Blend: CC-PVDZ
  Basis Set: (CC-PVDZ AUX)
    Blend: CC-PVDZ-JKFIT
  Basis Set: CC-PVDZ
    Blend: CC-PVDZ
  @DF-UKS Final Energy:  -395.90234953661877
    Total Energy =                       -395.9023495366186580
  @DF-UKS Final Energy:  -395.92811640381842
    Total Energy =                       -395.9281164038184215
  @DF-UKS Final Energy:  -395.94116185743559
    Total Energy =                       -395.9411618574355884
  @DF-UKS Final Energy:  -395.94509195830233
    Total Energy =                       -395.9450919583023278
  @DF-UKS Final Energy:  -395.94683552209943
    Total Energy =                       -395.9468355220994340
  @DF-UKS Final Energy:  -395.94722659319837
    Total Energy =                       -395.9472265931983657
  @DF-UKS Final Energy:  -395.94733622726028
    Total Energy =                       -395.9473362272603367
  Basis Set: (CC-PVDZ AUX)
    Blend: CC-PVDZ-JKFIT
  Basis Set: CC-PVDZ
    Blend: CC-PVDZ
  Basis Set: (CC-PVDZ AUX)
    Blend: CC-PVDZ-JKFIT
  @DF-UKS Final Energy:  -395.94735466767969
    Total Energy =                       -395.9473546676796900
  Basis Set: CC-PVDZ
    Blend: CC-PVDZ
  Basis Set: (CC-PVDZ AUX)
    Blend: CC-PVDZ-JKFIT
  Charge       = -1
  Multiplicity = 4
  Basis Set: CC-PVDZ
    Blend: CC-PVDZ
  Basis Set: (CC-PVDZ AUX)
    Blend: CC-PVDZ-JKFIT

    Orbital Energies [Eh]
    ---------------------

    Alpha Occupied:

       1A1   -76.825438     2A1   -14.088531     3A1    -6.290085
       4A1    -4.457406     1B1    -4.449831     1B2    -4.449831
       5A1    -0.547592     6A1    -0.264202     7A1    -0.094258
       2B2    -0.058415     2B1    -0.058415     3B2     0.091341
       3B1     0.091341

    Alpha Virtual:

       8A1     0.304860     9A1     0.596407     4B2     0.662891
       4B1     0.662891    10A1     0.679896    11A1     0.740215
       1A2     0.740216     5B1     0.781154     5B2     0.781154
      12A1     0.863958     6B2     1.021935     6B1     1.021935
      13A1     1.158803    14A1     1.466015     2A2     2.025505
      15A1     2.025506     7B1     2.151634     7B2     2.151634
      16A1     2.581704

    Beta Occupied:

       1A1   -76.820084     2A1   -14.055100     3A1    -6.284506
       4A1    -4.449234     1B1    -4.441248     1B2    -4.441248
       5A1    -0.464688     6A1    -0.168132     2B1     0.014297
       2B2     0.014297

    Beta Virtual:

       7A1     0.070309     3B2     0.219621     3B1     0.219621
       8A1     0.346102     9A1     0.625541     4B2     0.686461
       4B1     0.686461    10A1     0.719258    11A1     0.787231
       1A2     0.787231     5B2     0.835531     5B1     0.835531
      12A1     0.921468     6B2     1.078302     6B1     1.078302
      13A1     1.224001    14A1     1.517793     2A2     2.102315
      15A1     2.102318     7B1     2.236622     7B2     2.236622
      16A1     2.662969

    Final Occupation by Irrep:
             A1    A2    B1    B2
    DOCC [     6,    0,    2,    2 ]
    SOCC [     1,    0,    1,    1 ]
    NA   [     7,    0,    3,    3 ]
    NB   [     6,    0,    2,    2 ]

  @DF-UKS Final Energy:  -395.94735599142450

   => Energetics <=

    Nuclear Repulsion Energy =             32.9325709129674351
    One-Electron Energy =                -617.8225029944262587
    Two-Electron Energy =                 213.3859111418763916
    DFT Exchange-Correlation Energy =     -24.4433350518420198
    Empirical Dispersion Energy =           0.0000000000000000
    VV10 Nonlocal Energy =                  0.0000000000000000
    Total Energy =                       -395.9473559914245016

  UHF NO Occupations:
  HONO-2 :    3 B2 1.0000000
  HONO-1 :    3 B1 1.0000000
  HONO-0 :    7 A1 1.0000000
  LUNO+0 :    4 B2 0.0019935
  LUNO+1 :    4 B1 0.0019935
  LUNO+2 :    8 A1 0.0010266
  LUNO+3 :    9 A1 0.0004844

Computation Completed

Properties will be evaluated at   0.000000,   0.000000,   0.000000 [a0]

Properties computed using the SCF density matrix

 Multipole Moments:

 ------------------------------------------------------------------------------------
     Multipole            Electronic (a.u.)      Nuclear  (a.u.)        Total (a.u.)
 ------------------------------------------------------------------------------------

 L = 1.  Multiply by 2.5417464519 to convert [e a0] to [Debye]
 Dipole X            :          0.0000000            0.0000000            0.0000000
 Dipole Y            :          0.0000000            0.0000000            0.0000000
 Dipole Z            :         -0.7279384            0.4799299           -0.2480085
 Magnitude           :                                                    0.2480085

 ------------------------------------------------------------------------------------

*** tstop() called on Joses-MacBook-Pro-2.local at Thu Jul 17 10:32:02 2025
Module time:
	user time   =       4.65 seconds =       0.08 minutes
	system time =       3.52 seconds =       0.06 minutes
	total time  =          1 seconds =       0.02 minutes
Total time:
	user time   =      56.04 seconds =       0.93 minutes
	system time =      67.72 seconds =       1.13 minutes
	total time  =         13 seconds =       0.22 minutes

*** tstart() called on Joses-MacBook-Pro-2.local
*** at Thu Jul 17 10:32:02 2025

         ------------------------------------------------------------
                                   SCF GRAD
                          Rob Parrish, Justin Turney,
                       Andy Simmonett, and Alex Sokolov
         ------------------------------------------------------------

  ==> Geometry <==

    Molecular point group: c2v
    Full point group: C_inf_v

    Geometry (in Angstrom), charge = -1, multiplicity = 4:

       Center              X                  Y                   Z               Mass
    ------------   -----------------  -----------------  -----------------  -----------------
         N            0.000000000000     0.000000000000     1.161902944661    14.003074004430
         P            0.000000000000     0.000000000000    -0.525290176921    30.973761998420

  Nuclear repulsion =   32.932570912967435

  ==> Basis Set <==

  Basis Set: CC-PVDZ
    Blend: CC-PVDZ
    Number of shells: 14
    Number of basis functions: 32
    Number of Cartesian functions: 34
    Spherical Harmonics?: true
    Max angular momentum: 2

  ==> DFJKGrad: Density-Fitted SCF Gradients <==

    Gradient:                    1
    J tasked:                  Yes
    K tasked:                  Yes
    wK tasked:                  No
    OpenMP threads:              1
    Integrals threads:           1
    Memory [MiB]:              375
    Schwarz Cutoff:          1E-12
    Fitting Condition:       1E-10

   => Auxiliary Basis Set <=

  Basis Set: (CC-PVDZ AUX)
    Blend: CC-PVDZ-JKFIT
    Number of shells: 60
    Number of basis functions: 182
    Number of Cartesian functions: 211
    Spherical Harmonics?: true
    Max angular momentum: 3

  ==> DFT Potential <==

   => LibXC <=

    Version 6.2.2
    S. Lehtola, C. Steigemann, M. J.T. Oliveira, and M. A.L. Marques.,  SoftwareX 7, 1â€“5 (2018) (10.1016/j.softx.2017.11.002)

   => Composite Functional: B3LYP <=

    B3LYP Hyb-GGA Exchange-Correlation Functional

    P. J. Stephens, F. J. Devlin, C. F. Chabalowski, and M. J. Frisch.,  J. Phys. Chem. 98, 11623 (1994) (10.1021/j100096a001)

    Deriv               =              1
    GGA                 =           TRUE
    Meta                =          FALSE

    Exchange Hybrid     =           TRUE
    MP2 Hybrid          =          FALSE

   => Exchange Functionals <=

    0.0800   Slater exchange
    0.7200         Becke 88

   => Exact (HF) Exchange <=

    0.2000               HF

   => Correlation Functionals <=

    0.1900   Vosko, Wilk & Nusair (VWN5_RPA)
    0.8100   Lee, Yang & Parr

   => LibXC Density Thresholds  <==

    XC_HYB_GGA_XC_B3LYP:  1.00E-15

   => Molecular Quadrature <=

    Radial Scheme          =       TREUTLER
    Pruning Scheme         =           NONE
    Nuclear Scheme         =       TREUTLER

    Blocking Scheme        =         OCTREE
    BS radius alpha        =              1
    Pruning alpha          =              1
    Radial Points          =             75
    Spherical Points       =            302
    Total Points           =          42155
    Total Blocks           =            379
    Max Points             =            254
    Max Functions          =             32
    Weights Tolerance      =       1.00E-15

  -Total Gradient:
     Atom            X                  Y                   Z
    ------   -----------------  -----------------  -----------------
       1       -0.000000000000     0.000000000000    -0.000157426321
       2       -0.000000000000     0.000000000000     0.000137167281

*** tstop() called on Joses-MacBook-Pro-2.local at Thu Jul 17 10:32:02 2025
Module time:
	user time   =       1.17 seconds =       0.02 minutes
	system time =       1.20 seconds =       0.02 minutes
	total time  =          0 seconds =       0.00 minutes
Total time:
	user time   =      57.21 seconds =       0.95 minutes
	system time =      68.94 seconds =       1.15 minutes
	total time  =         13 seconds =       0.22 minutes

    			-----------------------------------------

    			 OPTKING 3.0: for geometry optimizations

    			     By R.A. King, Bethel University

    			        with contributions from

    			    A.V. Copan, J. Cayton, A. Heide

    			-----------------------------------------

	                            ===> Fragment 1 <==

	 Z (Atomic Numbers)          Masses                          Geom
	       7.000000            14.003074          0.00000000  0.00000000  2.19567835
	      15.000000            30.973762          0.00000000  0.00000000 -0.99265457

	 - Coordinate -           - BOHR/RAD -       - ANG/DEG -
	 R(1,2)           =         3.188333           1.687193

	        --- Internal Coordinate Step in ANG or DEG, aJ/ANG or AJ/DEG ---
	-------------------------------------------------------------------------------
	           Coordinate      Previous         Force          Change          New
	           ----------      --------        ------          ------        ------
	               R(1,2)       1.68719        0.00121        0.00028       1.68747
	-------------------------------------------------------------------------------

	                                 ==> Convergence Check <==

	Measures of convergence in internal coordinates in au.

	Criteria marked as inactive (o), active & met (*), and active & unmet ( ).

	----------------------------------------------------------------------------------------------
	   Step    Total Energy     Delta E     Max Force     RMS Force      Max Disp      RMS Disp
	----------------------------------------------------------------------------------------------
	  Convergence Criteria     1.00e-06 *    3.00e-04 *             o    1.20e-03 *             o
	----------------------------------------------------------------------------------------------
	    11    -395.94735599   -1.32e-06      1.47e-04 *    1.47e-04 o    5.23e-04 *    5.23e-04 o  ~
	----------------------------------------------------------------------------------------------

Next Geometry in Ang
	Fragment 1 (Ang)

	    N   0.0000000000   0.0000000000   1.1620412723
	    P   0.0000000000   0.0000000000  -0.5254285046

    Final optimized geometry and variables:
    Molecular point group: c2v
    Full point group: C_inf_v

    Geometry (in Angstrom), charge = -1, multiplicity = 4:

    N            0.000000000000     0.000000000000     1.161902944661
    P            0.000000000000     0.000000000000    -0.525290176921

    Psi4 stopped on: Thursday, 17 July 2025 10:32AM
    Psi4 wall time for execution: 0:00:13.56

*** Psi4 exiting successfully. Buy a developer a beer!
