                               Psi4 1.9.1 release

  ==> Input File <==

--------------------------------------------------------------------------
molecule {
-1 4
B   0.00000        0.60000        0.00000
Cl   0.00000       -0.60000        0.00000
}

set {
basis              cc-pvdz
reference          uks
maxiter            500
geom_maxiter       500
DAMPING_PERCENTAGE 1
guess              SAP
}

optimize('b3lyp')
--------------------------------------------------------------------------

    Molecular point group: c2v
  Charge       = -1
  Multiplicity = 4
  Basis Set: CC-PVDZ
    Blend: CC-PVDZ
  Basis Set: (CC-PVDZ AUX)
    Blend: CC-PVDZ-JKFIT
  @DF-UKS Final Energy:  -484.48555763812107
    Total Energy =                       -484.4855576381210085
 Dipole X            :          0.0000000            0.0000000            0.0000000
 Dipole Y            :          0.0000000            0.0000000            0.0000000
 Dipole Z            :         -1.3788682           -0.6073306           -1.9861988
 Magnitude           :                                                    1.9861988
    Molecular point group: c2v
  Basis Set: CC-PVDZ
    Blend: CC-PVDZ
  Basis Set: (CC-PVDZ AUX)
    Blend: CC-PVDZ-JKFIT
  Basis Set: CC-PVDZ
    Blend: CC-PVDZ
  Basis Set: (CC-PVDZ AUX)
    Blend: CC-PVDZ-JKFIT
  @DF-UKS Final Energy:  -484.72376998708967
    Total Energy =                       -484.7237699870896108
  Basis Set: CC-PVDZ
    Blend: CC-PVDZ
  Basis Set: (CC-PVDZ AUX)
    Blend: CC-PVDZ-JKFIT
  Basis Set: CC-PVDZ
    Blend: CC-PVDZ
  @DF-UKS Final Energy:  -484.83647760555442
    Total Energy =                       -484.8364776055544212
  @DF-UKS Final Energy:  -484.88825709731304
    Total Energy =                       -484.8882570973130441
  @DF-UKS Final Energy:  -484.90509971505037
    Total Energy =                       -484.9050997150504259
  @DF-UKS Final Energy:  -484.91383884632700
    Total Energy =                       -484.9138388463269962
  @DF-UKS Final Energy:  -484.91727226101108
    Total Energy =                       -484.9172722610111350
  @DF-UKS Final Energy:  -484.91801659722370
    Total Energy =                       -484.9180165972237546
  @DF-UKS Final Energy:  -484.91820151684271
    Total Energy =                       -484.9182015168427142
  @DF-UKS Final Energy:  -484.91825832596714
    Total Energy =                       -484.9182583259671446
  Basis Set: (CC-PVDZ AUX)
    Blend: CC-PVDZ-JKFIT
  Basis Set: CC-PVDZ
    Blend: CC-PVDZ
  Basis Set: (CC-PVDZ AUX)
    Blend: CC-PVDZ-JKFIT
  @DF-UKS Final Energy:  -484.91826898780937
    Total Energy =                       -484.9182689878093697
  Basis Set: CC-PVDZ
    Blend: CC-PVDZ
  Basis Set: (CC-PVDZ AUX)
    Blend: CC-PVDZ-JKFIT
  Charge       = -1
  Multiplicity = 4
  Basis Set: CC-PVDZ
    Blend: CC-PVDZ
  Basis Set: (CC-PVDZ AUX)
    Blend: CC-PVDZ-JKFIT

    Orbital Energies [Eh]
    ---------------------

    Alpha Occupied:

       1A1  -101.302069     2A1    -9.217667     3A1    -6.978674
       1B2    -6.972292     1B1    -6.972292     4A1    -6.548811
       5A1    -0.580944     6A1    -0.220175     2B1    -0.105664
       2B2    -0.105664     7A1    -0.061683     3B2     0.091044
       3B1     0.091044

    Alpha Virtual:

       8A1     0.292069     9A1     0.487093     4B1     0.513916
       4B2     0.513916    10A1     0.565980    11A1     0.705056
       5B2     0.784649     5B1     0.784649     6B2     0.815685
       6B1     0.815685     1A2     0.888202    12A1     0.888202
       2A2     1.017126    13A1     1.017126    14A1     1.030420
      15A1     1.216842     7B2     1.267036     7B1     1.267036
      16A1     1.524779

    Beta Occupied:

       1A1  -101.300272     2A1    -9.215862     3A1    -6.975745
       1B1    -6.969897     1B2    -6.969897     4A1    -6.520580
       5A1    -0.568205     6A1    -0.176861     2B1    -0.091196
       2B2    -0.091196

    Beta Virtual:

       7A1     0.124509     3B1     0.246159     3B2     0.246159
       8A1     0.333324     9A1     0.515615     4B1     0.591789
       4B2     0.591789    10A1     0.652220    11A1     0.730221
       5B2     0.797858     5B1     0.797858     6B2     0.861050
       6B1     0.861050     1A2     0.941596    12A1     0.941597
      13A1     1.049507     2A2     1.085864    14A1     1.085864
      15A1     1.268366     7B2     1.323314     7B1     1.323314
      16A1     1.559496

    Final Occupation by Irrep:
             A1    A2    B1    B2
    DOCC [     6,    0,    2,    2 ]
    SOCC [     1,    0,    1,    1 ]
    NA   [     7,    0,    3,    3 ]
    NB   [     6,    0,    2,    2 ]

  @DF-UKS Final Energy:  -484.91826988510923

   => Energetics <=

    Nuclear Repulsion Energy =             23.8866486848891242
    One-Electron Energy =                -721.2163438820534793
    Two-Electron Energy =                 238.5853426774254729
    DFT Exchange-Correlation Energy =     -26.1739173653703645
    Empirical Dispersion Energy =           0.0000000000000000
    VV10 Nonlocal Energy =                  0.0000000000000000
    Total Energy =                       -484.9182698851092255

  UHF NO Occupations:
  HONO-2 :    3 B2 1.0000000
  HONO-1 :    3 B1 1.0000000
  HONO-0 :    7 A1 1.0000000
  LUNO+0 :    8 A1 0.0004962
  LUNO+1 :    4 B2 0.0002185
  LUNO+2 :    4 B1 0.0002185
  LUNO+3 :    9 A1 0.0000077

Computation Completed

Properties will be evaluated at   0.000000,   0.000000,   0.000000 [a0]

Properties computed using the SCF density matrix

 Multipole Moments:

 ------------------------------------------------------------------------------------
     Multipole            Electronic (a.u.)      Nuclear  (a.u.)        Total (a.u.)
 ------------------------------------------------------------------------------------

 L = 1.  Multiply by 2.5417464519 to convert [e a0] to [Debye]
 Dipole X            :          0.0000000            0.0000000            0.0000000
 Dipole Y            :          0.0000000            0.0000000            0.0000000
 Dipole Z            :         -0.6621361           -0.9530347           -1.6151709
 Magnitude           :                                                    1.6151709

 ------------------------------------------------------------------------------------

*** tstop() called on Joses-MacBook-Pro-2.local at Thu Jul 17 09:56:20 2025
Module time:
	user time   =       3.56 seconds =       0.06 minutes
	system time =       4.72 seconds =       0.08 minutes
	total time  =          1 seconds =       0.02 minutes
Total time:
	user time   =      57.72 seconds =       0.96 minutes
	system time =      67.79 seconds =       1.13 minutes
	total time  =         12 seconds =       0.20 minutes

*** tstart() called on Joses-MacBook-Pro-2.local
*** at Thu Jul 17 09:56:20 2025

         ------------------------------------------------------------
                                   SCF GRAD
                          Rob Parrish, Justin Turney,
                       Andy Simmonett, and Alex Sokolov
         ------------------------------------------------------------

  ==> Geometry <==

    Molecular point group: c2v
    Full point group: C_inf_v

    Geometry (in Angstrom), charge = -1, multiplicity = 4:

       Center              X                  Y                   Z               Mass
    ------------   -----------------  -----------------  -----------------  -----------------
         B            0.000000000000     0.000000000000     1.432170259862    11.009305360000
         CL           0.000000000000     0.000000000000    -0.450892680458    34.968852682000

  Nuclear repulsion =   23.886648684889124

  ==> Basis Set <==

  Basis Set: CC-PVDZ
    Blend: CC-PVDZ
    Number of shells: 14
    Number of basis functions: 32
    Number of Cartesian functions: 34
    Spherical Harmonics?: true
    Max angular momentum: 2

  ==> DFJKGrad: Density-Fitted SCF Gradients <==

    Gradient:                    1
    J tasked:                  Yes
    K tasked:                  Yes
    wK tasked:                  No
    OpenMP threads:              1
    Integrals threads:           1
    Memory [MiB]:              375
    Schwarz Cutoff:          1E-12
    Fitting Condition:       1E-10

   => Auxiliary Basis Set <=

  Basis Set: (CC-PVDZ AUX)
    Blend: CC-PVDZ-JKFIT
    Number of shells: 60
    Number of basis functions: 182
    Number of Cartesian functions: 211
    Spherical Harmonics?: true
    Max angular momentum: 3

  ==> DFT Potential <==

   => LibXC <=

    Version 6.2.2
    S. Lehtola, C. Steigemann, M. J.T. Oliveira, and M. A.L. Marques.,  SoftwareX 7, 1â€“5 (2018) (10.1016/j.softx.2017.11.002)

   => Composite Functional: B3LYP <=

    B3LYP Hyb-GGA Exchange-Correlation Functional

    P. J. Stephens, F. J. Devlin, C. F. Chabalowski, and M. J. Frisch.,  J. Phys. Chem. 98, 11623 (1994) (10.1021/j100096a001)

    Deriv               =              1
    GGA                 =           TRUE
    Meta                =          FALSE

    Exchange Hybrid     =           TRUE
    MP2 Hybrid          =          FALSE

   => Exchange Functionals <=

    0.0800   Slater exchange
    0.7200         Becke 88

   => Exact (HF) Exchange <=

    0.2000               HF

   => Correlation Functionals <=

    0.1900   Vosko, Wilk & Nusair (VWN5_RPA)
    0.8100   Lee, Yang & Parr

   => LibXC Density Thresholds  <==

    XC_HYB_GGA_XC_B3LYP:  1.00E-15

   => Molecular Quadrature <=

    Radial Scheme          =       TREUTLER
    Pruning Scheme         =           NONE
    Nuclear Scheme         =       TREUTLER

    Blocking Scheme        =         OCTREE
    BS radius alpha        =              1
    Pruning alpha          =              1
    Radial Points          =             75
    Spherical Points       =            302
    Total Points           =          41998
    Total Blocks           =            382
    Max Points             =            256
    Max Functions          =             32
    Weights Tolerance      =       1.00E-15

  -Total Gradient:
     Atom            X                  Y                   Z
    ------   -----------------  -----------------  -----------------
       1       -0.000000000000     0.000000000000    -0.000073461544
       2        0.000000000000    -0.000000000000     0.000076741319

*** tstop() called on Joses-MacBook-Pro-2.local at Thu Jul 17 09:56:20 2025
Module time:
	user time   =       0.72 seconds =       0.01 minutes
	system time =       1.81 seconds =       0.03 minutes
	total time  =          0 seconds =       0.00 minutes
Total time:
	user time   =      58.45 seconds =       0.97 minutes
	system time =      69.63 seconds =       1.16 minutes
	total time  =         12 seconds =       0.20 minutes

    			-----------------------------------------

    			 OPTKING 3.0: for geometry optimizations

    			     By R.A. King, Bethel University

    			        with contributions from

    			    A.V. Copan, J. Cayton, A. Heide

    			-----------------------------------------

	                            ===> Fragment 1 <==

	 Z (Atomic Numbers)          Masses                          Geom
	       5.000000            11.009305          0.00000000  0.00000000  2.70640956
	      17.000000            34.968853          0.00000000  0.00000000 -0.85206368

	 - Coordinate -           - BOHR/RAD -       - ANG/DEG -
	 R(1,2)           =         3.558473           1.883063

	        --- Internal Coordinate Step in ANG or DEG, aJ/ANG or AJ/DEG ---
	-------------------------------------------------------------------------------
	           Coordinate      Previous         Force          Change          New
	           ----------      --------        ------          ------        ------
	               R(1,2)       1.88306        0.00062        0.00029       1.88335
	-------------------------------------------------------------------------------

	                                 ==> Convergence Check <==

	Measures of convergence in internal coordinates in au.

	Criteria marked as inactive (o), active & met (*), and active & unmet ( ).

	----------------------------------------------------------------------------------------------
	   Step    Total Energy     Delta E     Max Force     RMS Force      Max Disp      RMS Disp
	----------------------------------------------------------------------------------------------
	  Convergence Criteria     1.00e-06 *    3.00e-04 *             o    1.20e-03 *             o
	----------------------------------------------------------------------------------------------
	    12    -484.91826989   -8.97e-07 *    7.51e-05 *    7.51e-05 o    5.42e-04 *    5.42e-04 o  ~
	----------------------------------------------------------------------------------------------

Next Geometry in Ang
	Fragment 1 (Ang)

	    B   0.0000000000   0.0000000000   1.4323136002
	   Cl   0.0000000000   0.0000000000  -0.4510360207

    Final optimized geometry and variables:
    Molecular point group: c2v
    Full point group: C_inf_v

    Geometry (in Angstrom), charge = -1, multiplicity = 4:

    B            0.000000000000     0.000000000000     1.432170259862
    CL           0.000000000000     0.000000000000    -0.450892680458

    Psi4 stopped on: Thursday, 17 July 2025 09:56AM
    Psi4 wall time for execution: 0:00:13.37

*** Psi4 exiting successfully. Buy a developer a beer!
