                               Psi4 1.9.1 release

  ==> Input File <==

--------------------------------------------------------------------------
molecule {
-1 4
B   0.00000        0.60000        0.00000
Al   0.00000       -0.60000        0.00000
}

set {
basis              cc-pvdz
reference          uks
maxiter            500
geom_maxiter       500
DAMPING_PERCENTAGE 1
guess              SAP
}

optimize('b3lyp')
--------------------------------------------------------------------------

    Molecular point group: c2v
  Charge       = -1
  Multiplicity = 4
  Basis Set: CC-PVDZ
    Blend: CC-PVDZ
  Basis Set: (CC-PVDZ AUX)
    Blend: CC-PVDZ-JKFIT
  @DF-UKS Final Energy:  -266.59719750875723
    Total Energy =                       -266.5971975087572332
 Dipole X            :          0.0000000            0.0000000            0.0000000
 Dipole Y            :          0.0000000            0.0000000            0.0000000
 Dipole Z            :         -0.2289897           -0.4902500           -0.7192398
 Magnitude           :                                                    0.7192398
    Molecular point group: c2v
  Basis Set: CC-PVDZ
    Blend: CC-PVDZ
  Basis Set: (CC-PVDZ AUX)
    Blend: CC-PVDZ-JKFIT
  Basis Set: CC-PVDZ
    Blend: CC-PVDZ
  Basis Set: (CC-PVDZ AUX)
    Blend: CC-PVDZ-JKFIT
  @DF-UKS Final Energy:  -266.81460167288537
    Total Energy =                       -266.8146016728853738
  Basis Set: CC-PVDZ
    Blend: CC-PVDZ
  Basis Set: (CC-PVDZ AUX)
    Blend: CC-PVDZ-JKFIT
  Basis Set: CC-PVDZ
    Blend: CC-PVDZ
  @DF-UKS Final Energy:  -266.97163787153369
    Total Energy =                       -266.9716378715336873
  @DF-UKS Final Energy:  -267.04820444521471
    Total Energy =                       -267.0482044452147079
  @DF-UKS Final Energy:  -267.13331687362933
    Total Energy =                       -267.1333168736293260
  @DF-UKS Final Energy:  -267.16183455266577
    Total Energy =                       -267.1618345526657663
  @DF-UKS Final Energy:  -267.16244184060281
    Total Energy =                       -267.1624418406028099
  Basis Set: (CC-PVDZ AUX)
    Blend: CC-PVDZ-JKFIT
  Basis Set: CC-PVDZ
    Blend: CC-PVDZ
  Basis Set: (CC-PVDZ AUX)
    Blend: CC-PVDZ-JKFIT
  @DF-UKS Final Energy:  -267.16261584656786
    Total Energy =                       -267.1626158465678600
  Basis Set: CC-PVDZ
    Blend: CC-PVDZ
  Basis Set: (CC-PVDZ AUX)
    Blend: CC-PVDZ-JKFIT
  Charge       = -1
  Multiplicity = 4
  Basis Set: CC-PVDZ
    Blend: CC-PVDZ
  Basis Set: (CC-PVDZ AUX)
    Blend: CC-PVDZ-JKFIT

    Orbital Energies [Eh]
    ---------------------

    Alpha Occupied:

       1A1   -55.829308     2A1    -6.569398     3A1    -3.912471
       1B1    -2.466286     1B2    -2.466286     4A1    -2.463256
       5A1    -0.234157     6A1    -0.075363     2B2     0.022763
       2B1     0.022763     7A1     0.025321

    Alpha Virtual:

       3B2     0.157759     3B1     0.157759     8A1     0.221273
       9A1     0.352933     4B1     0.400077     4B2     0.400077
      10A1     0.433880    11A1     0.459606     1A2     0.459727
      12A1     0.459727     5B1     0.512097     5B2     0.512097
       6B2     0.526044     6B1     0.526044    13A1     0.745471
      14A1     0.805551     2A2     0.931558    15A1     0.931558
       7B1     1.074384     7B2     1.074384    16A1     1.287160

    Beta Occupied:

       1A1   -55.827108     2A1    -6.555716     3A1    -3.909830
       1B1    -2.462635     1B2    -2.462635     4A1    -2.459104
       5A1    -0.164364     6A1    -0.024413

    Beta Virtual:

       2B2     0.110076     2B1     0.110076     7A1     0.129368
       3B1     0.201409     3B2     0.201409     8A1     0.242943
       9A1     0.369499     4B1     0.420078     4B2     0.420078
      10A1     0.476252    11A1     0.488787     1A2     0.492148
      12A1     0.492149     5B1     0.541536     5B2     0.541536
       6B2     0.569592     6B1     0.569592    13A1     0.789151
      14A1     0.844129    15A1     0.987020     2A2     0.987020
       7B1     1.132491     7B2     1.132491    16A1     1.337650

    Final Occupation by Irrep:
             A1    A2    B1    B2
    DOCC [     6,    0,    1,    1 ]
    SOCC [     1,    0,    1,    1 ]
    NA   [     7,    0,    2,    2 ]
    NB   [     6,    0,    1,    1 ]

  @DF-UKS Final Energy:  -267.16261843946251

   => Energetics <=

    Nuclear Repulsion Energy =             16.4264789658646535
    One-Electron Energy =                -406.2483006877108664
    Two-Electron Energy =                 141.0115760949713035
    DFT Exchange-Correlation Energy =     -18.3523728125875714
    Empirical Dispersion Energy =           0.0000000000000000
    VV10 Nonlocal Energy =                  0.0000000000000000
    Total Energy =                       -267.1626184394625056

  UHF NO Occupations:
  HONO-2 :    2 B1 1.0000000
  HONO-1 :    2 B2 1.0000000
  HONO-0 :    7 A1 1.0000000
  LUNO+0 :    8 A1 0.0009329
  LUNO+1 :    9 A1 0.0000534
  LUNO+2 :   10 A1 0.0000002
  LUNO+3 :   11 A1 0.0000000

Computation Completed

Properties will be evaluated at   0.000000,   0.000000,   0.000000 [a0]

Properties computed using the SCF density matrix

 Multipole Moments:

 ------------------------------------------------------------------------------------
     Multipole            Electronic (a.u.)      Nuclear  (a.u.)        Total (a.u.)
 ------------------------------------------------------------------------------------

 L = 1.  Multiply by 2.5417464519 to convert [e a0] to [Debye]
 Dipole X            :          0.0000000            0.0000000            0.0000000
 Dipole Y            :          0.0000000            0.0000000            0.0000000
 Dipole Z            :          0.2588188           -0.8554732           -0.5966544
 Magnitude           :                                                    0.5966544

 ------------------------------------------------------------------------------------

*** tstop() called on Joses-MacBook-Pro-2.local at Thu Jul 17 09:53:39 2025
Module time:
	user time   =       3.24 seconds =       0.05 minutes
	system time =       3.45 seconds =       0.06 minutes
	total time  =          0 seconds =       0.00 minutes
Total time:
	user time   =      43.13 seconds =       0.72 minutes
	system time =      57.01 seconds =       0.95 minutes
	total time  =          9 seconds =       0.15 minutes

*** tstart() called on Joses-MacBook-Pro-2.local
*** at Thu Jul 17 09:53:39 2025

         ------------------------------------------------------------
                                   SCF GRAD
                          Rob Parrish, Justin Turney,
                       Andy Simmonett, and Alex Sokolov
         ------------------------------------------------------------

  ==> Geometry <==

    Molecular point group: c2v
    Full point group: C_inf_v

    Geometry (in Angstrom), charge = -1, multiplicity = 4:

       Center              X                  Y                   Z               Mass
    ------------   -----------------  -----------------  -----------------  -----------------
         B            0.000000000000     0.000000000000     1.487160278490    11.009305360000
         AL           0.000000000000     0.000000000000    -0.606807562399    26.981538530000

  Nuclear repulsion =   16.426478965864654

  ==> Basis Set <==

  Basis Set: CC-PVDZ
    Blend: CC-PVDZ
    Number of shells: 14
    Number of basis functions: 32
    Number of Cartesian functions: 34
    Spherical Harmonics?: true
    Max angular momentum: 2

  ==> DFJKGrad: Density-Fitted SCF Gradients <==

    Gradient:                    1
    J tasked:                  Yes
    K tasked:                  Yes
    wK tasked:                  No
    OpenMP threads:              1
    Integrals threads:           1
    Memory [MiB]:              375
    Schwarz Cutoff:          1E-12
    Fitting Condition:       1E-10

   => Auxiliary Basis Set <=

  Basis Set: (CC-PVDZ AUX)
    Blend: CC-PVDZ-JKFIT
    Number of shells: 60
    Number of basis functions: 182
    Number of Cartesian functions: 211
    Spherical Harmonics?: true
    Max angular momentum: 3

  ==> DFT Potential <==

   => LibXC <=

    Version 6.2.2
    S. Lehtola, C. Steigemann, M. J.T. Oliveira, and M. A.L. Marques.,  SoftwareX 7, 1â€“5 (2018) (10.1016/j.softx.2017.11.002)

   => Composite Functional: B3LYP <=

    B3LYP Hyb-GGA Exchange-Correlation Functional

    P. J. Stephens, F. J. Devlin, C. F. Chabalowski, and M. J. Frisch.,  J. Phys. Chem. 98, 11623 (1994) (10.1021/j100096a001)

    Deriv               =              1
    GGA                 =           TRUE
    Meta                =          FALSE

    Exchange Hybrid     =           TRUE
    MP2 Hybrid          =          FALSE

   => Exchange Functionals <=

    0.0800   Slater exchange
    0.7200         Becke 88

   => Exact (HF) Exchange <=

    0.2000               HF

   => Correlation Functionals <=

    0.1900   Vosko, Wilk & Nusair (VWN5_RPA)
    0.8100   Lee, Yang & Parr

   => LibXC Density Thresholds  <==

    XC_HYB_GGA_XC_B3LYP:  1.00E-15

   => Molecular Quadrature <=

    Radial Scheme          =       TREUTLER
    Pruning Scheme         =           NONE
    Nuclear Scheme         =       TREUTLER

    Blocking Scheme        =         OCTREE
    BS radius alpha        =              1
    Pruning alpha          =              1
    Radial Points          =             75
    Spherical Points       =            302
    Total Points           =          42977
    Total Blocks           =            400
    Max Points             =            255
    Max Functions          =             32
    Weights Tolerance      =       1.00E-15

  -Total Gradient:
     Atom            X                  Y                   Z
    ------   -----------------  -----------------  -----------------
       1        0.000000000000     0.000000000000    -0.000095477304
       2        0.000000000000     0.000000000000     0.000086584598

*** tstop() called on Joses-MacBook-Pro-2.local at Thu Jul 17 09:53:40 2025
Module time:
	user time   =       0.73 seconds =       0.01 minutes
	system time =       1.74 seconds =       0.03 minutes
	total time  =          1 seconds =       0.02 minutes
Total time:
	user time   =      43.87 seconds =       0.73 minutes
	system time =      58.76 seconds =       0.98 minutes
	total time  =         10 seconds =       0.17 minutes

    			-----------------------------------------

    			 OPTKING 3.0: for geometry optimizations

    			     By R.A. King, Bethel University

    			        with contributions from

    			    A.V. Copan, J. Cayton, A. Heide

    			-----------------------------------------

	                            ===> Fragment 1 <==

	 Z (Atomic Numbers)          Masses                          Geom
	       5.000000            11.009305          0.00000000  0.00000000  2.81032563
	      13.000000            26.981539          0.00000000  0.00000000 -1.14670010

	 - Coordinate -           - BOHR/RAD -       - ANG/DEG -
	 R(1,2)           =         3.957026           2.093968

	        --- Internal Coordinate Step in ANG or DEG, aJ/ANG or AJ/DEG ---
	-------------------------------------------------------------------------------
	           Coordinate      Previous         Force          Change          New
	           ----------      --------        ------          ------        ------
	               R(1,2)       2.09397        0.00075        0.00043       2.09440
	-------------------------------------------------------------------------------

	                                 ==> Convergence Check <==

	Measures of convergence in internal coordinates in au.

	Criteria marked as inactive (o), active & met (*), and active & unmet ( ).

	----------------------------------------------------------------------------------------------
	   Step    Total Energy     Delta E     Max Force     RMS Force      Max Disp      RMS Disp
	----------------------------------------------------------------------------------------------
	  Convergence Criteria     1.00e-06 *    3.00e-04 *             o    1.20e-03 *             o
	----------------------------------------------------------------------------------------------
	     9    -267.16261844   -2.59e-06      9.10e-05 *    9.10e-05 o    8.09e-04 *    8.09e-04 o  ~
	----------------------------------------------------------------------------------------------

Next Geometry in Ang
	Fragment 1 (Ang)

	    B   0.0000000000   0.0000000000   1.4873743291
	   Al   0.0000000000   0.0000000000  -0.6070216130

    Final optimized geometry and variables:
    Molecular point group: c2v
    Full point group: C_inf_v

    Geometry (in Angstrom), charge = -1, multiplicity = 4:

    B            0.000000000000     0.000000000000     1.487160278490
    AL           0.000000000000     0.000000000000    -0.606807562399

    Psi4 stopped on: Thursday, 17 July 2025 09:53AM
    Psi4 wall time for execution: 0:00:10.47

*** Psi4 exiting successfully. Buy a developer a beer!
