                               Psi4 1.9.1 release

  ==> Input File <==

--------------------------------------------------------------------------
molecule {
-1 4
S   0.00000        0.60000        0.00000
S   0.00000       -0.60000        0.00000
}

set {
basis              cc-pvdz
reference          uks
maxiter            500
geom_maxiter       500
DAMPING_PERCENTAGE 1
guess              SAP
}

optimize('b3lyp')
--------------------------------------------------------------------------

    Molecular point group: d2h
  Charge       = -1
  Multiplicity = 4
  Basis Set: CC-PVDZ
    Blend: CC-PVDZ
  Basis Set: (CC-PVDZ AUX)
    Blend: CC-PVDZ-JKFIT
  @DF-UKS Final Energy:  -794.93895778265846
    Total Energy =                       -794.9389577826584627
 Dipole X            :          0.0000000            0.0000000            0.0000000
 Dipole Y            :          0.0000000            0.0000000            0.0000000
 Dipole Z            :          0.0000000            0.0000000            0.0000000
 Magnitude           :                                                    0.0000000
    Molecular point group: d2h
  Basis Set: CC-PVDZ
    Blend: CC-PVDZ
  Basis Set: (CC-PVDZ AUX)
    Blend: CC-PVDZ-JKFIT
  Basis Set: CC-PVDZ
    Blend: CC-PVDZ
  Basis Set: (CC-PVDZ AUX)
    Blend: CC-PVDZ-JKFIT
  @DF-UKS Final Energy:  -794.98475845004509
    Total Energy =                       -794.9847584500452058
  Basis Set: CC-PVDZ
    Blend: CC-PVDZ
  Basis Set: (CC-PVDZ AUX)
    Blend: CC-PVDZ-JKFIT
  Basis Set: CC-PVDZ
    Blend: CC-PVDZ
  @DF-UKS Final Energy:  -795.06941312019831
    Total Energy =                       -795.0694131201983055
  @DF-UKS Final Energy:  -795.34207417283369
    Total Energy =                       -795.3420741728336907
  @DF-UKS Final Energy:  -795.89007092642680
    Total Energy =                       -795.8900709264266879
  @DF-UKS Final Energy:  -796.08703112595617
    Total Energy =                       -796.0870311259561731
  @DF-UKS Final Energy:  -796.22072975435412
    Total Energy =                       -796.2207297543541245
  @DF-UKS Final Energy:  -796.30203528664936
    Total Energy =                       -796.3020352866493567
  @DF-UKS Final Energy:  -796.34662557796457
    Total Energy =                       -796.3466255779644598
  @DF-UKS Final Energy:  -796.36663264155868
    Total Energy =                       -796.3666326415586809
  @DF-UKS Final Energy:  -796.37365504046159
    Total Energy =                       -796.3736550404615855
  @DF-UKS Final Energy:  -796.37532806143918
    Total Energy =                       -796.3753280614391770
  @DF-UKS Final Energy:  -796.37551612382265
    Total Energy =                       -796.3755161238226492
  @DF-UKS Final Energy:  -796.37553923888208
    Total Energy =                       -796.3755392388820837
  Basis Set: (CC-PVDZ AUX)
    Blend: CC-PVDZ-JKFIT
  Basis Set: CC-PVDZ
    Blend: CC-PVDZ
  Basis Set: (CC-PVDZ AUX)
    Blend: CC-PVDZ-JKFIT
  @DF-UKS Final Energy:  -796.37554217928493
    Total Energy =                       -796.3755421792849347
  Basis Set: CC-PVDZ
    Blend: CC-PVDZ
  Basis Set: (CC-PVDZ AUX)
    Blend: CC-PVDZ-JKFIT
  Charge       = -1
  Multiplicity = 4
  Basis Set: CC-PVDZ
    Blend: CC-PVDZ
  Basis Set: (CC-PVDZ AUX)
    Blend: CC-PVDZ-JKFIT

    Orbital Energies [Eh]
    ---------------------

    Alpha Occupied:

       1B2u  -88.645062     1Ag   -88.645062     2B2u   -7.702195
       2Ag    -7.702145     1B1g   -5.664573     1B3g   -5.664573
       1B3u   -5.664568     1B1u   -5.664568     3Ag    -5.663691
       3B2u   -5.663674     4Ag    -0.477488     4B2u   -0.411198
       5Ag    -0.106307     2B1u   -0.071912     2B3u   -0.071912
       2B3g   -0.020920     2B1g   -0.020920     5B2u    0.063651

    Alpha Virtual:

       6B2u    0.659797     6Ag     0.663098     3B1u    0.678016
       3B3u    0.678016     7Ag     0.701586     3B1g    0.723234
       3B3g    0.723234     4B1u    0.770728     4B3u    0.770728
       7B2u    0.799598     8Ag     0.811739     1B2g    0.811741
       8B2u    0.833234     1Au     0.833237     9Ag     0.870452
       4B1g    0.947509     4B3g    0.947509     9B2u    1.307931

    Beta Occupied:

       1Ag   -88.636366     1B2u  -88.636366     2B2u   -7.693241
       2Ag    -7.693218     1B3u   -5.651609     1B1u   -5.651609
       1B1g   -5.651609     1B3g   -5.651609     3Ag    -5.650852
       3B2u   -5.650828     4Ag    -0.416677     4B2u   -0.338814
       5Ag    -0.051304     2B1u   -0.009988     2B3u   -0.009988

    Beta Virtual:

       2B3g    0.085718     2B1g    0.085718     5B2u    0.173693
       6B2u    0.691964     6Ag     0.694541     3B1u    0.710382
       3B3u    0.710382     7Ag     0.740790     3B1g    0.761566
       3B3g    0.761566     4B1u    0.820308     4B3u    0.820308
       7B2u    0.842330     8Ag     0.868737     1B2g    0.868740
       8B2u    0.892791     1Au     0.892794     9Ag     0.903657
       4B1g    0.997663     4B3g    0.997663     9B2u    1.348655

    Final Occupation by Irrep:
             Ag   B1g   B2g   B3g    Au   B1u   B2u   B3u
    DOCC [     5,    1,    0,    1,    0,    2,    4,    2 ]
    SOCC [     0,    1,    0,    1,    0,    0,    1,    0 ]
    NA   [     5,    2,    0,    2,    0,    2,    5,    2 ]
    NB   [     5,    1,    0,    1,    0,    2,    4,    2 ]

  @DF-UKS Final Energy:  -796.37554257115164

   => Energetics <=

    Nuclear Repulsion Energy =             55.1564813699658671
    One-Electron Energy =               -1218.3343721202390952
    Two-Electron Energy =                 408.3362744920084424
    DFT Exchange-Correlation Energy =     -41.5339263128868268
    Empirical Dispersion Energy =           0.0000000000000000
    VV10 Nonlocal Energy =                  0.0000000000000000
    Total Energy =                       -796.3755425711516409

  UHF NO Occupations:
  HONO-2 :    2B3g 1.0000000
  HONO-1 :    2B1g 1.0000000
  HONO-0 :    5B2u 1.0000000
  LUNO+0 :    3B3u 0.0009148
  LUNO+1 :    3B1u 0.0009148
  LUNO+2 :    6 Ag 0.0006838
  LUNO+3 :    7 Ag 0.0000259

Computation Completed

Properties will be evaluated at   0.000000,   0.000000,   0.000000 [a0]

Properties computed using the SCF density matrix

 Multipole Moments:

 ------------------------------------------------------------------------------------
     Multipole            Electronic (a.u.)      Nuclear  (a.u.)        Total (a.u.)
 ------------------------------------------------------------------------------------

 L = 1.  Multiply by 2.5417464519 to convert [e a0] to [Debye]
 Dipole X            :          0.0000000            0.0000000            0.0000000
 Dipole Y            :          0.0000000            0.0000000            0.0000000
 Dipole Z            :          0.0000000            0.0000000            0.0000000
 Magnitude           :                                                    0.0000000

 ------------------------------------------------------------------------------------

*** tstop() called on Joses-MacBook-Pro-2.local at Thu Jul 17 12:05:47 2025
Module time:
	user time   =       7.89 seconds =       0.13 minutes
	system time =       1.80 seconds =       0.03 minutes
	total time  =          1 seconds =       0.02 minutes
Total time:
	user time   =     170.07 seconds =       2.83 minutes
	system time =      44.63 seconds =       0.74 minutes
	total time  =         21 seconds =       0.35 minutes

*** tstart() called on Joses-MacBook-Pro-2.local
*** at Thu Jul 17 12:05:47 2025

         ------------------------------------------------------------
                                   SCF GRAD
                          Rob Parrish, Justin Turney,
                       Andy Simmonett, and Alex Sokolov
         ------------------------------------------------------------

  ==> Geometry <==

    Molecular point group: d2h
    Full point group: D_inf_h

    Geometry (in Angstrom), charge = -1, multiplicity = 4:

       Center              X                  Y                   Z               Mass
    ------------   -----------------  -----------------  -----------------  -----------------
         S           -0.000000000000     1.228045757876     0.000000000000    31.972071174400
         S            0.000000000000    -1.228045757876     0.000000000000    31.972071174400

  Nuclear repulsion =   55.156481369965867

  ==> Basis Set <==

  Basis Set: CC-PVDZ
    Blend: CC-PVDZ
    Number of shells: 16
    Number of basis functions: 36
    Number of Cartesian functions: 38
    Spherical Harmonics?: true
    Max angular momentum: 2

  ==> DFJKGrad: Density-Fitted SCF Gradients <==

    Gradient:                    1
    J tasked:                  Yes
    K tasked:                  Yes
    wK tasked:                  No
    OpenMP threads:              1
    Integrals threads:           1
    Memory [MiB]:              375
    Schwarz Cutoff:          1E-12
    Fitting Condition:       1E-10

   => Auxiliary Basis Set <=

  Basis Set: (CC-PVDZ AUX)
    Blend: CC-PVDZ-JKFIT
    Number of shells: 72
    Number of basis functions: 224
    Number of Cartesian functions: 260
    Spherical Harmonics?: true
    Max angular momentum: 3

  ==> DFT Potential <==

   => LibXC <=

    Version 6.2.2
    S. Lehtola, C. Steigemann, M. J.T. Oliveira, and M. A.L. Marques.,  SoftwareX 7, 1â€“5 (2018) (10.1016/j.softx.2017.11.002)

   => Composite Functional: B3LYP <=

    B3LYP Hyb-GGA Exchange-Correlation Functional

    P. J. Stephens, F. J. Devlin, C. F. Chabalowski, and M. J. Frisch.,  J. Phys. Chem. 98, 11623 (1994) (10.1021/j100096a001)

    Deriv               =              1
    GGA                 =           TRUE
    Meta                =          FALSE

    Exchange Hybrid     =           TRUE
    MP2 Hybrid          =          FALSE

   => Exchange Functionals <=

    0.0800   Slater exchange
    0.7200         Becke 88

   => Exact (HF) Exchange <=

    0.2000               HF

   => Correlation Functionals <=

    0.1900   Vosko, Wilk & Nusair (VWN5_RPA)
    0.8100   Lee, Yang & Parr

   => LibXC Density Thresholds  <==

    XC_HYB_GGA_XC_B3LYP:  1.00E-15

   => Molecular Quadrature <=

    Radial Scheme          =       TREUTLER
    Pruning Scheme         =           NONE
    Nuclear Scheme         =       TREUTLER

    Blocking Scheme        =         OCTREE
    BS radius alpha        =              1
    Pruning alpha          =              1
    Radial Points          =             75
    Spherical Points       =            302
    Total Points           =          40260
    Total Blocks           =            372
    Max Points             =            251
    Max Functions          =             36
    Weights Tolerance      =       1.00E-15

  -Total Gradient:
     Atom            X                  Y                   Z
    ------   -----------------  -----------------  -----------------
       1        0.000000000000    -0.000048951965     0.000000000000
       2       -0.000000000000     0.000048951965     0.000000000000

*** tstop() called on Joses-MacBook-Pro-2.local at Thu Jul 17 12:05:47 2025
Module time:
	user time   =       2.94 seconds =       0.05 minutes
	system time =       1.34 seconds =       0.02 minutes
	total time  =          0 seconds =       0.00 minutes
Total time:
	user time   =     173.01 seconds =       2.88 minutes
	system time =      45.97 seconds =       0.77 minutes
	total time  =         21 seconds =       0.35 minutes

    			-----------------------------------------

    			 OPTKING 3.0: for geometry optimizations

    			     By R.A. King, Bethel University

    			        with contributions from

    			    A.V. Copan, J. Cayton, A. Heide

    			-----------------------------------------

	                            ===> Fragment 1 <==

	 Z (Atomic Numbers)          Masses                          Geom
	      16.000000            31.972071         -0.00000000  2.32067015  0.00000000
	      16.000000            31.972071          0.00000000 -2.32067015  0.00000000

	 - Coordinate -           - BOHR/RAD -       - ANG/DEG -
	 R(1,2)           =         4.641340           2.456092

	        --- Internal Coordinate Step in ANG or DEG, aJ/ANG or AJ/DEG ---
	-------------------------------------------------------------------------------
	           Coordinate      Previous         Force          Change          New
	           ----------      --------        ------          ------        ------
	               R(1,2)       2.45609        0.00040        0.00039       2.45649
	-------------------------------------------------------------------------------

	                                 ==> Convergence Check <==

	Measures of convergence in internal coordinates in au.

	Criteria marked as inactive (o), active & met (*), and active & unmet ( ).

	----------------------------------------------------------------------------------------------
	   Step    Total Energy     Delta E     Max Force     RMS Force      Max Disp      RMS Disp
	----------------------------------------------------------------------------------------------
	  Convergence Criteria     1.00e-06 *    3.00e-04 *             o    1.20e-03 *             o
	----------------------------------------------------------------------------------------------
	    16    -796.37554257   -3.92e-07 *    4.90e-05 *    4.90e-05 o    7.46e-04 *    7.46e-04 o  ~
	----------------------------------------------------------------------------------------------

Next Geometry in Ang
	Fragment 1 (Ang)

	    S  -0.0000000000   1.2282431281   0.0000000000
	    S   0.0000000000  -1.2282431281   0.0000000000

    Final optimized geometry and variables:
    Molecular point group: d2h
    Full point group: D_inf_h

    Geometry (in Angstrom), charge = -1, multiplicity = 4:

    S           -0.000000000000     1.228045757876     0.000000000000
    S            0.000000000000    -1.228045757876     0.000000000000

    Psi4 stopped on: Thursday, 17 July 2025 12:05PM
    Psi4 wall time for execution: 0:00:21.31

*** Psi4 exiting successfully. Buy a developer a beer!
