                               Psi4 1.9.1 release

  ==> Input File <==

--------------------------------------------------------------------------
molecule {
-1 4
Li   0.00000        0.60000        0.00000
F   0.00000       -0.60000        0.00000
}

set {
basis              cc-pvdz
reference          uks
maxiter            500
geom_maxiter       500
DAMPING_PERCENTAGE 1
guess              SAP
}

optimize('b3lyp')
--------------------------------------------------------------------------

    Molecular point group: c2v
  Charge       = -1
  Multiplicity = 4
  Basis Set: CC-PVDZ
    Blend: CC-PVDZ
  Basis Set: (CC-PVDZ AUX)
    Blend: CC-PVDZ-JKFIT + DEF2-UNIVERSAL-JKFIT
  @DF-UKS Final Energy:  -107.04579268618028
    Total Energy =                       -107.0457926861802775
 Dipole X            :          0.0000000            0.0000000            0.0000000
 Dipole Y            :          0.0000000            0.0000000            0.0000000
 Dipole Z            :         -2.1209043           -0.5359917           -2.6568960
 Magnitude           :                                                    2.6568960
    Molecular point group: c2v
  Basis Set: CC-PVDZ
    Blend: CC-PVDZ
  Basis Set: (CC-PVDZ AUX)
    Blend: CC-PVDZ-JKFIT + DEF2-UNIVERSAL-JKFIT
  Basis Set: CC-PVDZ
    Blend: CC-PVDZ
  Basis Set: (CC-PVDZ AUX)
    Blend: CC-PVDZ-JKFIT + DEF2-UNIVERSAL-JKFIT
  @DF-UKS Final Energy:  -107.12594597870927
    Total Energy =                       -107.1259459787092823
  Basis Set: CC-PVDZ
    Blend: CC-PVDZ
  Basis Set: (CC-PVDZ AUX)
    Blend: CC-PVDZ-JKFIT + DEF2-UNIVERSAL-JKFIT
  Basis Set: CC-PVDZ
    Blend: CC-PVDZ
  @DF-UKS Final Energy:  -107.15687307837557
    Total Energy =                       -107.1568730783755683
  @DF-UKS Final Energy:  -107.17526863721577
    Total Energy =                       -107.1752686372157655
  @DF-UKS Final Energy:  -107.18537915102503
    Total Energy =                       -107.1853791510250318
  @DF-UKS Final Energy:  -107.19160685469554
    Total Energy =                       -107.1916068546955358
  @DF-UKS Final Energy:  -107.19577138544491
    Total Energy =                       -107.1957713854449423
  @DF-UKS Final Energy:  -107.19883635078442
    Total Energy =                       -107.1988363507844184
  @DF-UKS Final Energy:  -107.20114961115661
    Total Energy =                       -107.2011496111566089
  @DF-UKS Final Energy:  -107.20124069049527
    Total Energy =                       -107.2012406904952684
  @DF-UKS Final Energy:  -107.20295699689242
    Total Energy =                       -107.2029569968924534
  @DF-UKS Final Energy:  -107.20299440143610
    Total Energy =                       -107.2029944014360865
  @DF-UKS Final Energy:  -107.20401124346708
    Total Energy =                       -107.2040112434670789
  @DF-UKS Final Energy:  -107.20402616267862
    Total Energy =                       -107.2040261626786162
  @DF-UKS Final Energy:  -107.20461862731315
    Total Energy =                       -107.2046186273131667
  @DF-UKS Final Energy:  -107.20462363089989
    Total Energy =                       -107.2046236308998886
  @DF-UKS Final Energy:  -107.20462856341220
    Total Energy =                       -107.2046285634122142
  @DF-UKS Final Energy:  -107.20491326614277
    Total Energy =                       -107.2049132661427535
  @DF-UKS Final Energy:  -107.20491467473138
    Total Energy =                       -107.2049146747313841
  @DF-UKS Final Energy:  -107.20491607355825
    Total Energy =                       -107.2049160735582518
  @DF-UKS Final Energy:  -107.20491746079178
    Total Energy =                       -107.2049174607917763
  @DF-UKS Final Energy:  -107.20491883659128
    Total Energy =                       -107.2049188365912613
  @DF-UKS Final Energy:  -107.20492020109752
    Total Energy =                       -107.2049202010975080
  Basis Set: (CC-PVDZ AUX)
    Blend: CC-PVDZ-JKFIT + DEF2-UNIVERSAL-JKFIT
  Basis Set: CC-PVDZ
    Blend: CC-PVDZ
  Basis Set: (CC-PVDZ AUX)
    Blend: CC-PVDZ-JKFIT + DEF2-UNIVERSAL-JKFIT
  @DF-UKS Final Energy:  -107.20505293884469
    Total Energy =                       -107.2050529388446876
  Basis Set: CC-PVDZ
    Blend: CC-PVDZ
  Basis Set: (CC-PVDZ AUX)
    Blend: CC-PVDZ-JKFIT + DEF2-UNIVERSAL-JKFIT
  Charge       = -1
  Multiplicity = 4
  Basis Set: CC-PVDZ
    Blend: CC-PVDZ
  Basis Set: (CC-PVDZ AUX)
    Blend: CC-PVDZ-JKFIT + DEF2-UNIVERSAL-JKFIT

    Orbital Energies [Eh]
    ---------------------

    Alpha Occupied:

       1A1   -24.677949     2A1    -1.865950     3A1    -1.107611
       4A1    -0.434767     1B1    -0.345844     1B2    -0.345628
       5A1     0.010493     2B2     0.059385

    Alpha Virtual:

       2B1     0.098380     6A1     0.099524     3B2     0.194330
       3B1     0.207112     7A1     0.207279     8A1     0.211076
       4B2     0.364281     1A2     0.364546     9A1     0.366702
      10A1     0.373122     4B1     0.373693    11A1     1.151789
       5B1     1.196288     5B2     1.196872    12A1     1.571474
      13A1     3.543268     6B1     3.564872     6B2     3.565013
       2A2     3.634050    14A1     3.634279

    Beta Occupied:

       1A1   -24.647203     2A1    -1.859558     3A1    -1.016694
       1B1    -0.314435     1B2    -0.314114

    Beta Virtual:

       4A1    -0.141652     5A1     0.094439     2B1     0.128803
       6A1     0.129455     2B2     0.133705     7A1     0.226543
       3B1     0.226750     3B2     0.237630     8A1     0.238639
       4B1     0.413016     9A1     0.413603     4B2     0.425153
       1A2     0.426559    10A1     0.430880     5B1     1.214201
       5B2     1.214860    11A1     1.261964    12A1     1.619020
       2A2     3.649327    13A1     3.649540     6B1     3.659993
       6B2     3.660171    14A1     3.679791

    Final Occupation by Irrep:
             A1    A2    B1    B2
    DOCC [     3,    0,    1,    1 ]
    SOCC [     2,    0,    0,    1 ]
    NA   [     5,    0,    1,    2 ]
    NB   [     3,    0,    1,    1 ]

  @DF-UKS Final Energy:  -107.20505322364367

   => Energetics <=

    Nuclear Repulsion Energy =              3.2796181700767910
    One-Electron Energy =                -156.9550038763899806
    Two-Electron Energy =                  56.4283557159252638
    DFT Exchange-Correlation Energy =      -9.9580232332557408
    Empirical Dispersion Energy =           0.0000000000000000
    VV10 Nonlocal Energy =                  0.0000000000000000
    Total Energy =                       -107.2050532236436737

  UHF NO Occupations:
  HONO-2 :    2 B2 1.0000000
  HONO-1 :    4 A1 1.0000000
  HONO-0 :    5 A1 1.0000000
  LUNO+0 :    6 A1 0.0003141
  LUNO+1 :    2 B1 0.0000573
  LUNO+2 :    3 B2 0.0000572
  LUNO+3 :    7 A1 0.0000004

Computation Completed

Properties will be evaluated at   0.000000,   0.000000,   0.000000 [a0]

Properties computed using the SCF density matrix

 Multipole Moments:

 ------------------------------------------------------------------------------------
     Multipole            Electronic (a.u.)      Nuclear  (a.u.)        Total (a.u.)
 ------------------------------------------------------------------------------------

 L = 1.  Multiply by 2.5417464519 to convert [e a0] to [Debye]
 Dipole X            :          0.0000000            0.0000000            0.0000000
 Dipole Y            :          0.0000000            0.0000000            0.0000000
 Dipole Z            :         -4.0911788           -1.9458907           -6.0370695
 Magnitude           :                                                    6.0370695

 ------------------------------------------------------------------------------------

*** tstop() called on Joses-MacBook-Pro-2.local at Thu Jul 17 09:30:43 2025
Module time:
	user time   =       2.28 seconds =       0.04 minutes
	system time =       2.78 seconds =       0.05 minutes
	total time  =          1 seconds =       0.02 minutes
Total time:
	user time   =      88.82 seconds =       1.48 minutes
	system time =     112.07 seconds =       1.87 minutes
	total time  =         20 seconds =       0.33 minutes

*** tstart() called on Joses-MacBook-Pro-2.local
*** at Thu Jul 17 09:30:43 2025

         ------------------------------------------------------------
                                   SCF GRAD
                          Rob Parrish, Justin Turney,
                       Andy Simmonett, and Alex Sokolov
         ------------------------------------------------------------

  ==> Geometry <==

    Molecular point group: c2v
    Full point group: C_inf_v

    Geometry (in Angstrom), charge = -1, multiplicity = 4:

       Center              X                  Y                   Z               Mass
    ------------   -----------------  -----------------  -----------------  -----------------
         LI           0.000000000000     0.000000000000     3.181594217949     7.016003436600
         F            0.000000000000     0.000000000000    -1.174944850670    18.998403162730

  Nuclear repulsion =    3.279618170076791

  ==> Basis Set <==

  Basis Set: CC-PVDZ
    Blend: CC-PVDZ
    Number of shells: 12
    Number of basis functions: 28
    Number of Cartesian functions: 30
    Spherical Harmonics?: true
    Max angular momentum: 2

  ==> DFJKGrad: Density-Fitted SCF Gradients <==

    Gradient:                    1
    J tasked:                  Yes
    K tasked:                  Yes
    wK tasked:                  No
    OpenMP threads:              1
    Integrals threads:           1
    Memory [MiB]:              375
    Schwarz Cutoff:          1E-12
    Fitting Condition:       1E-10

   => Auxiliary Basis Set <=

  Basis Set: (CC-PVDZ AUX)
    Blend: CC-PVDZ-JKFIT + DEF2-UNIVERSAL-JKFIT
    Number of shells: 41
    Number of basis functions: 121
    Number of Cartesian functions: 141
    Spherical Harmonics?: true
    Max angular momentum: 3

  ==> DFT Potential <==

   => LibXC <=

    Version 6.2.2
    S. Lehtola, C. Steigemann, M. J.T. Oliveira, and M. A.L. Marques.,  SoftwareX 7, 1â€“5 (2018) (10.1016/j.softx.2017.11.002)

   => Composite Functional: B3LYP <=

    B3LYP Hyb-GGA Exchange-Correlation Functional

    P. J. Stephens, F. J. Devlin, C. F. Chabalowski, and M. J. Frisch.,  J. Phys. Chem. 98, 11623 (1994) (10.1021/j100096a001)

    Deriv               =              1
    GGA                 =           TRUE
    Meta                =          FALSE

    Exchange Hybrid     =           TRUE
    MP2 Hybrid          =          FALSE

   => Exchange Functionals <=

    0.0800   Slater exchange
    0.7200         Becke 88

   => Exact (HF) Exchange <=

    0.2000               HF

   => Correlation Functionals <=

    0.1900   Vosko, Wilk & Nusair (VWN5_RPA)
    0.8100   Lee, Yang & Parr

   => LibXC Density Thresholds  <==

    XC_HYB_GGA_XC_B3LYP:  1.00E-15

   => Molecular Quadrature <=

    Radial Scheme          =       TREUTLER
    Pruning Scheme         =           NONE
    Nuclear Scheme         =       TREUTLER

    Blocking Scheme        =         OCTREE
    BS radius alpha        =              1
    Pruning alpha          =              1
    Radial Points          =             75
    Spherical Points       =            302
    Total Points           =          44421
    Total Blocks           =            445
    Max Points             =            255
    Max Functions          =             28
    Weights Tolerance      =       1.00E-15

  -Total Gradient:
     Atom            X                  Y                   Z
    ------   -----------------  -----------------  -----------------
       1        0.000000000000     0.000000000000    -0.000167537533
       2       -0.000000000000     0.000000000000     0.000076954463

*** tstop() called on Joses-MacBook-Pro-2.local at Thu Jul 17 09:30:43 2025
Module time:
	user time   =       0.85 seconds =       0.01 minutes
	system time =       0.57 seconds =       0.01 minutes
	total time  =          0 seconds =       0.00 minutes
Total time:
	user time   =      89.70 seconds =       1.50 minutes
	system time =     112.64 seconds =       1.88 minutes
	total time  =         20 seconds =       0.33 minutes

    			-----------------------------------------

    			 OPTKING 3.0: for geometry optimizations

    			     By R.A. King, Bethel University

    			        with contributions from

    			    A.V. Copan, J. Cayton, A. Heide

    			-----------------------------------------

	                            ===> Fragment 1 <==

	 Z (Atomic Numbers)          Masses                          Geom
	       3.000000             7.016003          0.00000000  0.00000000  6.01234171
	       9.000000            18.998403          0.00000000  0.00000000 -2.22032398

	 - Coordinate -           - BOHR/RAD -       - ANG/DEG -
	 R(1,2)           =         8.232666           4.356539

	        --- Internal Coordinate Step in ANG or DEG, aJ/ANG or AJ/DEG ---
	-------------------------------------------------------------------------------
	           Coordinate      Previous         Force          Change          New
	           ----------      --------        ------          ------        ------
	               R(1,2)       4.35654        0.00101        0.00105       4.35759
	-------------------------------------------------------------------------------

	                                 ==> Convergence Check <==

	Measures of convergence in internal coordinates in au.

	Criteria marked as inactive (o), active & met (*), and active & unmet ( ).

	----------------------------------------------------------------------------------------------
	   Step    Total Energy     Delta E     Max Force     RMS Force      Max Disp      RMS Disp
	----------------------------------------------------------------------------------------------
	  Convergence Criteria     1.00e-06 *    3.00e-04 *             o    1.20e-03 *             o
	----------------------------------------------------------------------------------------------
	    25    -107.20505322   -2.85e-07 *    1.22e-04 *    1.22e-04 o    1.99e-03      1.99e-03 o  ~
	----------------------------------------------------------------------------------------------

Next Geometry in Ang
	Fragment 1 (Ang)

	   Li   0.0000000000   0.0000000000   3.1821197775
	    F   0.0000000000   0.0000000000  -1.1754704102

    Final optimized geometry and variables:
    Molecular point group: c2v
    Full point group: C_inf_v

    Geometry (in Angstrom), charge = -1, multiplicity = 4:

    LI           0.000000000000     0.000000000000     3.181594217949
    F            0.000000000000     0.000000000000    -1.174944850670

    Psi4 stopped on: Thursday, 17 July 2025 09:30AM
    Psi4 wall time for execution: 0:00:20.19

*** Psi4 exiting successfully. Buy a developer a beer!
