                               Psi4 1.9.1 release

  ==> Input File <==

--------------------------------------------------------------------------
molecule {
-1 4
O   0.00000        0.60000        0.00000
Si   0.00000       -0.60000        0.00000
}

set {
basis              cc-pvdz
reference          uks
maxiter            500
geom_maxiter       500
DAMPING_PERCENTAGE 1
guess              SAP
}

optimize('b3lyp')
--------------------------------------------------------------------------

    Molecular point group: c2v
  Charge       = -1
  Multiplicity = 4
  Basis Set: CC-PVDZ
    Blend: CC-PVDZ
  Basis Set: (CC-PVDZ AUX)
    Blend: CC-PVDZ-JKFIT
  @DF-UKS Final Energy:  -364.29526890314696
    Total Energy =                       -364.2952689031470186
 Dipole X            :          0.0000000            0.0000000            0.0000000
 Dipole Y            :          0.0000000            0.0000000            0.0000000
 Dipole Z            :          0.1084868           -0.0058478            0.1026390
 Magnitude           :                                                    0.1026390
    Molecular point group: c2v
  Basis Set: CC-PVDZ
    Blend: CC-PVDZ
  Basis Set: (CC-PVDZ AUX)
    Blend: CC-PVDZ-JKFIT
  Basis Set: CC-PVDZ
    Blend: CC-PVDZ
  Basis Set: (CC-PVDZ AUX)
    Blend: CC-PVDZ-JKFIT
  @DF-UKS Final Energy:  -364.47123043855612
    Total Energy =                       -364.4712304385560628
  Basis Set: CC-PVDZ
    Blend: CC-PVDZ
  Basis Set: (CC-PVDZ AUX)
    Blend: CC-PVDZ-JKFIT
  Basis Set: CC-PVDZ
    Blend: CC-PVDZ
  @DF-UKS Final Energy:  -364.54969849799488
    Total Energy =                       -364.5496984979949389
  @DF-UKS Final Energy:  -364.57542620988283
    Total Energy =                       -364.5754262098828349
  @DF-UKS Final Energy:  -364.58920577145994
    Total Energy =                       -364.5892057714599446
  @DF-UKS Final Energy:  -364.59364965845691
    Total Energy =                       -364.5936496584569682
  @DF-UKS Final Energy:  -364.59582419416608
    Total Energy =                       -364.5958241941660845
  @DF-UKS Final Energy:  -364.59639850378323
    Total Energy =                       -364.5963985037831776
  @DF-UKS Final Energy:  -364.59659545996055
    Total Energy =                       -364.5965954599606107
  @DF-UKS Final Energy:  -364.59664037153431
    Total Energy =                       -364.5966403715342494
  Basis Set: (CC-PVDZ AUX)
    Blend: CC-PVDZ-JKFIT
  Basis Set: CC-PVDZ
    Blend: CC-PVDZ
  Basis Set: (CC-PVDZ AUX)
    Blend: CC-PVDZ-JKFIT
  @DF-UKS Final Energy:  -364.59664531683723
    Total Energy =                       -364.5966453168372254
  Basis Set: CC-PVDZ
    Blend: CC-PVDZ
  Basis Set: (CC-PVDZ AUX)
    Blend: CC-PVDZ-JKFIT
  Charge       = -1
  Multiplicity = 4
  Basis Set: CC-PVDZ
    Blend: CC-PVDZ
  Basis Set: (CC-PVDZ AUX)
    Blend: CC-PVDZ-JKFIT

    Orbital Energies [Eh]
    ---------------------

    Alpha Occupied:

       1A1   -65.907169     2A1   -18.890746     3A1    -5.047655
       4A1    -3.409011     1B1    -3.406151     1B2    -3.406151
       5A1    -0.684360     6A1    -0.223779     7A1    -0.099667
       2B1    -0.081012     2B2    -0.081012     3B1     0.084948
       3B2     0.084948

    Alpha Virtual:

       8A1     0.253242     9A1     0.462954     4B2     0.524954
       4B1     0.524954    10A1     0.577814    11A1     0.591842
       1A2     0.591842     5B1     0.657448     5B2     0.657448
      12A1     0.849150    13A1     1.228017     6B1     1.250037
       6B2     1.250037    14A1     1.943128    15A1     2.863844
       2A2     2.863871     7B2     2.911212     7B1     2.911212
      16A1     3.185477

    Beta Occupied:

       1A1   -65.901235     2A1   -18.867462     3A1    -5.040670
       4A1    -3.401397     1B1    -3.396047     1B2    -3.396047
       5A1    -0.621519     6A1    -0.134001     2B1    -0.032766
       2B2    -0.032766

    Beta Virtual:

       7A1     0.050626     3B1     0.199982     3B2     0.199982
       8A1     0.289699     9A1     0.500868     4B2     0.561907
       4B1     0.561907    10A1     0.615259     1A2     0.660886
      11A1     0.660886     5B1     0.709309     5B2     0.709309
      12A1     0.886818     6B1     1.279826     6B2     1.279826
      13A1     1.287488    14A1     1.978598    15A1     2.900491
       2A2     2.900518     7B2     2.971759     7B1     2.971759
      16A1     3.249146

    Final Occupation by Irrep:
             A1    A2    B1    B2
    DOCC [     6,    0,    2,    2 ]
    SOCC [     1,    0,    1,    1 ]
    NA   [     7,    0,    3,    3 ]
    NB   [     6,    0,    2,    2 ]

  @DF-UKS Final Energy:  -364.59664556418255

   => Energetics <=

    Nuclear Repulsion Energy =             34.7694962372144758
    One-Electron Energy =                -579.7510906911819575
    Two-Electron Energy =                 204.3149692642661250
    DFT Exchange-Correlation Energy =     -23.9300203744812663
    Empirical Dispersion Energy =           0.0000000000000000
    VV10 Nonlocal Energy =                  0.0000000000000000
    Total Energy =                       -364.5966455641826087

  UHF NO Occupations:
  HONO-2 :    3 B2 1.0000000
  HONO-1 :    7 A1 1.0000000
  HONO-0 :    3 B1 1.0000000
  LUNO+0 :    8 A1 0.0021893
  LUNO+1 :    4 B1 0.0008695
  LUNO+2 :    4 B2 0.0008695
  LUNO+3 :    9 A1 0.0001804

Computation Completed

Properties will be evaluated at   0.000000,   0.000000,   0.000000 [a0]

Properties computed using the SCF density matrix

 Multipole Moments:

 ------------------------------------------------------------------------------------
     Multipole            Electronic (a.u.)      Nuclear  (a.u.)        Total (a.u.)
 ------------------------------------------------------------------------------------

 L = 1.  Multiply by 2.5417464519 to convert [e a0] to [Debye]
 Dipole X            :          0.0000000            0.0000000            0.0000000
 Dipole Y            :          0.0000000            0.0000000            0.0000000
 Dipole Z            :         -0.1000822           -0.0083067           -0.1083890
 Magnitude           :                                                    0.1083890

 ------------------------------------------------------------------------------------

*** tstop() called on Joses-MacBook-Pro-2.local at Thu Jul 17 10:42:54 2025
Module time:
	user time   =       4.66 seconds =       0.08 minutes
	system time =       2.84 seconds =       0.05 minutes
	total time  =          1 seconds =       0.02 minutes
Total time:
	user time   =      67.07 seconds =       1.12 minutes
	system time =      67.96 seconds =       1.13 minutes
	total time  =         14 seconds =       0.23 minutes

*** tstart() called on Joses-MacBook-Pro-2.local
*** at Thu Jul 17 10:42:54 2025

         ------------------------------------------------------------
                                   SCF GRAD
                          Rob Parrish, Justin Turney,
                       Andy Simmonett, and Alex Sokolov
         ------------------------------------------------------------

  ==> Geometry <==

    Molecular point group: c2v
    Full point group: C_inf_v

    Geometry (in Angstrom), charge = -1, multiplicity = 4:

       Center              X                  Y                   Z               Mass
    ------------   -----------------  -----------------  -----------------  -----------------
         O            0.000000000000     0.000000000000     1.084541335383    15.994914619570
         SI           0.000000000000     0.000000000000    -0.620051885948    27.976926534650

  Nuclear repulsion =   34.769496237214476

  ==> Basis Set <==

  Basis Set: CC-PVDZ
    Blend: CC-PVDZ
    Number of shells: 14
    Number of basis functions: 32
    Number of Cartesian functions: 34
    Spherical Harmonics?: true
    Max angular momentum: 2

  ==> DFJKGrad: Density-Fitted SCF Gradients <==

    Gradient:                    1
    J tasked:                  Yes
    K tasked:                  Yes
    wK tasked:                  No
    OpenMP threads:              1
    Integrals threads:           1
    Memory [MiB]:              375
    Schwarz Cutoff:          1E-12
    Fitting Condition:       1E-10

   => Auxiliary Basis Set <=

  Basis Set: (CC-PVDZ AUX)
    Blend: CC-PVDZ-JKFIT
    Number of shells: 60
    Number of basis functions: 182
    Number of Cartesian functions: 211
    Spherical Harmonics?: true
    Max angular momentum: 3

  ==> DFT Potential <==

   => LibXC <=

    Version 6.2.2
    S. Lehtola, C. Steigemann, M. J.T. Oliveira, and M. A.L. Marques.,  SoftwareX 7, 1â€“5 (2018) (10.1016/j.softx.2017.11.002)

   => Composite Functional: B3LYP <=

    B3LYP Hyb-GGA Exchange-Correlation Functional

    P. J. Stephens, F. J. Devlin, C. F. Chabalowski, and M. J. Frisch.,  J. Phys. Chem. 98, 11623 (1994) (10.1021/j100096a001)

    Deriv               =              1
    GGA                 =           TRUE
    Meta                =          FALSE

    Exchange Hybrid     =           TRUE
    MP2 Hybrid          =          FALSE

   => Exchange Functionals <=

    0.0800   Slater exchange
    0.7200         Becke 88

   => Exact (HF) Exchange <=

    0.2000               HF

   => Correlation Functionals <=

    0.1900   Vosko, Wilk & Nusair (VWN5_RPA)
    0.8100   Lee, Yang & Parr

   => LibXC Density Thresholds  <==

    XC_HYB_GGA_XC_B3LYP:  1.00E-15

   => Molecular Quadrature <=

    Radial Scheme          =       TREUTLER
    Pruning Scheme         =           NONE
    Nuclear Scheme         =       TREUTLER

    Blocking Scheme        =         OCTREE
    BS radius alpha        =              1
    Pruning alpha          =              1
    Radial Points          =             75
    Spherical Points       =            302
    Total Points           =          42718
    Total Blocks           =            393
    Max Points             =            256
    Max Functions          =             32
    Weights Tolerance      =       1.00E-15

  -Total Gradient:
     Atom            X                  Y                   Z
    ------   -----------------  -----------------  -----------------
       1       -0.000000000000     0.000000000000    -0.000061978643
       2       -0.000000000000    -0.000000000000     0.000033530320

*** tstop() called on Joses-MacBook-Pro-2.local at Thu Jul 17 10:42:54 2025
Module time:
	user time   =       1.09 seconds =       0.02 minutes
	system time =       1.69 seconds =       0.03 minutes
	total time  =          0 seconds =       0.00 minutes
Total time:
	user time   =      68.16 seconds =       1.14 minutes
	system time =      69.65 seconds =       1.16 minutes
	total time  =         14 seconds =       0.23 minutes

    			-----------------------------------------

    			 OPTKING 3.0: for geometry optimizations

    			     By R.A. King, Bethel University

    			        with contributions from

    			    A.V. Copan, J. Cayton, A. Heide

    			-----------------------------------------

	                            ===> Fragment 1 <==

	 Z (Atomic Numbers)          Masses                          Geom
	       8.000000            15.994915          0.00000000  0.00000000  2.04948610
	      14.000000            27.976927          0.00000000  0.00000000 -1.17172825

	 - Coordinate -           - BOHR/RAD -       - ANG/DEG -
	 R(1,2)           =         3.221214           1.704593

	        --- Internal Coordinate Step in ANG or DEG, aJ/ANG or AJ/DEG ---
	-------------------------------------------------------------------------------
	           Coordinate      Previous         Force          Change          New
	           ----------      --------        ------          ------        ------
	               R(1,2)       1.70459        0.00039        0.00011       1.70471
	-------------------------------------------------------------------------------

	                                 ==> Convergence Check <==

	Measures of convergence in internal coordinates in au.

	Criteria marked as inactive (o), active & met (*), and active & unmet ( ).

	----------------------------------------------------------------------------------------------
	   Step    Total Energy     Delta E     Max Force     RMS Force      Max Disp      RMS Disp
	----------------------------------------------------------------------------------------------
	  Convergence Criteria     1.00e-06 *    3.00e-04 *             o    1.20e-03 *             o
	----------------------------------------------------------------------------------------------
	    12    -364.59664556   -2.47e-07 *    4.78e-05 *    4.78e-05 o    2.16e-04 *    2.16e-04 o  ~
	----------------------------------------------------------------------------------------------

Next Geometry in Ang
	Fragment 1 (Ang)

	    O   0.0000000000   0.0000000000   1.0845984536
	   Si   0.0000000000   0.0000000000  -0.6201090042

    Final optimized geometry and variables:
    Molecular point group: c2v
    Full point group: C_inf_v

    Geometry (in Angstrom), charge = -1, multiplicity = 4:

    O            0.000000000000     0.000000000000     1.084541335383
    SI           0.000000000000     0.000000000000    -0.620051885948

    Psi4 stopped on: Thursday, 17 July 2025 10:42AM
    Psi4 wall time for execution: 0:00:14.54

*** Psi4 exiting successfully. Buy a developer a beer!
