                               Psi4 1.9.1 release

  ==> Input File <==

--------------------------------------------------------------------------
molecule {
-1 4
Na   0.00000        0.60000        0.00000
Na   0.00000       -0.60000        0.00000
}

set {
basis              cc-pvdz
reference          uks
maxiter            500
geom_maxiter       500
DAMPING_PERCENTAGE 1
guess              SAP
}

optimize('b3lyp')
--------------------------------------------------------------------------

    Molecular point group: d2h
  Charge       = -1
  Multiplicity = 4
  Basis Set: CC-PVDZ
    Blend: CC-PVDZ
  Basis Set: (CC-PVDZ AUX)
    Blend: DEF2-UNIVERSAL-JKFIT
  @DF-UKS Final Energy:  -324.00566359314075
    Total Energy =                       -324.0056635931408096
 Dipole X            :          0.0000000            0.0000000            0.0000000
 Dipole Y            :          0.0000000            0.0000000            0.0000000
 Dipole Z            :          0.0000000            0.0000000            0.0000000
 Magnitude           :                                                    0.0000000
    Molecular point group: d2h
  Basis Set: CC-PVDZ
    Blend: CC-PVDZ
  Basis Set: (CC-PVDZ AUX)
    Blend: DEF2-UNIVERSAL-JKFIT
  Basis Set: CC-PVDZ
    Blend: CC-PVDZ
  Basis Set: (CC-PVDZ AUX)
    Blend: DEF2-UNIVERSAL-JKFIT
  @DF-UKS Final Energy:  -324.01286705063524
    Total Energy =                       -324.0128670506352364
  Basis Set: CC-PVDZ
    Blend: CC-PVDZ
  Basis Set: (CC-PVDZ AUX)
    Blend: DEF2-UNIVERSAL-JKFIT
  Basis Set: CC-PVDZ
    Blend: CC-PVDZ
  @DF-UKS Final Energy:  -324.02672627593955
    Total Energy =                       -324.0267262759394953
  @DF-UKS Final Energy:  -324.07657415387746
    Total Energy =                       -324.0765741538774591
  @DF-UKS Final Energy:  -324.29235869622158
    Total Energy =                       -324.2923586962216405
  @DF-UKS Final Energy:  -324.38064781537184
    Total Energy =                       -324.3806478153718444
  @DF-UKS Final Energy:  -324.43948624748901
    Total Energy =                       -324.4394862474890147
  @DF-UKS Final Energy:  -324.47140521084970
    Total Energy =                       -324.4714052108496958
  @DF-UKS Final Energy:  -324.49522773492885
    Total Energy =                       -324.4952277349288465
  @DF-UKS Final Energy:  -324.51350695990703
    Total Energy =                       -324.5135069599070903
  @DF-UKS Final Energy:  -324.52883014915557
    Total Energy =                       -324.5288301491556240
  @DF-UKS Final Energy:  -324.53707955514756
    Total Energy =                       -324.5370795551475567
  @DF-UKS Final Energy:  -324.54065491263401
    Total Energy =                       -324.5406549126339542
  @DF-UKS Final Energy:  -324.54186219121976
    Total Energy =                       -324.5418621912197636
  @DF-UKS Final Energy:  -324.57065371572617
    Total Energy =                       -324.5706537157262233
  @DF-UKS Final Energy:  -324.57613332098475
    Total Energy =                       -324.5761333209847521
  @DF-UKS Final Energy:  -324.57615676564308
    Total Energy =                       -324.5761567656430202
  @DF-UKS Final Energy:  -324.57700392373232
    Total Energy =                       -324.5770039237323203
  @DF-UKS Final Energy:  -324.57723080699918
    Total Energy =                       -324.5772308069991823
  @DF-UKS Final Energy:  -324.57729646764659
    Total Energy =                       -324.5772964676465904
  Basis Set: (CC-PVDZ AUX)
    Blend: DEF2-UNIVERSAL-JKFIT
  Basis Set: CC-PVDZ
    Blend: CC-PVDZ
  Basis Set: (CC-PVDZ AUX)
    Blend: DEF2-UNIVERSAL-JKFIT
  @DF-UKS Final Energy:  -324.57730499050552
    Total Energy =                       -324.5773049905055245
  Basis Set: CC-PVDZ
    Blend: CC-PVDZ
  Basis Set: (CC-PVDZ AUX)
    Blend: DEF2-UNIVERSAL-JKFIT
  Charge       = -1
  Multiplicity = 4
  Basis Set: CC-PVDZ
    Blend: CC-PVDZ
  Basis Set: (CC-PVDZ AUX)
    Blend: DEF2-UNIVERSAL-JKFIT

    Orbital Energies [Eh]
    ---------------------

    Alpha Occupied:

       1B2u  -38.362089     1Ag   -38.362087     2B2u   -2.106299
       2Ag    -2.106245     1B1g   -1.037547     1B3u   -1.037545
       3Ag    -1.037438     3B2u   -1.037361     1B3g   -1.036728
       1B1u   -1.036727     4Ag    -0.035346     4B2u   -0.002035
       2B1u    0.038717

    Alpha Virtual:

       5Ag     0.069134     2B3u    0.069811     2B3g    0.080256
       2B1g    0.088961     5B2u    0.098696     6Ag     0.144999
       7Ag     0.156433     3B1u    0.163877     3B3u    0.171628
       3B3g    0.181927     3B1g    0.186317     6B2u    0.187700
       7B2u    0.222699     4B1u    0.242295     4B3u    0.246679
       1B2g    0.257910     8Ag     0.259477     1Au     0.285165
       8B2u    0.286488     9Ag     0.304636     4B3g    0.341564
       4B1g    0.344644     9B2u    0.425718

    Beta Occupied:

       1B2u  -38.360657     1Ag   -38.360655     2B2u   -2.103509
       2Ag    -2.103451     1B1g   -1.035833     1B3u   -1.035828
       3Ag    -1.035579     3B2u   -1.035520     1B3g   -1.034485
       1B1u   -1.034481

    Beta Virtual:

       4Ag     0.035504     4B2u    0.060895     2B3u    0.095061
       2B1u    0.098914     5Ag     0.102589     2B1g    0.112704
       2B3g    0.115809     5B2u    0.116988     6Ag     0.171109
       7Ag     0.180922     3B3u    0.188842     3B1u    0.193535
       3B1g    0.205299     3B3g    0.211039     6B2u    0.216759
       7B2u    0.242960     4B3u    0.276131     4B1u    0.282927
       1B2g    0.292293     8Ag     0.292392     1Au     0.317849
       8B2u    0.318170     9Ag     0.335643     4B1g    0.368141
       4B3g    0.375027     9B2u    0.446616

    Final Occupation by Irrep:
             Ag   B1g   B2g   B3g    Au   B1u   B2u   B3u
    DOCC [     3,    1,    0,    1,    0,    1,    3,    1 ]
    SOCC [     1,    0,    0,    0,    0,    1,    1,    0 ]
    NA   [     4,    1,    0,    1,    0,    2,    4,    1 ]
    NB   [     3,    1,    0,    1,    0,    1,    3,    1 ]

  @DF-UKS Final Energy:  -324.57730529088019

   => Energetics <=

    Nuclear Repulsion Energy =             15.4327931002007013
    One-Electron Energy =                -489.0334227183258236
    Two-Electron Energy =                 172.3694050936123574
    DFT Exchange-Correlation Energy =     -23.3460807663674643
    Empirical Dispersion Energy =           0.0000000000000000
    VV10 Nonlocal Energy =                  0.0000000000000000
    Total Energy =                       -324.5773052908801901

  UHF NO Occupations:
  HONO-2 :    2B1u 1.0000000
  HONO-1 :    4 Ag 1.0000000
  HONO-0 :    4B2u 1.0000000
  LUNO+0 :    5 Ag 0.0000009
  LUNO+1 :    2B3g 0.0000007
  LUNO+2 :    2B3u 0.0000006
  LUNO+3 :    2B1g 0.0000005

Computation Completed

Properties will be evaluated at   0.000000,   0.000000,   0.000000 [a0]

Properties computed using the SCF density matrix

 Multipole Moments:

 ------------------------------------------------------------------------------------
     Multipole            Electronic (a.u.)      Nuclear  (a.u.)        Total (a.u.)
 ------------------------------------------------------------------------------------

 L = 1.  Multiply by 2.5417464519 to convert [e a0] to [Debye]
 Dipole X            :          0.0000000            0.0000000            0.0000000
 Dipole Y            :          0.0000000            0.0000000            0.0000000
 Dipole Z            :          0.0000000            0.0000000            0.0000000
 Magnitude           :                                                    0.0000000

 ------------------------------------------------------------------------------------

*** tstop() called on Joses-MacBook-Pro-2.local at Thu Jul 17 11:06:36 2025
Module time:
	user time   =       6.14 seconds =       0.10 minutes
	system time =       2.19 seconds =       0.04 minutes
	total time  =          0 seconds =       0.00 minutes
Total time:
	user time   =     236.60 seconds =       3.94 minutes
	system time =     122.84 seconds =       2.05 minutes
	total time  =         36 seconds =       0.60 minutes

*** tstart() called on Joses-MacBook-Pro-2.local
*** at Thu Jul 17 11:06:36 2025

         ------------------------------------------------------------
                                   SCF GRAD
                          Rob Parrish, Justin Turney,
                       Andy Simmonett, and Alex Sokolov
         ------------------------------------------------------------

  ==> Geometry <==

    Molecular point group: d2h
    Full point group: D_inf_h

    Geometry (in Angstrom), charge = -1, multiplicity = 4:

       Center              X                  Y                   Z               Mass
    ------------   -----------------  -----------------  -----------------  -----------------
         NA          -0.000000000000     2.074492999269     0.000000000000    22.989769282000
         NA           0.000000000000    -2.074492999269     0.000000000000    22.989769282000

  Nuclear repulsion =   15.432793100200701

  ==> Basis Set <==

  Basis Set: CC-PVDZ
    Blend: CC-PVDZ
    Number of shells: 16
    Number of basis functions: 36
    Number of Cartesian functions: 38
    Spherical Harmonics?: true
    Max angular momentum: 2

  ==> DFJKGrad: Density-Fitted SCF Gradients <==

    Gradient:                    1
    J tasked:                  Yes
    K tasked:                  Yes
    wK tasked:                  No
    OpenMP threads:              1
    Integrals threads:           1
    Memory [MiB]:              375
    Schwarz Cutoff:          1E-12
    Fitting Condition:       1E-10

   => Auxiliary Basis Set <=

  Basis Set: (CC-PVDZ AUX)
    Blend: DEF2-UNIVERSAL-JKFIT
    Number of shells: 68
    Number of basis functions: 224
    Number of Cartesian functions: 274
    Spherical Harmonics?: true
    Max angular momentum: 4

  ==> DFT Potential <==

   => LibXC <=

    Version 6.2.2
    S. Lehtola, C. Steigemann, M. J.T. Oliveira, and M. A.L. Marques.,  SoftwareX 7, 1â€“5 (2018) (10.1016/j.softx.2017.11.002)

   => Composite Functional: B3LYP <=

    B3LYP Hyb-GGA Exchange-Correlation Functional

    P. J. Stephens, F. J. Devlin, C. F. Chabalowski, and M. J. Frisch.,  J. Phys. Chem. 98, 11623 (1994) (10.1021/j100096a001)

    Deriv               =              1
    GGA                 =           TRUE
    Meta                =          FALSE

    Exchange Hybrid     =           TRUE
    MP2 Hybrid          =          FALSE

   => Exchange Functionals <=

    0.0800   Slater exchange
    0.7200         Becke 88

   => Exact (HF) Exchange <=

    0.2000               HF

   => Correlation Functionals <=

    0.1900   Vosko, Wilk & Nusair (VWN5_RPA)
    0.8100   Lee, Yang & Parr

   => LibXC Density Thresholds  <==

    XC_HYB_GGA_XC_B3LYP:  1.00E-15

   => Molecular Quadrature <=

    Radial Scheme          =       TREUTLER
    Pruning Scheme         =           NONE
    Nuclear Scheme         =       TREUTLER

    Blocking Scheme        =         OCTREE
    BS radius alpha        =              1
    Pruning alpha          =              1
    Radial Points          =             75
    Spherical Points       =            302
    Total Points           =          43148
    Total Blocks           =            450
    Max Points             =            255
    Max Functions          =             36
    Weights Tolerance      =       1.00E-15

  -Total Gradient:
     Atom            X                  Y                   Z
    ------   -----------------  -----------------  -----------------
       1        0.000000000000    -0.000006405722     0.000000000000
       2       -0.000000000000     0.000006405722     0.000000000000

*** tstop() called on Joses-MacBook-Pro-2.local at Thu Jul 17 11:06:37 2025
Module time:
	user time   =       3.82 seconds =       0.06 minutes
	system time =       1.02 seconds =       0.02 minutes
	total time  =          1 seconds =       0.02 minutes
Total time:
	user time   =     240.42 seconds =       4.01 minutes
	system time =     123.86 seconds =       2.06 minutes
	total time  =         37 seconds =       0.62 minutes

    			-----------------------------------------

    			 OPTKING 3.0: for geometry optimizations

    			     By R.A. King, Bethel University

    			        with contributions from

    			    A.V. Copan, J. Cayton, A. Heide

    			-----------------------------------------

	                            ===> Fragment 1 <==

	 Z (Atomic Numbers)          Masses                          Geom
	      11.000000            22.989769         -0.00000000  3.92022362  0.00000000
	      11.000000            22.989769          0.00000000 -3.92022362  0.00000000

	 - Coordinate -           - BOHR/RAD -       - ANG/DEG -
	 R(1,2)           =         7.840447           4.148986

	        --- Internal Coordinate Step in ANG or DEG, aJ/ANG or AJ/DEG ---
	-------------------------------------------------------------------------------
	           Coordinate      Previous         Force          Change          New
	           ----------      --------        ------          ------        ------
	               R(1,2)       4.14899        0.00005        0.00264       4.15163
	-------------------------------------------------------------------------------

	                                 ==> Convergence Check <==

	Measures of convergence in internal coordinates in au.

	Criteria marked as inactive (o), active & met (*), and active & unmet ( ).

	----------------------------------------------------------------------------------------------
	   Step    Total Energy     Delta E     Max Force     RMS Force      Max Disp      RMS Disp
	----------------------------------------------------------------------------------------------
	  Convergence Criteria     1.00e-06 *    3.00e-04 *             o    1.20e-03 *             o
	----------------------------------------------------------------------------------------------
	    22    -324.57730529   -3.00e-07 *    6.41e-06 *    6.41e-06 o    4.99e-03      4.99e-03 o  ~
	----------------------------------------------------------------------------------------------

Next Geometry in Ang
	Fragment 1 (Ang)

	   Na  -0.0000000000   2.0758139555   0.0000000000
	   Na   0.0000000000  -2.0758139555   0.0000000000

    Final optimized geometry and variables:
    Molecular point group: d2h
    Full point group: D_inf_h

    Geometry (in Angstrom), charge = -1, multiplicity = 4:

    NA          -0.000000000000     2.074492999269     0.000000000000
    NA           0.000000000000    -2.074492999269     0.000000000000

    Psi4 stopped on: Thursday, 17 July 2025 11:06AM
    Psi4 wall time for execution: 0:00:37.19

*** Psi4 exiting successfully. Buy a developer a beer!
