                               Psi4 1.9.1 release

  ==> Input File <==

--------------------------------------------------------------------------
molecule {
-1 4
Al   0.00000        0.60000        0.00000
Cl   0.00000       -0.60000        0.00000
}

set {
basis              cc-pvdz
reference          uks
maxiter            500
geom_maxiter       500
DAMPING_PERCENTAGE 1
guess              SAP
}

optimize('b3lyp')
--------------------------------------------------------------------------

    Molecular point group: c2v
  Charge       = -1
  Multiplicity = 4
  Basis Set: CC-PVDZ
    Blend: CC-PVDZ
  Basis Set: (CC-PVDZ AUX)
    Blend: CC-PVDZ-JKFIT
  @DF-UKS Final Energy:  -701.35316151687084
    Total Energy =                       -701.3531615168708413
 Dipole X            :          0.0000000            0.0000000            0.0000000
 Dipole Y            :          0.0000000            0.0000000            0.0000000
 Dipole Z            :         -2.1019891           -0.1497521           -2.2517412
 Magnitude           :                                                    2.2517412
    Molecular point group: c2v
  Basis Set: CC-PVDZ
    Blend: CC-PVDZ
  Basis Set: (CC-PVDZ AUX)
    Blend: CC-PVDZ-JKFIT
  Basis Set: CC-PVDZ
    Blend: CC-PVDZ
  Basis Set: (CC-PVDZ AUX)
    Blend: CC-PVDZ-JKFIT
  @DF-UKS Final Energy:  -701.38551509991919
    Total Energy =                       -701.3855150999191892
  Basis Set: CC-PVDZ
    Blend: CC-PVDZ
  Basis Set: (CC-PVDZ AUX)
    Blend: CC-PVDZ-JKFIT
  Basis Set: CC-PVDZ
    Blend: CC-PVDZ
  @DF-UKS Final Energy:  -701.44670294587479
    Total Energy =                       -701.4467029458749039
  @DF-UKS Final Energy:  -701.65569034075486
    Total Energy =                       -701.6556903407548589
  @DF-UKS Final Energy:  -702.23346301042977
    Total Energy =                       -702.2334630104297730
  @DF-UKS Final Energy:  -702.42559228634218
    Total Energy =                       -702.4255922863422938
  @DF-UKS Final Energy:  -702.53866756342018
    Total Energy =                       -702.5386675634201765
  @DF-UKS Final Energy:  -702.59282286663654
    Total Energy =                       -702.5928228666365385
  @DF-UKS Final Energy:  -702.61598973326375
    Total Energy =                       -702.6159897332637456
  @DF-UKS Final Energy:  -702.62428379572145
    Total Energy =                       -702.6242837957214533
  @DF-UKS Final Energy:  -702.62610124604691
    Total Energy =                       -702.6261012460469146
  @DF-UKS Final Energy:  -702.62665860822005
    Total Energy =                       -702.6266586082200547
  @DF-UKS Final Energy:  -702.62673645401730
    Total Energy =                       -702.6267364540171911
  @DF-UKS Final Energy:  -702.62674815696721
    Total Energy =                       -702.6267481569672100
  Basis Set: (CC-PVDZ AUX)
    Blend: CC-PVDZ-JKFIT
  Basis Set: CC-PVDZ
    Blend: CC-PVDZ
  Basis Set: (CC-PVDZ AUX)
    Blend: CC-PVDZ-JKFIT
  @DF-UKS Final Energy:  -702.62675015037598
    Total Energy =                       -702.6267501503759831
  Basis Set: CC-PVDZ
    Blend: CC-PVDZ
  Basis Set: (CC-PVDZ AUX)
    Blend: CC-PVDZ-JKFIT
  Charge       = -1
  Multiplicity = 4
  Basis Set: CC-PVDZ
    Blend: CC-PVDZ
  Basis Set: (CC-PVDZ AUX)
    Blend: CC-PVDZ-JKFIT

    Orbital Energies [Eh]
    ---------------------

    Alpha Occupied:

       1A1  -101.321523     2A1   -55.879100     3A1    -9.238373
       4A1    -6.999157     1B1    -6.992971     1B2    -6.992971
       5A1    -3.958764     6A1    -2.512453     2B2    -2.511518
       2B1    -2.511518     7A1    -0.594588     8A1    -0.203328
       3B1    -0.123312     3B2    -0.123312     9A1    -0.091024
       4B2     0.056566     4B1     0.056566

    Alpha Virtual:

      10A1     0.177894    11A1     0.326471     5B1     0.380263
       5B2     0.380263    12A1     0.390955    13A1     0.433703
       1A2     0.433703     6B1     0.450315     6B2     0.450315
      14A1     0.516974     7B1     0.780837     7B2     0.780837
      15A1     0.799943    16A1     0.951049     2A2     0.951058
      17A1     0.969419     8B1     1.020014     8B2     1.020014
      18A1     1.339190

    Beta Occupied:

       1A1  -101.319684     2A1   -55.872570     3A1    -9.236549
       4A1    -6.995339     1B1    -6.990909     1B2    -6.990909
       5A1    -3.949454     6A1    -2.505848     2B2    -2.500722
       2B1    -2.500722     7A1    -0.583177     8A1    -0.173531
       3B1    -0.114699     3B2    -0.114699

    Beta Virtual:

       9A1     0.037827     4B1     0.167816     4B2     0.167816
      10A1     0.211362    11A1     0.360767    12A1     0.422852
       5B1     0.426293     5B2     0.426293     6B1     0.507956
       6B2     0.507956     1A2     0.517913    13A1     0.517913
      14A1     0.552281     7B1     0.785603     7B2     0.785603
      15A1     0.818129    16A1     0.958282     2A2     0.958292
      17A1     0.980325     8B1     1.036763     8B2     1.036763
      18A1     1.350569

    Final Occupation by Irrep:
             A1    A2    B1    B2
    DOCC [     8,    0,    3,    3 ]
    SOCC [     1,    0,    1,    1 ]
    NA   [     9,    0,    4,    4 ]
    NB   [     8,    0,    3,    3 ]

  @DF-UKS Final Energy:  -702.62675023199881

   => Energetics <=

    Nuclear Repulsion Energy =             51.0803387902286516
    One-Electron Energy =               -1080.6330985346198759
    Two-Electron Energy =                 364.8599967852046007
    DFT Exchange-Correlation Energy =     -37.9339872728119900
    Empirical Dispersion Energy =           0.0000000000000000
    VV10 Nonlocal Energy =                  0.0000000000000000
    Total Energy =                       -702.6267502319986988

  UHF NO Occupations:
  HONO-2 :    4 B1 1.0000000
  HONO-1 :    9 A1 1.0000000
  HONO-0 :    4 B2 1.0000000
  LUNO+0 :   10 A1 0.0002721
  LUNO+1 :    5 B1 0.0000733
  LUNO+2 :    5 B2 0.0000733
  LUNO+3 :   11 A1 0.0000125

Computation Completed

Properties will be evaluated at   0.000000,   0.000000,   0.000000 [a0]

Properties computed using the SCF density matrix

 Multipole Moments:

 ------------------------------------------------------------------------------------
     Multipole            Electronic (a.u.)      Nuclear  (a.u.)        Total (a.u.)
 ------------------------------------------------------------------------------------

 L = 1.  Multiply by 2.5417464519 to convert [e a0] to [Debye]
 Dipole X            :          0.0000000            0.0000000            0.0000000
 Dipole Y            :          0.0000000            0.0000000            0.0000000
 Dipole Z            :         -0.7522973           -0.2857139           -1.0380112
 Magnitude           :                                                    1.0380112

 ------------------------------------------------------------------------------------

*** tstop() called on Joses-MacBook-Pro-2.local at Thu Jul 17 11:41:59 2025
Module time:
	user time   =       9.96 seconds =       0.17 minutes
	system time =       2.34 seconds =       0.04 minutes
	total time  =          1 seconds =       0.02 minutes
Total time:
	user time   =     250.66 seconds =       4.18 minutes
	system time =      56.68 seconds =       0.94 minutes
	total time  =         31 seconds =       0.52 minutes

*** tstart() called on Joses-MacBook-Pro-2.local
*** at Thu Jul 17 11:41:59 2025

         ------------------------------------------------------------
                                   SCF GRAD
                          Rob Parrish, Justin Turney,
                       Andy Simmonett, and Alex Sokolov
         ------------------------------------------------------------

  ==> Geometry <==

    Molecular point group: c2v
    Full point group: C_inf_v

    Geometry (in Angstrom), charge = -1, multiplicity = 4:

       Center              X                  Y                   Z               Mass
    ------------   -----------------  -----------------  -----------------  -----------------
         AL           0.000000000000     0.000000000000     1.292340538485    26.981538530000
         CL           0.000000000000     0.000000000000    -0.997154134570    34.968852682000

  Nuclear repulsion =   51.080338790228652

  ==> Basis Set <==

  Basis Set: CC-PVDZ
    Blend: CC-PVDZ
    Number of shells: 16
    Number of basis functions: 36
    Number of Cartesian functions: 38
    Spherical Harmonics?: true
    Max angular momentum: 2

  ==> DFJKGrad: Density-Fitted SCF Gradients <==

    Gradient:                    1
    J tasked:                  Yes
    K tasked:                  Yes
    wK tasked:                  No
    OpenMP threads:              1
    Integrals threads:           1
    Memory [MiB]:              375
    Schwarz Cutoff:          1E-12
    Fitting Condition:       1E-10

   => Auxiliary Basis Set <=

  Basis Set: (CC-PVDZ AUX)
    Blend: CC-PVDZ-JKFIT
    Number of shells: 72
    Number of basis functions: 224
    Number of Cartesian functions: 260
    Spherical Harmonics?: true
    Max angular momentum: 3

  ==> DFT Potential <==

   => LibXC <=

    Version 6.2.2
    S. Lehtola, C. Steigemann, M. J.T. Oliveira, and M. A.L. Marques.,  SoftwareX 7, 1â€“5 (2018) (10.1016/j.softx.2017.11.002)

   => Composite Functional: B3LYP <=

    B3LYP Hyb-GGA Exchange-Correlation Functional

    P. J. Stephens, F. J. Devlin, C. F. Chabalowski, and M. J. Frisch.,  J. Phys. Chem. 98, 11623 (1994) (10.1021/j100096a001)

    Deriv               =              1
    GGA                 =           TRUE
    Meta                =          FALSE

    Exchange Hybrid     =           TRUE
    MP2 Hybrid          =          FALSE

   => Exchange Functionals <=

    0.0800   Slater exchange
    0.7200         Becke 88

   => Exact (HF) Exchange <=

    0.2000               HF

   => Correlation Functionals <=

    0.1900   Vosko, Wilk & Nusair (VWN5_RPA)
    0.8100   Lee, Yang & Parr

   => LibXC Density Thresholds  <==

    XC_HYB_GGA_XC_B3LYP:  1.00E-15

   => Molecular Quadrature <=

    Radial Scheme          =       TREUTLER
    Pruning Scheme         =           NONE
    Nuclear Scheme         =       TREUTLER

    Blocking Scheme        =         OCTREE
    BS radius alpha        =              1
    Pruning alpha          =              1
    Radial Points          =             75
    Spherical Points       =            302
    Total Points           =          42659
    Total Blocks           =            401
    Max Points             =            256
    Max Functions          =             36
    Weights Tolerance      =       1.00E-15

  -Total Gradient:
     Atom            X                  Y                   Z
    ------   -----------------  -----------------  -----------------
       1        0.000000000000     0.000000000000    -0.000001247820
       2        0.000000000000     0.000000000000     0.000036115907

*** tstop() called on Joses-MacBook-Pro-2.local at Thu Jul 17 11:42:00 2025
Module time:
	user time   =       3.24 seconds =       0.05 minutes
	system time =       1.25 seconds =       0.02 minutes
	total time  =          1 seconds =       0.02 minutes
Total time:
	user time   =     253.90 seconds =       4.23 minutes
	system time =      57.94 seconds =       0.97 minutes
	total time  =         32 seconds =       0.53 minutes

    			-----------------------------------------

    			 OPTKING 3.0: for geometry optimizations

    			     By R.A. King, Bethel University

    			        with contributions from

    			    A.V. Copan, J. Cayton, A. Heide

    			-----------------------------------------

	                            ===> Fragment 1 <==

	 Z (Atomic Numbers)          Masses                          Geom
	      13.000000            26.981539          0.00000000  0.00000000  2.44216968
	      17.000000            34.968853          0.00000000  0.00000000 -1.88434822

	 - Coordinate -           - BOHR/RAD -       - ANG/DEG -
	 R(1,2)           =         4.326518           2.289495

	        --- Internal Coordinate Step in ANG or DEG, aJ/ANG or AJ/DEG ---
	-------------------------------------------------------------------------------
	           Coordinate      Previous         Force          Change          New
	           ----------      --------        ------          ------        ------
	               R(1,2)       2.28949        0.00015        0.00011       2.28961
	-------------------------------------------------------------------------------

	                                 ==> Convergence Check <==

	Measures of convergence in internal coordinates in au.

	Criteria marked as inactive (o), active & met (*), and active & unmet ( ).

	----------------------------------------------------------------------------------------------
	   Step    Total Energy     Delta E     Max Force     RMS Force      Max Disp      RMS Disp
	----------------------------------------------------------------------------------------------
	  Convergence Criteria     1.00e-06 *    3.00e-04 *             o    1.20e-03 *             o
	----------------------------------------------------------------------------------------------
	    16    -702.62675023   -8.16e-08 *    1.87e-05 *    1.87e-05 o    2.13e-04 *    2.13e-04 o  ~
	----------------------------------------------------------------------------------------------

Next Geometry in Ang
	Fragment 1 (Ang)

	   Al   0.0000000000   0.0000000000   1.2923970257
	   Cl   0.0000000000   0.0000000000  -0.9972106217

    Final optimized geometry and variables:
    Molecular point group: c2v
    Full point group: C_inf_v

    Geometry (in Angstrom), charge = -1, multiplicity = 4:

    AL           0.000000000000     0.000000000000     1.292340538485
    CL           0.000000000000     0.000000000000    -0.997154134570

    Psi4 stopped on: Thursday, 17 July 2025 11:42AM
    Psi4 wall time for execution: 0:00:32.23

*** Psi4 exiting successfully. Buy a developer a beer!
