                               Psi4 1.9.1 release

  ==> Input File <==

--------------------------------------------------------------------------
molecule {
-1 4
C   0.00000        0.60000        0.00000
Ne   0.00000       -0.60000        0.00000
}

set {
basis              cc-pvdz
reference          uks
maxiter            500
geom_maxiter       500
DAMPING_PERCENTAGE 1
guess              SAP
}

optimize('b3lyp')
--------------------------------------------------------------------------

    Molecular point group: c2v
  Charge       = -1
  Multiplicity = 4
  Basis Set: CC-PVDZ
    Blend: CC-PVDZ
  Basis Set: (CC-PVDZ AUX)
    Blend: CC-PVDZ-JKFIT
  @DF-UKS Final Energy:  -166.32196567353091
    Total Energy =                       -166.3219656735309115
 Dipole X            :          0.0000000            0.0000000            0.0000000
 Dipole Y            :          0.0000000            0.0000000            0.0000000
 Dipole Z            :         -2.5608649           -0.0032151           -2.5640800
 Magnitude           :                                                    2.5640800
    Molecular point group: c2v
  Basis Set: CC-PVDZ
    Blend: CC-PVDZ
  Basis Set: (CC-PVDZ AUX)
    Blend: CC-PVDZ-JKFIT
  Basis Set: CC-PVDZ
    Blend: CC-PVDZ
  Basis Set: (CC-PVDZ AUX)
    Blend: CC-PVDZ-JKFIT
  @DF-UKS Final Energy:  -166.52811384679478
    Total Energy =                       -166.5281138467947812
  Basis Set: CC-PVDZ
    Blend: CC-PVDZ
  Basis Set: (CC-PVDZ AUX)
    Blend: CC-PVDZ-JKFIT
  Basis Set: CC-PVDZ
    Blend: CC-PVDZ
  @DF-UKS Final Energy:  -166.67552988378861
    Total Energy =                       -166.6755298837886130
  @DF-UKS Final Energy:  -166.71953886927270
    Total Energy =                       -166.7195388692726965
  @DF-UKS Final Energy:  -166.74630407909760
    Total Energy =                       -166.7463040790975981
  @DF-UKS Final Energy:  -166.75999135614512
    Total Energy =                       -166.7599913561451217
  @DF-UKS Final Energy:  -166.76734735073452
    Total Energy =                       -166.7673473507345534
  @DF-UKS Final Energy:  -166.77105799968379
    Total Energy =                       -166.7710579996837623
  @DF-UKS Final Energy:  -166.77280451377510
    Total Energy =                       -166.7728045137750712
  @DF-UKS Final Energy:  -166.77355622828068
    Total Energy =                       -166.7735562282806825
  @DF-UKS Final Energy:  -166.77384276096231
    Total Energy =                       -166.7738427609623102
  @DF-UKS Final Energy:  -166.77393480566801
    Total Energy =                       -166.7739348056680058
  @DF-UKS Final Energy:  -166.77395423491430
    Total Energy =                       -166.7739542349142710
  @DF-UKS Final Energy:  -166.77396066099422
    Total Energy =                       -166.7739606609942200
  Basis Set: (CC-PVDZ AUX)
    Blend: CC-PVDZ-JKFIT
  Basis Set: CC-PVDZ
    Blend: CC-PVDZ
  Basis Set: (CC-PVDZ AUX)
    Blend: CC-PVDZ-JKFIT
  @DF-UKS Final Energy:  -166.77396187096826
    Total Energy =                       -166.7739618709682645
  Basis Set: CC-PVDZ
    Blend: CC-PVDZ
  Basis Set: (CC-PVDZ AUX)
    Blend: CC-PVDZ-JKFIT
  Charge       = -1
  Multiplicity = 4
  Basis Set: CC-PVDZ
    Blend: CC-PVDZ
  Basis Set: (CC-PVDZ AUX)
    Blend: CC-PVDZ-JKFIT

    Orbital Energies [Eh]
    ---------------------

    Alpha Occupied:

       1A1   -30.802800     2A1    -9.851281     3A1    -1.268408
       1B1    -0.377533     1B2    -0.377533     4A1    -0.375269
       5A1    -0.201011     2B1     0.125766     2B2     0.125766
       6A1     0.125998

    Alpha Virtual:

       7A1     0.792878     3B1     0.795266     3B2     0.795266
       8A1     0.879728     9A1     1.499832     4B1     1.501697
       4B2     1.501697     1A2     1.501772    10A1     1.501775
       5B2     1.520539     5B1     1.520539    11A1     1.542956
      12A1     1.987145     2A2     4.888028    13A1     4.888101
       6B1     4.889276     6B2     4.889276    14A1     4.889951

    Beta Occupied:

       1A1   -30.802714     2A1    -9.820164     3A1    -1.268286
       1B1    -0.377488     1B2    -0.377488     4A1    -0.375055
       5A1    -0.058216

    Beta Virtual:

       2B1     0.302782     2B2     0.302782     6A1     0.302877
       7A1     0.880160     3B1     0.883595     3B2     0.883595
       8A1     0.959405     4B1     1.520410     4B2     1.520410
       9A1     1.540961     5B1     1.612501     5B2     1.612501
       1A2     1.612511    10A1     1.612514    11A1     1.613517
      12A1     1.987511     2A2     4.888071    13A1     4.888144
       6B1     4.889398     6B2     4.889398    14A1     4.890100

    Final Occupation by Irrep:
             A1    A2    B1    B2
    DOCC [     5,    0,    1,    1 ]
    SOCC [     1,    0,    1,    1 ]
    NA   [     6,    0,    2,    2 ]
    NB   [     5,    0,    1,    1 ]

  @DF-UKS Final Energy:  -166.77396218408234

   => Energetics <=

    Nuclear Repulsion Energy =              9.3658952951778467
    One-Electron Energy =                -255.8578952627773617
    Two-Electron Energy =                  94.3127690367784908
    DFT Exchange-Correlation Energy =     -14.5947312532613029
    Empirical Dispersion Energy =           0.0000000000000000
    VV10 Nonlocal Energy =                  0.0000000000000000
    Total Energy =                       -166.7739621840823361

  UHF NO Occupations:
  HONO-2 :    2 B1 1.0000000
  HONO-1 :    2 B2 1.0000000
  HONO-0 :    6 A1 1.0000000
  LUNO+0 :    7 A1 0.0006619
  LUNO+1 :    8 A1 0.0000001
  LUNO+2 :    3 B2 0.0000000
  LUNO+3 :    3 B1 0.0000000

Computation Completed

Properties will be evaluated at   0.000000,   0.000000,   0.000000 [a0]

Properties computed using the SCF density matrix

 Multipole Moments:

 ------------------------------------------------------------------------------------
     Multipole            Electronic (a.u.)      Nuclear  (a.u.)        Total (a.u.)
 ------------------------------------------------------------------------------------

 L = 1.  Multiply by 2.5417464519 to convert [e a0] to [Debye]
 Dipole X            :          0.0000000            0.0000000            0.0000000
 Dipole Y            :          0.0000000            0.0000000            0.0000000
 Dipole Z            :         -3.9856106           -0.0090828           -3.9946933
 Magnitude           :                                                    3.9946933

 ------------------------------------------------------------------------------------

*** tstop() called on Joses-MacBook-Pro-2.local at Thu Jul 17 09:59:57 2025
Module time:
	user time   =       2.87 seconds =       0.05 minutes
	system time =       2.12 seconds =       0.04 minutes
	total time  =          0 seconds =       0.00 minutes
Total time:
	user time   =      63.92 seconds =       1.07 minutes
	system time =      65.57 seconds =       1.09 minutes
	total time  =         12 seconds =       0.20 minutes

*** tstart() called on Joses-MacBook-Pro-2.local
*** at Thu Jul 17 09:59:57 2025

         ------------------------------------------------------------
                                   SCF GRAD
                          Rob Parrish, Justin Turney,
                       Andy Simmonett, and Alex Sokolov
         ------------------------------------------------------------

  ==> Geometry <==

    Molecular point group: c2v
    Full point group: C_inf_v

    Geometry (in Angstrom), charge = -1, multiplicity = 4:

       Center              X                  Y                   Z               Mass
    ------------   -----------------  -----------------  -----------------  -----------------
         C            0.000000000000     0.000000000000     2.118466122893    12.000000000000
         NE           0.000000000000     0.000000000000    -1.271560312332    19.992440176200

  Nuclear repulsion =    9.365895295177847

  ==> Basis Set <==

  Basis Set: CC-PVDZ
    Blend: CC-PVDZ
    Number of shells: 12
    Number of basis functions: 28
    Number of Cartesian functions: 30
    Spherical Harmonics?: true
    Max angular momentum: 2

  ==> DFJKGrad: Density-Fitted SCF Gradients <==

    Gradient:                    1
    J tasked:                  Yes
    K tasked:                  Yes
    wK tasked:                  No
    OpenMP threads:              1
    Integrals threads:           1
    Memory [MiB]:              375
    Schwarz Cutoff:          1E-12
    Fitting Condition:       1E-10

   => Auxiliary Basis Set <=

  Basis Set: (CC-PVDZ AUX)
    Blend: CC-PVDZ-JKFIT
    Number of shells: 48
    Number of basis functions: 140
    Number of Cartesian functions: 162
    Spherical Harmonics?: true
    Max angular momentum: 3

  ==> DFT Potential <==

   => LibXC <=

    Version 6.2.2
    S. Lehtola, C. Steigemann, M. J.T. Oliveira, and M. A.L. Marques.,  SoftwareX 7, 1â€“5 (2018) (10.1016/j.softx.2017.11.002)

   => Composite Functional: B3LYP <=

    B3LYP Hyb-GGA Exchange-Correlation Functional

    P. J. Stephens, F. J. Devlin, C. F. Chabalowski, and M. J. Frisch.,  J. Phys. Chem. 98, 11623 (1994) (10.1021/j100096a001)

    Deriv               =              1
    GGA                 =           TRUE
    Meta                =          FALSE

    Exchange Hybrid     =           TRUE
    MP2 Hybrid          =          FALSE

   => Exchange Functionals <=

    0.0800   Slater exchange
    0.7200         Becke 88

   => Exact (HF) Exchange <=

    0.2000               HF

   => Correlation Functionals <=

    0.1900   Vosko, Wilk & Nusair (VWN5_RPA)
    0.8100   Lee, Yang & Parr

   => LibXC Density Thresholds  <==

    XC_HYB_GGA_XC_B3LYP:  1.00E-15

   => Molecular Quadrature <=

    Radial Scheme          =       TREUTLER
    Pruning Scheme         =           NONE
    Nuclear Scheme         =       TREUTLER

    Blocking Scheme        =         OCTREE
    BS radius alpha        =              1
    Pruning alpha          =              1
    Radial Points          =             75
    Spherical Points       =            302
    Total Points           =          43435
    Total Blocks           =            387
    Max Points             =            255
    Max Functions          =             28
    Weights Tolerance      =       1.00E-15

  -Total Gradient:
     Atom            X                  Y                   Z
    ------   -----------------  -----------------  -----------------
       1        0.000000000000    -0.000000000000    -0.000008866004
       2        0.000000000000    -0.000000000000     0.000005443541

*** tstop() called on Joses-MacBook-Pro-2.local at Thu Jul 17 09:59:57 2025
Module time:
	user time   =       0.44 seconds =       0.01 minutes
	system time =       1.04 seconds =       0.02 minutes
	total time  =          0 seconds =       0.00 minutes
Total time:
	user time   =      64.36 seconds =       1.07 minutes
	system time =      66.62 seconds =       1.11 minutes
	total time  =         12 seconds =       0.20 minutes

    			-----------------------------------------

    			 OPTKING 3.0: for geometry optimizations

    			     By R.A. King, Bethel University

    			        with contributions from

    			    A.V. Copan, J. Cayton, A. Heide

    			-----------------------------------------

	                            ===> Fragment 1 <==

	 Z (Atomic Numbers)          Masses                          Geom
	       6.000000            12.000000          0.00000000  0.00000000  4.00332078
	      10.000000            19.992440          0.00000000  0.00000000 -2.40290074

	 - Coordinate -           - BOHR/RAD -       - ANG/DEG -
	 R(1,2)           =         6.406222           3.390026

	        --- Internal Coordinate Step in ANG or DEG, aJ/ANG or AJ/DEG ---
	-------------------------------------------------------------------------------
	           Coordinate      Previous         Force          Change          New
	           ----------      --------        ------          ------        ------
	               R(1,2)       3.39003        0.00006        0.00196       3.39199
	-------------------------------------------------------------------------------

	                                 ==> Convergence Check <==

	Measures of convergence in internal coordinates in au.

	Criteria marked as inactive (o), active & met (*), and active & unmet ( ).

	----------------------------------------------------------------------------------------------
	   Step    Total Energy     Delta E     Max Force     RMS Force      Max Disp      RMS Disp
	----------------------------------------------------------------------------------------------
	  Convergence Criteria     1.00e-06 *    3.00e-04 *             o    1.20e-03 *             o
	----------------------------------------------------------------------------------------------
	    16    -166.77396218   -3.13e-07 *    7.15e-06 *    7.15e-06 o    3.71e-03      3.71e-03 o  ~
	----------------------------------------------------------------------------------------------

Next Geometry in Ang
	Fragment 1 (Ang)

	    C   0.0000000000   0.0000000000   2.1194484680
	   Ne   0.0000000000   0.0000000000  -1.2725426575

    Final optimized geometry and variables:
    Molecular point group: c2v
    Full point group: C_inf_v

    Geometry (in Angstrom), charge = -1, multiplicity = 4:

    C            0.000000000000     0.000000000000     2.118466122893
    NE           0.000000000000     0.000000000000    -1.271560312332

    Psi4 stopped on: Thursday, 17 July 2025 09:59AM
    Psi4 wall time for execution: 0:00:12.88

*** Psi4 exiting successfully. Buy a developer a beer!
