                               Psi4 1.9.1 release

  ==> Input File <==

--------------------------------------------------------------------------
molecule {
-1 4
Li   0.00000        0.60000        0.00000
P   0.00000       -0.60000        0.00000
}

set {
basis              cc-pvdz
reference          uks
maxiter            500
geom_maxiter       500
DAMPING_PERCENTAGE 1
guess              SAP
}

optimize('b3lyp')
--------------------------------------------------------------------------

    Molecular point group: c2v
  Charge       = -1
  Multiplicity = 4
  Basis Set: CC-PVDZ
    Blend: CC-PVDZ
  Basis Set: (CC-PVDZ AUX)
    Blend: CC-PVDZ-JKFIT + DEF2-UNIVERSAL-JKFIT
  @DF-UKS Final Energy:  -348.38479448173905
    Total Energy =                       -348.3847944817390498
 Dipole X            :          0.0000000            0.0000000            0.0000000
 Dipole Y            :          0.0000000            0.0000000            0.0000000
 Dipole Z            :         -1.6596181           -0.7353273           -2.3949454
 Magnitude           :                                                    2.3949454
    Molecular point group: c2v
  Basis Set: CC-PVDZ
    Blend: CC-PVDZ
  Basis Set: (CC-PVDZ AUX)
    Blend: CC-PVDZ-JKFIT + DEF2-UNIVERSAL-JKFIT
  Basis Set: CC-PVDZ
    Blend: CC-PVDZ
  Basis Set: (CC-PVDZ AUX)
    Blend: CC-PVDZ-JKFIT + DEF2-UNIVERSAL-JKFIT
  @DF-UKS Final Energy:  -348.50619822692869
    Total Energy =                       -348.5061982269286887
  Basis Set: CC-PVDZ
    Blend: CC-PVDZ
  Basis Set: (CC-PVDZ AUX)
    Blend: CC-PVDZ-JKFIT + DEF2-UNIVERSAL-JKFIT
  Basis Set: CC-PVDZ
    Blend: CC-PVDZ
  @DF-UKS Final Energy:  -348.63241884037683
    Total Energy =                       -348.6324188403768858
  @DF-UKS Final Energy:  -348.73960314814803
    Total Energy =                       -348.7396031481480350
  @DF-UKS Final Energy:  -348.79112123951330
    Total Energy =                       -348.7911212395133020
  @DF-UKS Final Energy:  -348.81487828092168
    Total Energy =                       -348.8148782809216755
  @DF-UKS Final Energy:  -348.82523699310127
    Total Energy =                       -348.8252369931012709
  @DF-UKS Final Energy:  -348.82904630470017
    Total Energy =                       -348.8290463047001708
  @DF-UKS Final Energy:  -348.83004603461802
    Total Energy =                       -348.8300460346180216
  @DF-UKS Final Energy:  -348.83017430793745
    Total Energy =                       -348.8301743079374546
  @DF-UKS Final Energy:  -348.83019194191576
    Total Energy =                       -348.8301919419157571
  Basis Set: (CC-PVDZ AUX)
    Blend: CC-PVDZ-JKFIT + DEF2-UNIVERSAL-JKFIT
  Basis Set: CC-PVDZ
    Blend: CC-PVDZ
  Basis Set: (CC-PVDZ AUX)
    Blend: CC-PVDZ-JKFIT + DEF2-UNIVERSAL-JKFIT
  @DF-UKS Final Energy:  -348.83019443706803
    Total Energy =                       -348.8301944370680303
  Basis Set: CC-PVDZ
    Blend: CC-PVDZ
  Basis Set: (CC-PVDZ AUX)
    Blend: CC-PVDZ-JKFIT + DEF2-UNIVERSAL-JKFIT
  Charge       = -1
  Multiplicity = 4
  Basis Set: CC-PVDZ
    Blend: CC-PVDZ
  Basis Set: (CC-PVDZ AUX)
    Blend: CC-PVDZ-JKFIT + DEF2-UNIVERSAL-JKFIT

    Orbital Energies [Eh]
    ---------------------

    Alpha Occupied:

       1A1   -76.887560     2A1    -6.355901     3A1    -4.522641
       1B1    -4.522279     1B2    -4.509506     4A1    -1.846861
       5A1    -0.373290     6A1    -0.077925     2B1    -0.055890
       2B2    -0.020372     7A1     0.037079

    Alpha Virtual:

       3B1     0.117396     3B2     0.121853     8A1     0.139331
       9A1     0.214195     4B1     0.214740     4B2     0.218967
      10A1     0.310226    11A1     0.381132     1A2     0.381209
       5B1     0.382841     5B2     0.393129    12A1     0.451201
       6B1     0.611586     6B2     0.638519    13A1     0.641022
      14A1     0.676791     2A2     0.681867    15A1     0.687324
       7B1     0.765836     7B2     0.790673    16A1     1.092724

    Beta Occupied:

       1A1   -76.880377     2A1    -6.348193     3A1    -4.508010
       1B1    -4.507783     1B2    -4.504790     4A1    -1.841208
       5A1    -0.298565     2B2     0.000671

    Beta Virtual:

       6A1     0.044817     2B1     0.064111     7A1     0.112750
       3B2     0.131963     3B1     0.142794     8A1     0.149218
       4B2     0.232008     4B1     0.238321     9A1     0.247203
      10A1     0.349591     1A2     0.400079    11A1     0.406457
       5B2     0.432757     5B1     0.442007    12A1     0.501067
       6B2     0.652852     6B1     0.659208    13A1     0.690574
      14A1     0.724179     2A2     0.727868    15A1     0.732429
       7B2     0.829417     7B1     0.837684    16A1     1.130166

    Final Occupation by Irrep:
             A1    A2    B1    B2
    DOCC [     5,    0,    1,    2 ]
    SOCC [     2,    0,    1,    0 ]
    NA   [     7,    0,    2,    2 ]
    NB   [     5,    0,    1,    2 ]

  @DF-UKS Final Energy:  -348.83019481839949

   => Energetics <=

    Nuclear Repulsion Energy =              9.8813655750625671
    One-Electron Energy =                -504.9098906416676869
    Two-Electron Energy =                 166.5268688961057251
    DFT Exchange-Correlation Energy =     -20.3285386479000607
    Empirical Dispersion Energy =           0.0000000000000000
    VV10 Nonlocal Energy =                  0.0000000000000000
    Total Energy =                       -348.8301948183994909

  UHF NO Occupations:
  HONO-2 :    6 A1 1.0000000
  HONO-1 :    7 A1 1.0000000
  HONO-0 :    2 B1 1.0000000
  LUNO+0 :    8 A1 0.0010839
  LUNO+1 :    3 B2 0.0010437
  LUNO+2 :    9 A1 0.0000005
  LUNO+3 :    3 B1 0.0000000

Computation Completed

Properties will be evaluated at   0.000000,   0.000000,   0.000000 [a0]

Properties computed using the SCF density matrix

 Multipole Moments:

 ------------------------------------------------------------------------------------
     Multipole            Electronic (a.u.)      Nuclear  (a.u.)        Total (a.u.)
 ------------------------------------------------------------------------------------

 L = 1.  Multiply by 2.5417464519 to convert [e a0] to [Debye]
 Dipole X            :          0.0000000            0.0000000            0.0000000
 Dipole Y            :          0.0000000            0.0000000            0.0000000
 Dipole Z            :         -1.4889373           -1.4767131           -2.9656504
 Magnitude           :                                                    2.9656504

 ------------------------------------------------------------------------------------

*** tstop() called on Joses-MacBook-Pro-2.local at Thu Jul 17 09:35:06 2025
Module time:
	user time   =       3.37 seconds =       0.06 minutes
	system time =       3.68 seconds =       0.06 minutes
	total time  =          1 seconds =       0.02 minutes
Total time:
	user time   =      65.25 seconds =       1.09 minutes
	system time =      68.65 seconds =       1.14 minutes
	total time  =         13 seconds =       0.22 minutes

*** tstart() called on Joses-MacBook-Pro-2.local
*** at Thu Jul 17 09:35:06 2025

         ------------------------------------------------------------
                                   SCF GRAD
                          Rob Parrish, Justin Turney,
                       Andy Simmonett, and Alex Sokolov
         ------------------------------------------------------------

  ==> Geometry <==

    Molecular point group: c2v
    Full point group: C_inf_v

    Geometry (in Angstrom), charge = -1, multiplicity = 4:

       Center              X                  Y                   Z               Mass
    ------------   -----------------  -----------------  -----------------  -----------------
         LI           0.000000000000     0.000000000000     1.964825674684     7.016003436600
         P            0.000000000000     0.000000000000    -0.445061329218    30.973761998420

  Nuclear repulsion =    9.881365575062567

  ==> Basis Set <==

  Basis Set: CC-PVDZ
    Blend: CC-PVDZ
    Number of shells: 14
    Number of basis functions: 32
    Number of Cartesian functions: 34
    Spherical Harmonics?: true
    Max angular momentum: 2

  ==> DFJKGrad: Density-Fitted SCF Gradients <==

    Gradient:                    1
    J tasked:                  Yes
    K tasked:                  Yes
    wK tasked:                  No
    OpenMP threads:              1
    Integrals threads:           1
    Memory [MiB]:              375
    Schwarz Cutoff:          1E-12
    Fitting Condition:       1E-10

   => Auxiliary Basis Set <=

  Basis Set: (CC-PVDZ AUX)
    Blend: CC-PVDZ-JKFIT + DEF2-UNIVERSAL-JKFIT
    Number of shells: 53
    Number of basis functions: 163
    Number of Cartesian functions: 190
    Spherical Harmonics?: true
    Max angular momentum: 3

  ==> DFT Potential <==

   => LibXC <=

    Version 6.2.2
    S. Lehtola, C. Steigemann, M. J.T. Oliveira, and M. A.L. Marques.,  SoftwareX 7, 1â€“5 (2018) (10.1016/j.softx.2017.11.002)

   => Composite Functional: B3LYP <=

    B3LYP Hyb-GGA Exchange-Correlation Functional

    P. J. Stephens, F. J. Devlin, C. F. Chabalowski, and M. J. Frisch.,  J. Phys. Chem. 98, 11623 (1994) (10.1021/j100096a001)

    Deriv               =              1
    GGA                 =           TRUE
    Meta                =          FALSE

    Exchange Hybrid     =           TRUE
    MP2 Hybrid          =          FALSE

   => Exchange Functionals <=

    0.0800   Slater exchange
    0.7200         Becke 88

   => Exact (HF) Exchange <=

    0.2000               HF

   => Correlation Functionals <=

    0.1900   Vosko, Wilk & Nusair (VWN5_RPA)
    0.8100   Lee, Yang & Parr

   => LibXC Density Thresholds  <==

    XC_HYB_GGA_XC_B3LYP:  1.00E-15

   => Molecular Quadrature <=

    Radial Scheme          =       TREUTLER
    Pruning Scheme         =           NONE
    Nuclear Scheme         =       TREUTLER

    Blocking Scheme        =         OCTREE
    BS radius alpha        =              1
    Pruning alpha          =              1
    Radial Points          =             75
    Spherical Points       =            302
    Total Points           =          44333
    Total Blocks           =            440
    Max Points             =            256
    Max Functions          =             32
    Weights Tolerance      =       1.00E-15

  -Total Gradient:
     Atom            X                  Y                   Z
    ------   -----------------  -----------------  -----------------
       1        0.000000000000     0.000000000000    -0.000022648333
       2       -0.000000000000     0.000000000000     0.000047554039

*** tstop() called on Joses-MacBook-Pro-2.local at Thu Jul 17 09:35:06 2025
Module time:
	user time   =       0.81 seconds =       0.01 minutes
	system time =       1.88 seconds =       0.03 minutes
	total time  =          0 seconds =       0.00 minutes
Total time:
	user time   =      66.07 seconds =       1.10 minutes
	system time =      70.53 seconds =       1.18 minutes
	total time  =         13 seconds =       0.22 minutes

    			-----------------------------------------

    			 OPTKING 3.0: for geometry optimizations

    			     By R.A. King, Bethel University

    			        with contributions from

    			    A.V. Copan, J. Cayton, A. Heide

    			-----------------------------------------

	                            ===> Fragment 1 <==

	 Z (Atomic Numbers)          Masses                          Geom
	       3.000000             7.016003          0.00000000  0.00000000  3.71298241
	      15.000000            30.973762          0.00000000  0.00000000 -0.84104402

	 - Coordinate -           - BOHR/RAD -       - ANG/DEG -
	 R(1,2)           =         4.554026           2.409887

	        --- Internal Coordinate Step in ANG or DEG, aJ/ANG or AJ/DEG ---
	-------------------------------------------------------------------------------
	           Coordinate      Previous         Force          Change          New
	           ----------      --------        ------          ------        ------
	               R(1,2)       2.40989        0.00029        0.00059       2.41048
	-------------------------------------------------------------------------------

	                                 ==> Convergence Check <==

	Measures of convergence in internal coordinates in au.

	Criteria marked as inactive (o), active & met (*), and active & unmet ( ).

	----------------------------------------------------------------------------------------------
	   Step    Total Energy     Delta E     Max Force     RMS Force      Max Disp      RMS Disp
	----------------------------------------------------------------------------------------------
	  Convergence Criteria     1.00e-06 *    3.00e-04 *             o    1.20e-03 *             o
	----------------------------------------------------------------------------------------------
	    13    -348.83019482   -3.81e-07 *    3.51e-05 *    3.51e-05 o    1.12e-03 *    1.12e-03 o  ~
	----------------------------------------------------------------------------------------------

Next Geometry in Ang
	Fragment 1 (Ang)

	   Li   0.0000000000   0.0000000000   1.9651219358
	    P   0.0000000000   0.0000000000  -0.4453575903

    Final optimized geometry and variables:
    Molecular point group: c2v
    Full point group: C_inf_v

    Geometry (in Angstrom), charge = -1, multiplicity = 4:

    LI           0.000000000000     0.000000000000     1.964825674684
    P            0.000000000000     0.000000000000    -0.445061329218

    Psi4 stopped on: Thursday, 17 July 2025 09:35AM
    Psi4 wall time for execution: 0:00:13.81

*** Psi4 exiting successfully. Buy a developer a beer!
