                               Psi4 1.9.1 release

  ==> Input File <==

--------------------------------------------------------------------------
molecule {
-1 4
Li   0.00000        0.60000        0.00000
Al   0.00000       -0.60000        0.00000
}

set {
basis              cc-pvdz
reference          uks
maxiter            500
geom_maxiter       500
DAMPING_PERCENTAGE 1
guess              SAP
}

optimize('b3lyp')
--------------------------------------------------------------------------

    Molecular point group: c2v
  Charge       = -1
  Multiplicity = 4
  Basis Set: CC-PVDZ
    Blend: CC-PVDZ
  Basis Set: (CC-PVDZ AUX)
    Blend: CC-PVDZ-JKFIT + DEF2-UNIVERSAL-JKFIT
  @DF-UKS Final Energy:  -249.55098798320788
    Total Energy =                       -249.5509879832078752
 Dipole X            :          0.0000000            0.0000000            0.0000000
 Dipole Y            :          0.0000000            0.0000000            0.0000000
 Dipole Z            :         -1.1432058           -0.6845814           -1.8277872
 Magnitude           :                                                    1.8277872
    Molecular point group: c2v
  Basis Set: CC-PVDZ
    Blend: CC-PVDZ
  Basis Set: (CC-PVDZ AUX)
    Blend: CC-PVDZ-JKFIT + DEF2-UNIVERSAL-JKFIT
  Basis Set: CC-PVDZ
    Blend: CC-PVDZ
  Basis Set: (CC-PVDZ AUX)
    Blend: CC-PVDZ-JKFIT + DEF2-UNIVERSAL-JKFIT
  @DF-UKS Final Energy:  -249.61368256628924
    Total Energy =                       -249.6136825662892420
  Basis Set: CC-PVDZ
    Blend: CC-PVDZ
  Basis Set: (CC-PVDZ AUX)
    Blend: CC-PVDZ-JKFIT + DEF2-UNIVERSAL-JKFIT
  Basis Set: CC-PVDZ
    Blend: CC-PVDZ
  @DF-UKS Final Energy:  -249.69234257500571
    Total Energy =                       -249.6923425750057106
  @DF-UKS Final Energy:  -249.80381842515629
    Total Energy =                       -249.8038184251562939
  @DF-UKS Final Energy:  -249.87049623924608
    Total Energy =                       -249.8704962392460800
  @DF-UKS Final Energy:  -249.90169585742569
    Total Energy =                       -249.9016958574256932
  @DF-UKS Final Energy:  -249.91417628855186
    Total Energy =                       -249.9141762885518574
  @DF-UKS Final Energy:  -249.91851044047769
    Total Energy =                       -249.9185104404776894
  @DF-UKS Final Energy:  -249.91963317005431
    Total Energy =                       -249.9196331700543112
  @DF-UKS Final Energy:  -249.91978150050801
    Total Energy =                       -249.9197815005080088
  @DF-UKS Final Energy:  -249.91980546765009
    Total Energy =                       -249.9198054676500931
  Basis Set: (CC-PVDZ AUX)
    Blend: CC-PVDZ-JKFIT + DEF2-UNIVERSAL-JKFIT
  Basis Set: CC-PVDZ
    Blend: CC-PVDZ
  Basis Set: (CC-PVDZ AUX)
    Blend: CC-PVDZ-JKFIT + DEF2-UNIVERSAL-JKFIT
  @DF-UKS Final Energy:  -249.91980674053656
    Total Energy =                       -249.9198067405365293
  Basis Set: CC-PVDZ
    Blend: CC-PVDZ
  Basis Set: (CC-PVDZ AUX)
    Blend: CC-PVDZ-JKFIT + DEF2-UNIVERSAL-JKFIT
  Charge       = -1
  Multiplicity = 4
  Basis Set: CC-PVDZ
    Blend: CC-PVDZ
  Basis Set: (CC-PVDZ AUX)
    Blend: CC-PVDZ-JKFIT + DEF2-UNIVERSAL-JKFIT

    Orbital Energies [Eh]
    ---------------------

    Alpha Occupied:

       1A1   -55.868692     2A1    -3.949162     3A1    -2.502773
       1B2    -2.501665     1B1    -2.501665     4A1    -1.856394
       5A1    -0.153941     6A1     0.006668     2B2     0.032253
       2B1     0.032253

    Alpha Virtual:

       7A1     0.074410     3B1     0.118630     3B2     0.118630
       8A1     0.133053     4B1     0.197126     4B2     0.197126
       9A1     0.200719    10A1     0.284851    11A1     0.345024
      12A1     0.349849     1A2     0.349849     5B2     0.358267
       5B1     0.358267     6B2     0.410454     6B1     0.410454
      13A1     0.423282    14A1     0.465545     2A2     0.465545
      15A1     0.569315     7B2     0.588159     7B1     0.588159
      16A1     0.811645

    Beta Occupied:

       1A1   -55.865949     2A1    -3.945775     3A1    -2.498931
       1B2    -2.496545     1B1    -2.496545     4A1    -1.850380
       5A1    -0.107847

    Beta Virtual:

       6A1     0.075886     2B1     0.100319     2B2     0.100319
       7A1     0.110122     8A1     0.147226     3B1     0.148331
       3B2     0.148331     9A1     0.218993     4B1     0.225437
       4B2     0.225437    10A1     0.311143    11A1     0.372886
       5B2     0.390414     5B1     0.390414    12A1     0.392531
       1A2     0.392531     6B2     0.440990     6B1     0.440990
      13A1     0.447002    14A1     0.507218     2A2     0.507219
      15A1     0.596955     7B2     0.622428     7B1     0.622428
      16A1     0.829892

    Final Occupation by Irrep:
             A1    A2    B1    B2
    DOCC [     5,    0,    1,    1 ]
    SOCC [     1,    0,    1,    1 ]
    NA   [     6,    0,    2,    2 ]
    NB   [     5,    0,    1,    1 ]

  @DF-UKS Final Energy:  -249.91980681111218

   => Energetics <=

    Nuclear Repulsion Energy =              8.0349173258805600
    One-Electron Energy =                -365.5332779337502416
    Two-Electron Energy =                 124.1722833612487165
    DFT Exchange-Correlation Energy =     -16.5937295644911806
    Empirical Dispersion Energy =           0.0000000000000000
    VV10 Nonlocal Energy =                  0.0000000000000000
    Total Energy =                       -249.9198068111121529

  UHF NO Occupations:
  HONO-2 :    2 B1 1.0000000
  HONO-1 :    6 A1 1.0000000
  HONO-0 :    2 B2 1.0000000
  LUNO+0 :    7 A1 0.0006082
  LUNO+1 :    8 A1 0.0000002
  LUNO+2 :    9 A1 0.0000000
  LUNO+3 :    3 B1 0.0000000

Computation Completed

Properties will be evaluated at   0.000000,   0.000000,   0.000000 [a0]

Properties computed using the SCF density matrix

 Multipole Moments:

 ------------------------------------------------------------------------------------
     Multipole            Electronic (a.u.)      Nuclear  (a.u.)        Total (a.u.)
 ------------------------------------------------------------------------------------

 L = 1.  Multiply by 2.5417464519 to convert [e a0] to [Debye]
 Dipole X            :          0.0000000            0.0000000            0.0000000
 Dipole Y            :          0.0000000            0.0000000            0.0000000
 Dipole Z            :          0.4645372           -1.4653054           -1.0007682
 Magnitude           :                                                    1.0007682

 ------------------------------------------------------------------------------------

*** tstop() called on Joses-MacBook-Pro-2.local at Thu Jul 17 09:33:40 2025
Module time:
	user time   =       3.85 seconds =       0.06 minutes
	system time =       3.29 seconds =       0.05 minutes
	total time  =          0 seconds =       0.00 minutes
Total time:
	user time   =      73.55 seconds =       1.23 minutes
	system time =      76.47 seconds =       1.27 minutes
	total time  =         14 seconds =       0.23 minutes

*** tstart() called on Joses-MacBook-Pro-2.local
*** at Thu Jul 17 09:33:40 2025

         ------------------------------------------------------------
                                   SCF GRAD
                          Rob Parrish, Justin Turney,
                       Andy Simmonett, and Alex Sokolov
         ------------------------------------------------------------

  ==> Geometry <==

    Molecular point group: c2v
    Full point group: C_inf_v

    Geometry (in Angstrom), charge = -1, multiplicity = 4:

       Center              X                  Y                   Z               Mass
    ------------   -----------------  -----------------  -----------------  -----------------
         LI           0.000000000000     0.000000000000     2.038466219569     7.016003436600
         AL           0.000000000000     0.000000000000    -0.530061915705    26.981538530000

  Nuclear repulsion =    8.034917325880560

  ==> Basis Set <==

  Basis Set: CC-PVDZ
    Blend: CC-PVDZ
    Number of shells: 14
    Number of basis functions: 32
    Number of Cartesian functions: 34
    Spherical Harmonics?: true
    Max angular momentum: 2

  ==> DFJKGrad: Density-Fitted SCF Gradients <==

    Gradient:                    1
    J tasked:                  Yes
    K tasked:                  Yes
    wK tasked:                  No
    OpenMP threads:              1
    Integrals threads:           1
    Memory [MiB]:              375
    Schwarz Cutoff:          1E-12
    Fitting Condition:       1E-10

   => Auxiliary Basis Set <=

  Basis Set: (CC-PVDZ AUX)
    Blend: CC-PVDZ-JKFIT + DEF2-UNIVERSAL-JKFIT
    Number of shells: 53
    Number of basis functions: 163
    Number of Cartesian functions: 190
    Spherical Harmonics?: true
    Max angular momentum: 3

  ==> DFT Potential <==

   => LibXC <=

    Version 6.2.2
    S. Lehtola, C. Steigemann, M. J.T. Oliveira, and M. A.L. Marques.,  SoftwareX 7, 1â€“5 (2018) (10.1016/j.softx.2017.11.002)

   => Composite Functional: B3LYP <=

    B3LYP Hyb-GGA Exchange-Correlation Functional

    P. J. Stephens, F. J. Devlin, C. F. Chabalowski, and M. J. Frisch.,  J. Phys. Chem. 98, 11623 (1994) (10.1021/j100096a001)

    Deriv               =              1
    GGA                 =           TRUE
    Meta                =          FALSE

    Exchange Hybrid     =           TRUE
    MP2 Hybrid          =          FALSE

   => Exchange Functionals <=

    0.0800   Slater exchange
    0.7200         Becke 88

   => Exact (HF) Exchange <=

    0.2000               HF

   => Correlation Functionals <=

    0.1900   Vosko, Wilk & Nusair (VWN5_RPA)
    0.8100   Lee, Yang & Parr

   => LibXC Density Thresholds  <==

    XC_HYB_GGA_XC_B3LYP:  1.00E-15

   => Molecular Quadrature <=

    Radial Scheme          =       TREUTLER
    Pruning Scheme         =           NONE
    Nuclear Scheme         =       TREUTLER

    Blocking Scheme        =         OCTREE
    BS radius alpha        =              1
    Pruning alpha          =              1
    Radial Points          =             75
    Spherical Points       =            302
    Total Points           =          44307
    Total Blocks           =            452
    Max Points             =            255
    Max Functions          =             32
    Weights Tolerance      =       1.00E-15

  -Total Gradient:
     Atom            X                  Y                   Z
    ------   -----------------  -----------------  -----------------
       1        0.000000000000     0.000000000000    -0.000013495036
       2        0.000000000000     0.000000000000     0.000014429946

*** tstop() called on Joses-MacBook-Pro-2.local at Thu Jul 17 09:33:41 2025
Module time:
	user time   =       0.88 seconds =       0.01 minutes
	system time =       1.79 seconds =       0.03 minutes
	total time  =          1 seconds =       0.02 minutes
Total time:
	user time   =      74.43 seconds =       1.24 minutes
	system time =      78.26 seconds =       1.30 minutes
	total time  =         15 seconds =       0.25 minutes

    			-----------------------------------------

    			 OPTKING 3.0: for geometry optimizations

    			     By R.A. King, Bethel University

    			        with contributions from

    			    A.V. Copan, J. Cayton, A. Heide

    			-----------------------------------------

	                            ===> Fragment 1 <==

	 Z (Atomic Numbers)          Masses                          Geom
	       3.000000             7.016003          0.00000000  0.00000000  3.85214287
	      13.000000            26.981539          0.00000000  0.00000000 -1.00167185

	 - Coordinate -           - BOHR/RAD -       - ANG/DEG -
	 R(1,2)           =         4.853815           2.568528

	        --- Internal Coordinate Step in ANG or DEG, aJ/ANG or AJ/DEG ---
	-------------------------------------------------------------------------------
	           Coordinate      Previous         Force          Change          New
	           ----------      --------        ------          ------        ------
	               R(1,2)       2.56853        0.00012        0.00024       2.56877
	-------------------------------------------------------------------------------

	                                 ==> Convergence Check <==

	Measures of convergence in internal coordinates in au.

	Criteria marked as inactive (o), active & met (*), and active & unmet ( ).

	----------------------------------------------------------------------------------------------
	   Step    Total Energy     Delta E     Max Force     RMS Force      Max Disp      RMS Disp
	----------------------------------------------------------------------------------------------
	  Convergence Criteria     1.00e-06 *    3.00e-04 *             o    1.20e-03 *             o
	----------------------------------------------------------------------------------------------
	    13    -249.91980681   -7.06e-08 *    1.40e-05 *    1.40e-05 o    4.53e-04 *    4.53e-04 o  ~
	----------------------------------------------------------------------------------------------

Next Geometry in Ang
	Fragment 1 (Ang)

	   Li   0.0000000000   0.0000000000   2.0385859591
	   Al   0.0000000000   0.0000000000  -0.5301816552

    Final optimized geometry and variables:
    Molecular point group: c2v
    Full point group: C_inf_v

    Geometry (in Angstrom), charge = -1, multiplicity = 4:

    LI           0.000000000000     0.000000000000     2.038466219569
    AL           0.000000000000     0.000000000000    -0.530061915705

    Psi4 stopped on: Thursday, 17 July 2025 09:33AM
    Psi4 wall time for execution: 0:00:15.37

*** Psi4 exiting successfully. Buy a developer a beer!
