                               Psi4 1.9.1 release

  ==> Input File <==

--------------------------------------------------------------------------
molecule {
-1 4
P   0.00000        0.60000        0.00000
P   0.00000       -0.60000        0.00000
}

set {
basis              cc-pvdz
reference          uks
maxiter            500
geom_maxiter       500
DAMPING_PERCENTAGE 1
guess              SAP
}

optimize('b3lyp')
--------------------------------------------------------------------------

    Molecular point group: d2h
  Charge       = -1
  Multiplicity = 4
  Basis Set: CC-PVDZ
    Blend: CC-PVDZ
  Basis Set: (CC-PVDZ AUX)
    Blend: CC-PVDZ-JKFIT
  @DF-UKS Final Energy:  -681.36330303612988
    Total Energy =                       -681.3633030361298779
 Dipole X            :          0.0000000            0.0000000            0.0000000
 Dipole Y            :          0.0000000            0.0000000            0.0000000
 Dipole Z            :          0.0000000            0.0000000            0.0000000
 Magnitude           :                                                    0.0000000
    Molecular point group: d2h
  Basis Set: CC-PVDZ
    Blend: CC-PVDZ
  Basis Set: (CC-PVDZ AUX)
    Blend: CC-PVDZ-JKFIT
  Basis Set: CC-PVDZ
    Blend: CC-PVDZ
  Basis Set: (CC-PVDZ AUX)
    Blend: CC-PVDZ-JKFIT
  @DF-UKS Final Energy:  -681.39842659650310
    Total Energy =                       -681.3984265965031000
  Basis Set: CC-PVDZ
    Blend: CC-PVDZ
  Basis Set: (CC-PVDZ AUX)
    Blend: CC-PVDZ-JKFIT
  Basis Set: CC-PVDZ
    Blend: CC-PVDZ
  @DF-UKS Final Energy:  -681.46466112183191
    Total Energy =                       -681.4646611218319094
  @DF-UKS Final Energy:  -681.68915213500850
    Total Energy =                       -681.6891521350084986
  @DF-UKS Final Energy:  -682.27890606571827
    Total Energy =                       -682.2789060657182745
  @DF-UKS Final Energy:  -682.46964380885822
    Total Energy =                       -682.4696438088582227
  @DF-UKS Final Energy:  -682.57398562861658
    Total Energy =                       -682.5739856286164695
  @DF-UKS Final Energy:  -682.61599860310196
    Total Energy =                       -682.6159986031018434
  @DF-UKS Final Energy:  -682.63159056730171
    Total Energy =                       -682.6315905673017141
  @DF-UKS Final Energy:  -682.63520260811242
    Total Energy =                       -682.6352026081124222
  @DF-UKS Final Energy:  -682.63642107032547
    Total Energy =                       -682.6364210703254685
  @DF-UKS Final Energy:  -682.63661923393681
    Total Energy =                       -682.6366192339368126
  @DF-UKS Final Energy:  -682.63665455100352
    Total Energy =                       -682.6366545510035166
  Basis Set: (CC-PVDZ AUX)
    Blend: CC-PVDZ-JKFIT
  Basis Set: CC-PVDZ
    Blend: CC-PVDZ
  Basis Set: (CC-PVDZ AUX)
    Blend: CC-PVDZ-JKFIT
  @DF-UKS Final Energy:  -682.63666207162896
    Total Energy =                       -682.6366620716289617
  Basis Set: CC-PVDZ
    Blend: CC-PVDZ
  Basis Set: (CC-PVDZ AUX)
    Blend: CC-PVDZ-JKFIT
  Charge       = -1
  Multiplicity = 4
  Basis Set: CC-PVDZ
    Blend: CC-PVDZ
  Basis Set: (CC-PVDZ AUX)
    Blend: CC-PVDZ-JKFIT

    Orbital Energies [Eh]
    ---------------------

    Alpha Occupied:

       1Ag   -76.854147     1B2u  -76.854147     2B2u   -6.321740
       2Ag    -6.321722     3Ag    -4.489522     3B2u   -4.488963
       1B1u   -4.481285     1B3u   -4.481285     1B3g   -4.481245
       1B1g   -4.481245     4Ag    -0.415938     4B2u   -0.270631
       5Ag    -0.084946     2B3u   -0.041935     2B1u   -0.041935
       2B1g    0.055455     2B3g    0.055455

    Alpha Virtual:

       5B2u    0.237657     6Ag     0.487692     7Ag     0.559807
       3B3u    0.571625     3B1u    0.571625     6B2u    0.585095
       4B3u    0.641225     4B1u    0.641225     3B3g    0.663727
       3B1g    0.663727     1B2g    0.666525     8Ag     0.666526
       1Au     0.751863     7B2u    0.751864     8B2u    0.770044
       9Ag     0.919442     4B1g    0.939287     4B3g    0.939287
       9B2u    1.245244

    Beta Occupied:

       1Ag   -76.847776     1B2u  -76.847775     2B2u   -6.314964
       2Ag    -6.314931     3Ag    -4.479335     3B2u   -4.478796
       1B1u   -4.471492     1B3u   -4.471492     1B3g   -4.471452
       1B1g   -4.471452     4Ag    -0.366390     4B2u   -0.191556
       2B3u    0.004377     2B1u    0.004377

    Beta Virtual:

       5Ag     0.029619     2B1g    0.156062     2B3g    0.156062
       5B2u    0.278078     6Ag     0.519201     7Ag     0.594341
       3B3u    0.613535     3B1u    0.613535     6B2u    0.626940
       4B3u    0.678754     4B1u    0.678754     3B3g    0.692596
       3B1g    0.692596     1B2g    0.712582     8Ag     0.712582
       7B2u    0.793849     1Au     0.804127     8B2u    0.804128
       9Ag     0.955297     4B1g    0.987412     4B3g    0.987412
       9B2u    1.286394

    Final Occupation by Irrep:
             Ag   B1g   B2g   B3g    Au   B1u   B2u   B3u
    DOCC [     4,    1,    0,    1,    0,    2,    4,    2 ]
    SOCC [     1,    1,    0,    1,    0,    0,    0,    0 ]
    NA   [     5,    2,    0,    2,    0,    2,    4,    2 ]
    NB   [     4,    1,    0,    1,    0,    2,    4,    2 ]

  @DF-UKS Final Energy:  -682.63666261462458

   => Energetics <=

    Nuclear Repulsion Energy =             55.9325546070091733
    One-Electron Energy =               -1062.6607294079497024
    Two-Electron Energy =                 361.6866347192203079
    DFT Exchange-Correlation Energy =     -37.5951225329044121
    Empirical Dispersion Energy =           0.0000000000000000
    VV10 Nonlocal Energy =                  0.0000000000000000
    Total Energy =                       -682.6366626146246972

  UHF NO Occupations:
  HONO-2 :    2B3g 1.0000000
  HONO-1 :    2B1g 1.0000000
  HONO-0 :    5 Ag 1.0000000
  LUNO+0 :    3B1u 0.0014646
  LUNO+1 :    3B3u 0.0014646
  LUNO+2 :    5B2u 0.0009207
  LUNO+3 :    6 Ag 0.0001210

Computation Completed

Properties will be evaluated at   0.000000,   0.000000,   0.000000 [a0]

Properties computed using the SCF density matrix

 Multipole Moments:

 ------------------------------------------------------------------------------------
     Multipole            Electronic (a.u.)      Nuclear  (a.u.)        Total (a.u.)
 ------------------------------------------------------------------------------------

 L = 1.  Multiply by 2.5417464519 to convert [e a0] to [Debye]
 Dipole X            :          0.0000000            0.0000000            0.0000000
 Dipole Y            :          0.0000000            0.0000000            0.0000000
 Dipole Z            :          0.0000000            0.0000000            0.0000000
 Magnitude           :                                                    0.0000000

 ------------------------------------------------------------------------------------

*** tstop() called on Joses-MacBook-Pro-2.local at Thu Jul 17 11:54:06 2025
Module time:
	user time   =       7.08 seconds =       0.12 minutes
	system time =       1.63 seconds =       0.03 minutes
	total time  =          1 seconds =       0.02 minutes
Total time:
	user time   =     171.73 seconds =       2.86 minutes
	system time =      47.69 seconds =       0.79 minutes
	total time  =         21 seconds =       0.35 minutes

*** tstart() called on Joses-MacBook-Pro-2.local
*** at Thu Jul 17 11:54:06 2025

         ------------------------------------------------------------
                                   SCF GRAD
                          Rob Parrish, Justin Turney,
                       Andy Simmonett, and Alex Sokolov
         ------------------------------------------------------------

  ==> Geometry <==

    Molecular point group: d2h
    Full point group: D_inf_h

    Geometry (in Angstrom), charge = -1, multiplicity = 4:

       Center              X                  Y                   Z               Mass
    ------------   -----------------  -----------------  -----------------  -----------------
         P           -0.000000000000     1.064361115251     0.000000000000    30.973761998420
         P            0.000000000000    -1.064361115251     0.000000000000    30.973761998420

  Nuclear repulsion =   55.932554607009173

  ==> Basis Set <==

  Basis Set: CC-PVDZ
    Blend: CC-PVDZ
    Number of shells: 16
    Number of basis functions: 36
    Number of Cartesian functions: 38
    Spherical Harmonics?: true
    Max angular momentum: 2

  ==> DFJKGrad: Density-Fitted SCF Gradients <==

    Gradient:                    1
    J tasked:                  Yes
    K tasked:                  Yes
    wK tasked:                  No
    OpenMP threads:              1
    Integrals threads:           1
    Memory [MiB]:              375
    Schwarz Cutoff:          1E-12
    Fitting Condition:       1E-10

   => Auxiliary Basis Set <=

  Basis Set: (CC-PVDZ AUX)
    Blend: CC-PVDZ-JKFIT
    Number of shells: 72
    Number of basis functions: 224
    Number of Cartesian functions: 260
    Spherical Harmonics?: true
    Max angular momentum: 3

  ==> DFT Potential <==

   => LibXC <=

    Version 6.2.2
    S. Lehtola, C. Steigemann, M. J.T. Oliveira, and M. A.L. Marques.,  SoftwareX 7, 1â€“5 (2018) (10.1016/j.softx.2017.11.002)

   => Composite Functional: B3LYP <=

    B3LYP Hyb-GGA Exchange-Correlation Functional

    P. J. Stephens, F. J. Devlin, C. F. Chabalowski, and M. J. Frisch.,  J. Phys. Chem. 98, 11623 (1994) (10.1021/j100096a001)

    Deriv               =              1
    GGA                 =           TRUE
    Meta                =          FALSE

    Exchange Hybrid     =           TRUE
    MP2 Hybrid          =          FALSE

   => Exchange Functionals <=

    0.0800   Slater exchange
    0.7200         Becke 88

   => Exact (HF) Exchange <=

    0.2000               HF

   => Correlation Functionals <=

    0.1900   Vosko, Wilk & Nusair (VWN5_RPA)
    0.8100   Lee, Yang & Parr

   => LibXC Density Thresholds  <==

    XC_HYB_GGA_XC_B3LYP:  1.00E-15

   => Molecular Quadrature <=

    Radial Scheme          =       TREUTLER
    Pruning Scheme         =           NONE
    Nuclear Scheme         =       TREUTLER

    Blocking Scheme        =         OCTREE
    BS radius alpha        =              1
    Pruning alpha          =              1
    Radial Points          =             75
    Spherical Points       =            302
    Total Points           =          40842
    Total Blocks           =            376
    Max Points             =            252
    Max Functions          =             36
    Weights Tolerance      =       1.00E-15

  -Total Gradient:
     Atom            X                  Y                   Z
    ------   -----------------  -----------------  -----------------
       1        0.000000000000    -0.000064375880     0.000000000000
       2       -0.000000000000     0.000064375880     0.000000000000

*** tstop() called on Joses-MacBook-Pro-2.local at Thu Jul 17 11:54:06 2025
Module time:
	user time   =       2.48 seconds =       0.04 minutes
	system time =       1.01 seconds =       0.02 minutes
	total time  =          0 seconds =       0.00 minutes
Total time:
	user time   =     174.22 seconds =       2.90 minutes
	system time =      48.70 seconds =       0.81 minutes
	total time  =         21 seconds =       0.35 minutes

    			-----------------------------------------

    			 OPTKING 3.0: for geometry optimizations

    			     By R.A. King, Bethel University

    			        with contributions from

    			    A.V. Copan, J. Cayton, A. Heide

    			-----------------------------------------

	                            ===> Fragment 1 <==

	 Z (Atomic Numbers)          Masses                          Geom
	      15.000000            30.973762         -0.00000000  2.01135101  0.00000000
	      15.000000            30.973762          0.00000000 -2.01135101  0.00000000

	 - Coordinate -           - BOHR/RAD -       - ANG/DEG -
	 R(1,2)           =         4.022702           2.128722

	        --- Internal Coordinate Step in ANG or DEG, aJ/ANG or AJ/DEG ---
	-------------------------------------------------------------------------------
	           Coordinate      Previous         Force          Change          New
	           ----------      --------        ------          ------        ------
	               R(1,2)       2.12872        0.00053        0.00022       2.12894
	-------------------------------------------------------------------------------

	                                 ==> Convergence Check <==

	Measures of convergence in internal coordinates in au.

	Criteria marked as inactive (o), active & met (*), and active & unmet ( ).

	----------------------------------------------------------------------------------------------
	   Step    Total Energy     Delta E     Max Force     RMS Force      Max Disp      RMS Disp
	----------------------------------------------------------------------------------------------
	  Convergence Criteria     1.00e-06 *    3.00e-04 *             o    1.20e-03 *             o
	----------------------------------------------------------------------------------------------
	    15    -682.63666261   -5.43e-07 *    6.44e-05 *    6.44e-05 o    4.10e-04 *    4.10e-04 o  ~
	----------------------------------------------------------------------------------------------

Next Geometry in Ang
	Fragment 1 (Ang)

	    P  -0.0000000000   1.0644697131   0.0000000000
	    P   0.0000000000  -1.0644697131   0.0000000000

    Final optimized geometry and variables:
    Molecular point group: d2h
    Full point group: D_inf_h

    Geometry (in Angstrom), charge = -1, multiplicity = 4:

    P           -0.000000000000     1.064361115251     0.000000000000
    P            0.000000000000    -1.064361115251     0.000000000000

    Psi4 stopped on: Thursday, 17 July 2025 11:54AM
    Psi4 wall time for execution: 0:00:21.84

*** Psi4 exiting successfully. Buy a developer a beer!
