                               Psi4 1.9.1 release

  ==> Input File <==

--------------------------------------------------------------------------
molecule {
-1 4
O   0.00000        0.60000        0.00000
Ar   0.00000       -0.60000        0.00000
}

set {
basis              cc-pvdz
reference          uks
maxiter            500
geom_maxiter       500
DAMPING_PERCENTAGE 1
guess              SAP
}

optimize('b3lyp')
--------------------------------------------------------------------------

    Molecular point group: c2v
  Charge       = -1
  Multiplicity = 4
  Basis Set: CC-PVDZ
    Blend: CC-PVDZ
  Basis Set: (CC-PVDZ AUX)
    Blend: CC-PVDZ-JKFIT
  @DF-UKS Final Energy:  -601.37802147712432
    Total Energy =                       -601.3780214771243209
 Dipole X            :          0.0000000            0.0000000            0.0000000
 Dipole Y            :          0.0000000            0.0000000            0.0000000
 Dipole Z            :         -0.9394991            1.2883152            0.3488161
 Magnitude           :                                                    0.3488161
    Molecular point group: c2v
  Basis Set: CC-PVDZ
    Blend: CC-PVDZ
  Basis Set: (CC-PVDZ AUX)
    Blend: CC-PVDZ-JKFIT
  Basis Set: CC-PVDZ
    Blend: CC-PVDZ
  Basis Set: (CC-PVDZ AUX)
    Blend: CC-PVDZ-JKFIT
  @DF-UKS Final Energy:  -601.55531816083123
    Total Energy =                       -601.5553181608312343
  Basis Set: CC-PVDZ
    Blend: CC-PVDZ
  Basis Set: (CC-PVDZ AUX)
    Blend: CC-PVDZ-JKFIT
  Basis Set: CC-PVDZ
    Blend: CC-PVDZ
  @DF-UKS Final Energy:  -601.68928115742767
    Total Energy =                       -601.6892811574276720
  @DF-UKS Final Energy:  -601.78508633540412
    Total Energy =                       -601.7850863354041167
  @DF-UKS Final Energy:  -601.86783685948649
    Total Energy =                       -601.8678368594863741
  @DF-UKS Final Energy:  -601.90462384756574
    Total Energy =                       -601.9046238475657447
  @DF-UKS Final Energy:  -601.91968388833220
    Total Energy =                       -601.9196838883322016
  @DF-UKS Final Energy:  -601.92488154722514
    Total Energy =                       -601.9248815472251408
  @DF-UKS Final Energy:  -601.92632313556373
    Total Energy =                       -601.9263231355636208
  @DF-UKS Final Energy:  -601.92654844691867
    Total Energy =                       -601.9265484469186731
  @DF-UKS Final Energy:  -601.92659592604230
    Total Energy =                       -601.9265959260421823
  Basis Set: (CC-PVDZ AUX)
    Blend: CC-PVDZ-JKFIT
  Basis Set: CC-PVDZ
    Blend: CC-PVDZ
  Basis Set: (CC-PVDZ AUX)
    Blend: CC-PVDZ-JKFIT
  @DF-UKS Final Energy:  -601.92659981870838
    Total Energy =                       -601.9265998187083824
  Basis Set: CC-PVDZ
    Blend: CC-PVDZ
  Basis Set: (CC-PVDZ AUX)
    Blend: CC-PVDZ-JKFIT
  Charge       = -1
  Multiplicity = 4
  Basis Set: CC-PVDZ
    Blend: CC-PVDZ
  Basis Set: (CC-PVDZ AUX)
    Blend: CC-PVDZ-JKFIT

    Orbital Energies [Eh]
    ---------------------

    Alpha Occupied:

       1A1  -114.679083     2A1   -19.016605     3A1   -10.743417
       4A1    -8.296141     1B1    -8.293095     1B2    -8.289156
       5A1    -0.757812     6A1    -0.633383     7A1    -0.201354
       2B1    -0.200319     2B2    -0.127263     3B1    -0.100813
       3B2    -0.094266     8A1    -0.089072     4B2     0.788272

    Alpha Virtual:

       4B1     0.857583     9A1     0.884022    10A1     0.951762
       5B1     1.052228     5B2     1.091707    11A1     1.091998
       6B1     1.168987     1A2     1.176104    12A1     1.177380
       6B2     1.185916    13A1     1.201021    14A1     1.547535
       7B1     2.692765    15A1     2.706107     2A2     2.741911
       7B2     2.751677    16A1     2.774499

    Beta Occupied:

       1A1  -114.669291     2A1   -18.968409     3A1   -10.734271
       4A1    -8.287588     1B1    -8.287410     1B2    -8.262624
       5A1    -0.618643     6A1    -0.595288     7A1    -0.094990
       2B1    -0.091225     2B2    -0.076876     3B2    -0.049058

    Beta Virtual:

       3B1     0.074854     8A1     0.086017     4B1     0.877558
       4B2     0.907759     9A1     0.913805    10A1     1.007514
       5B2     1.126459    11A1     1.126464     5B1     1.138469
       1A2     1.196115    12A1     1.197995     6B1     1.204313
       6B2     1.213813    13A1     1.267234    14A1     1.618955
       2A2     2.832096     7B2     2.835192    15A1     2.841562
       7B1     2.855340    16A1     2.873278

    Final Occupation by Irrep:
             A1    A2    B1    B2
    DOCC [     7,    0,    2,    3 ]
    SOCC [     1,    0,    1,    1 ]
    NA   [     8,    0,    3,    4 ]
    NB   [     7,    0,    2,    3 ]

  @DF-UKS Final Energy:  -601.92660017496564

   => Energetics <=

    Nuclear Repulsion Energy =             30.0049127551288208
    One-Electron Energy =                -899.5894263954437520
    Two-Electron Energy =                 299.6942253406321583
    DFT Exchange-Correlation Energy =     -32.0363118752827134
    Empirical Dispersion Energy =           0.0000000000000000
    VV10 Nonlocal Energy =                  0.0000000000000000
    Total Energy =                       -601.9266001749656425

  UHF NO Occupations:
  HONO-2 :    3 B1 1.0000000
  HONO-1 :    4 B2 1.0000000
  HONO-0 :    8 A1 1.0000000
  LUNO+0 :    9 A1 0.0006598
  LUNO+1 :   10 A1 0.0004411
  LUNO+2 :    5 B2 0.0002860
  LUNO+3 :   11 A1 0.0000754

Computation Completed

Properties will be evaluated at   0.000000,   0.000000,   0.000000 [a0]

Properties computed using the SCF density matrix

 Multipole Moments:

 ------------------------------------------------------------------------------------
     Multipole            Electronic (a.u.)      Nuclear  (a.u.)        Total (a.u.)
 ------------------------------------------------------------------------------------

 L = 1.  Multiply by 2.5417464519 to convert [e a0] to [Debye]
 Dipole X            :          0.0000000            0.0000000            0.0000000
 Dipole Y            :          0.0000000            0.0000000            0.0000000
 Dipole Z            :         -2.1349419            2.7265417            0.5915998
 Magnitude           :                                                    0.5915998

 ------------------------------------------------------------------------------------

*** tstop() called on Joses-MacBook-Pro-2.local at Thu Jul 17 10:49:09 2025
Module time:
	user time   =       2.22 seconds =       0.04 minutes
	system time =       3.16 seconds =       0.05 minutes
	total time  =          0 seconds =       0.00 minutes
Total time:
	user time   =      53.32 seconds =       0.89 minutes
	system time =      79.07 seconds =       1.32 minutes
	total time  =         13 seconds =       0.22 minutes

*** tstart() called on Joses-MacBook-Pro-2.local
*** at Thu Jul 17 10:49:09 2025

         ------------------------------------------------------------
                                   SCF GRAD
                          Rob Parrish, Justin Turney,
                       Andy Simmonett, and Alex Sokolov
         ------------------------------------------------------------

  ==> Geometry <==

    Molecular point group: c2v
    Full point group: C_inf_v

    Geometry (in Angstrom), charge = -1, multiplicity = 4:

       Center              X                  Y                   Z               Mass
    ------------   -----------------  -----------------  -----------------  -----------------
         O            0.000000000000     0.000000000000     1.813701875270    15.994914619570
         AR           0.000000000000     0.000000000000    -0.725932849162    39.962383123700

  Nuclear repulsion =   30.004912755128821

  ==> Basis Set <==

  Basis Set: CC-PVDZ
    Blend: CC-PVDZ
    Number of shells: 14
    Number of basis functions: 32
    Number of Cartesian functions: 34
    Spherical Harmonics?: true
    Max angular momentum: 2

  ==> DFJKGrad: Density-Fitted SCF Gradients <==

    Gradient:                    1
    J tasked:                  Yes
    K tasked:                  Yes
    wK tasked:                  No
    OpenMP threads:              1
    Integrals threads:           1
    Memory [MiB]:              375
    Schwarz Cutoff:          1E-12
    Fitting Condition:       1E-10

   => Auxiliary Basis Set <=

  Basis Set: (CC-PVDZ AUX)
    Blend: CC-PVDZ-JKFIT
    Number of shells: 60
    Number of basis functions: 182
    Number of Cartesian functions: 211
    Spherical Harmonics?: true
    Max angular momentum: 3

  ==> DFT Potential <==

   => LibXC <=

    Version 6.2.2
    S. Lehtola, C. Steigemann, M. J.T. Oliveira, and M. A.L. Marques.,  SoftwareX 7, 1â€“5 (2018) (10.1016/j.softx.2017.11.002)

   => Composite Functional: B3LYP <=

    B3LYP Hyb-GGA Exchange-Correlation Functional

    P. J. Stephens, F. J. Devlin, C. F. Chabalowski, and M. J. Frisch.,  J. Phys. Chem. 98, 11623 (1994) (10.1021/j100096a001)

    Deriv               =              1
    GGA                 =           TRUE
    Meta                =          FALSE

    Exchange Hybrid     =           TRUE
    MP2 Hybrid          =          FALSE

   => Exchange Functionals <=

    0.0800   Slater exchange
    0.7200         Becke 88

   => Exact (HF) Exchange <=

    0.2000               HF

   => Correlation Functionals <=

    0.1900   Vosko, Wilk & Nusair (VWN5_RPA)
    0.8100   Lee, Yang & Parr

   => LibXC Density Thresholds  <==

    XC_HYB_GGA_XC_B3LYP:  1.00E-15

   => Molecular Quadrature <=

    Radial Scheme          =       TREUTLER
    Pruning Scheme         =           NONE
    Nuclear Scheme         =       TREUTLER

    Blocking Scheme        =         OCTREE
    BS radius alpha        =              1
    Pruning alpha          =              1
    Radial Points          =             75
    Spherical Points       =            302
    Total Points           =          41133
    Total Blocks           =            372
    Max Points             =            255
    Max Functions          =             32
    Weights Tolerance      =       1.00E-15

  -Total Gradient:
     Atom            X                  Y                   Z
    ------   -----------------  -----------------  -----------------
       1        0.000000000000    -0.000000000000    -0.000029475125
       2       -0.000000000000     0.000000000000     0.000053036909

*** tstop() called on Joses-MacBook-Pro-2.local at Thu Jul 17 10:49:10 2025
Module time:
	user time   =       0.85 seconds =       0.01 minutes
	system time =       1.58 seconds =       0.03 minutes
	total time  =          1 seconds =       0.02 minutes
Total time:
	user time   =      54.17 seconds =       0.90 minutes
	system time =      80.66 seconds =       1.34 minutes
	total time  =         14 seconds =       0.23 minutes

    			-----------------------------------------

    			 OPTKING 3.0: for geometry optimizations

    			     By R.A. King, Bethel University

    			        with contributions from

    			    A.V. Copan, J. Cayton, A. Heide

    			-----------------------------------------

	                            ===> Fragment 1 <==

	 Z (Atomic Numbers)          Masses                          Geom
	       8.000000            15.994915          0.00000000  0.00000000  3.42739982
	      18.000000            39.962383          0.00000000  0.00000000 -1.37181427

	 - Coordinate -           - BOHR/RAD -       - ANG/DEG -
	 R(1,2)           =         4.799214           2.539635

	        --- Internal Coordinate Step in ANG or DEG, aJ/ANG or AJ/DEG ---
	-------------------------------------------------------------------------------
	           Coordinate      Previous         Force          Change          New
	           ----------      --------        ------          ------        ------
	               R(1,2)       2.53963        0.00034        0.00069       2.54032
	-------------------------------------------------------------------------------

	                                 ==> Convergence Check <==

	Measures of convergence in internal coordinates in au.

	Criteria marked as inactive (o), active & met (*), and active & unmet ( ).

	----------------------------------------------------------------------------------------------
	   Step    Total Energy     Delta E     Max Force     RMS Force      Max Disp      RMS Disp
	----------------------------------------------------------------------------------------------
	  Convergence Criteria     1.00e-06 *    3.00e-04 *             o    1.20e-03 *             o
	----------------------------------------------------------------------------------------------
	    13    -601.92660017   -3.56e-07 *    4.13e-05 *    4.13e-05 o    1.30e-03      1.30e-03 o  ~
	----------------------------------------------------------------------------------------------

Next Geometry in Ang
	Fragment 1 (Ang)

	    O   0.0000000000   0.0000000000   1.8140456186
	   Ar   0.0000000000   0.0000000000  -0.7262765925

    Final optimized geometry and variables:
    Molecular point group: c2v
    Full point group: C_inf_v

    Geometry (in Angstrom), charge = -1, multiplicity = 4:

    O            0.000000000000     0.000000000000     1.813701875270
    AR           0.000000000000     0.000000000000    -0.725932849162

    Psi4 stopped on: Thursday, 17 July 2025 10:49AM
    Psi4 wall time for execution: 0:00:14.13

*** Psi4 exiting successfully. Buy a developer a beer!
