                               Psi4 1.9.1 release

  ==> Input File <==

--------------------------------------------------------------------------
molecule {
-1 4
Si   0.00000        0.60000        0.00000
S   0.00000       -0.60000        0.00000
}

set {
basis              cc-pvdz
reference          uks
maxiter            500
geom_maxiter       500
DAMPING_PERCENTAGE 1
guess              SAP
}

optimize('b3lyp')
--------------------------------------------------------------------------

    Molecular point group: c2v
  Charge       = -1
  Multiplicity = 4
  Basis Set: CC-PVDZ
    Blend: CC-PVDZ
  Basis Set: (CC-PVDZ AUX)
    Blend: CC-PVDZ-JKFIT
  @DF-UKS Final Energy:  -686.37923152447968
    Total Energy =                       -686.3792315244796782
 Dipole X            :          0.0000000            0.0000000            0.0000000
 Dipole Y            :          0.0000000            0.0000000            0.0000000
 Dipole Z            :         -1.1935927           -0.0008257           -1.1944183
 Magnitude           :                                                    1.1944183
    Molecular point group: c2v
  Basis Set: CC-PVDZ
    Blend: CC-PVDZ
  Basis Set: (CC-PVDZ AUX)
    Blend: CC-PVDZ-JKFIT
  Basis Set: CC-PVDZ
    Blend: CC-PVDZ
  Basis Set: (CC-PVDZ AUX)
    Blend: CC-PVDZ-JKFIT
  @DF-UKS Final Energy:  -686.41326879597932
    Total Energy =                       -686.4132687959793202
  Basis Set: CC-PVDZ
    Blend: CC-PVDZ
  Basis Set: (CC-PVDZ AUX)
    Blend: CC-PVDZ-JKFIT
  Basis Set: CC-PVDZ
    Blend: CC-PVDZ
  @DF-UKS Final Energy:  -686.47752204859296
    Total Energy =                       -686.4775220485929594
  @DF-UKS Final Energy:  -686.69587393211680
    Total Energy =                       -686.6958739321167968
  @DF-UKS Final Energy:  -687.27910890381224
    Total Energy =                       -687.2791089038121299
  @DF-UKS Final Energy:  -687.46874682986879
    Total Energy =                       -687.4687468298687918
  @DF-UKS Final Energy:  -687.57413946753934
    Total Energy =                       -687.5741394675393394
  @DF-UKS Final Energy:  -687.61813146295981
    Total Energy =                       -687.6181314629598091
  @DF-UKS Final Energy:  -687.63540174707362
    Total Energy =                       -687.6354017470736153
  @DF-UKS Final Energy:  -687.63998454311013
    Total Energy =                       -687.6399845431101312
  @DF-UKS Final Energy:  -687.64189498082033
    Total Energy =                       -687.6418949808203251
  @DF-UKS Final Energy:  -687.64233876157016
    Total Energy =                       -687.6423387615701586
  @DF-UKS Final Energy:  -687.64245697655429
    Total Energy =                       -687.6424569765542856
  @DF-UKS Final Energy:  -687.64249823352054
    Total Energy =                       -687.6424982335205414
  Basis Set: (CC-PVDZ AUX)
    Blend: CC-PVDZ-JKFIT
  Basis Set: CC-PVDZ
    Blend: CC-PVDZ
  Basis Set: (CC-PVDZ AUX)
    Blend: CC-PVDZ-JKFIT
  @DF-UKS Final Energy:  -687.64250472829713
    Total Energy =                       -687.6425047282971263
  Basis Set: CC-PVDZ
    Blend: CC-PVDZ
  Basis Set: (CC-PVDZ AUX)
    Blend: CC-PVDZ-JKFIT
  Charge       = -1
  Multiplicity = 4
  Basis Set: CC-PVDZ
    Blend: CC-PVDZ
  Basis Set: (CC-PVDZ AUX)
    Blend: CC-PVDZ-JKFIT

    Orbital Energies [Eh]
    ---------------------

    Alpha Occupied:

       1A1   -88.637451     2A1   -65.933805     3A1    -7.697015
       4A1    -5.666582     1B1    -5.653908     1B2    -5.653908
       5A1    -5.076449     6A1    -3.437732     2B1    -3.434872
       2B2    -3.434872     7A1    -0.462090     8A1    -0.238476
       9A1    -0.088086     3B2    -0.053019     3B1    -0.053019
       4B2     0.052058     4B1     0.052058

    Alpha Virtual:

      10A1     0.213178    11A1     0.432428    12A1     0.470039
       5B1     0.500972     5B2     0.500972     6B2     0.546135
       6B1     0.546135    13A1     0.558314     1A2     0.558315
      14A1     0.589885     7B1     0.737286     7B2     0.737286
      15A1     0.829284     2A2     0.856369    16A1     0.856370
      17A1     0.878469     8B1     0.966488     8B2     0.966488
      18A1     1.289741

    Beta Occupied:

       1A1   -88.633063     2A1   -65.927000     3A1    -7.692591
       4A1    -5.656641     1B1    -5.648847     1B2    -5.648847
       5A1    -5.068393     6A1    -3.429409     2B1    -3.423184
       2B2    -3.423184     7A1    -0.426691     8A1    -0.163919
       3B2    -0.025173     3B1    -0.025173

    Beta Virtual:

       9A1     0.025151     4B1     0.159036     4B2     0.159036
      10A1     0.250863    11A1     0.458233    12A1     0.507229
       5B1     0.534398     5B2     0.534398     6B1     0.604898
       6B2     0.604898    13A1     0.625495    14A1     0.629763
       1A2     0.629764     7B1     0.749591     7B2     0.749591
      15A1     0.861863     2A2     0.877071    16A1     0.877072
      17A1     0.908458     8B1     1.004289     8B2     1.004289
      18A1     1.315698

    Final Occupation by Irrep:
             A1    A2    B1    B2
    DOCC [     8,    0,    3,    3 ]
    SOCC [     1,    0,    1,    1 ]
    NA   [     9,    0,    4,    4 ]
    NB   [     8,    0,    3,    3 ]

  @DF-UKS Final Energy:  -687.64250519629206

   => Energetics <=

    Nuclear Repulsion Energy =             54.2118106141352101
    One-Electron Energy =               -1066.2782130555974618
    Two-Electron Energy =                 362.1085141684623068
    DFT Exchange-Correlation Energy =     -37.6846169232920616
    Empirical Dispersion Energy =           0.0000000000000000
    VV10 Nonlocal Energy =                  0.0000000000000000
    Total Energy =                       -687.6425051962920634

  UHF NO Occupations:
  HONO-2 :    4 B2 1.0000000
  HONO-1 :    4 B1 1.0000000
  HONO-0 :    9 A1 1.0000000
  LUNO+0 :   10 A1 0.0010529
  LUNO+1 :    5 B2 0.0004839
  LUNO+2 :    5 B1 0.0004839
  LUNO+3 :   11 A1 0.0001479

Computation Completed

Properties will be evaluated at   0.000000,   0.000000,   0.000000 [a0]

Properties computed using the SCF density matrix

 Multipole Moments:

 ------------------------------------------------------------------------------------
     Multipole            Electronic (a.u.)      Nuclear  (a.u.)        Total (a.u.)
 ------------------------------------------------------------------------------------

 L = 1.  Multiply by 2.5417464519 to convert [e a0] to [Debye]
 Dipole X            :          0.0000000            0.0000000            0.0000000
 Dipole Y            :          0.0000000            0.0000000            0.0000000
 Dipole Z            :         -0.1002900           -0.0015045           -0.1017944
 Magnitude           :                                                    0.1017944

 ------------------------------------------------------------------------------------

*** tstop() called on Joses-MacBook-Pro-2.local at Thu Jul 17 11:49:57 2025
Module time:
	user time   =       8.23 seconds =       0.14 minutes
	system time =       1.81 seconds =       0.03 minutes
	total time  =          1 seconds =       0.02 minutes
Total time:
	user time   =     200.08 seconds =       3.33 minutes
	system time =      44.45 seconds =       0.74 minutes
	total time  =         23 seconds =       0.38 minutes

*** tstart() called on Joses-MacBook-Pro-2.local
*** at Thu Jul 17 11:49:57 2025

         ------------------------------------------------------------
                                   SCF GRAD
                          Rob Parrish, Justin Turney,
                       Andy Simmonett, and Alex Sokolov
         ------------------------------------------------------------

  ==> Geometry <==

    Molecular point group: c2v
    Full point group: C_inf_v

    Geometry (in Angstrom), charge = -1, multiplicity = 4:

       Center              X                  Y                   Z               Mass
    ------------   -----------------  -----------------  -----------------  -----------------
         SI           0.000000000000     0.000000000000     1.166122253534    27.976926534650
         S            0.000000000000     0.000000000000    -1.020406730598    31.972071174400

  Nuclear repulsion =   54.211810614135210

  ==> Basis Set <==

  Basis Set: CC-PVDZ
    Blend: CC-PVDZ
    Number of shells: 16
    Number of basis functions: 36
    Number of Cartesian functions: 38
    Spherical Harmonics?: true
    Max angular momentum: 2

  ==> DFJKGrad: Density-Fitted SCF Gradients <==

    Gradient:                    1
    J tasked:                  Yes
    K tasked:                  Yes
    wK tasked:                  No
    OpenMP threads:              1
    Integrals threads:           1
    Memory [MiB]:              375
    Schwarz Cutoff:          1E-12
    Fitting Condition:       1E-10

   => Auxiliary Basis Set <=

  Basis Set: (CC-PVDZ AUX)
    Blend: CC-PVDZ-JKFIT
    Number of shells: 72
    Number of basis functions: 224
    Number of Cartesian functions: 260
    Spherical Harmonics?: true
    Max angular momentum: 3

  ==> DFT Potential <==

   => LibXC <=

    Version 6.2.2
    S. Lehtola, C. Steigemann, M. J.T. Oliveira, and M. A.L. Marques.,  SoftwareX 7, 1â€“5 (2018) (10.1016/j.softx.2017.11.002)

   => Composite Functional: B3LYP <=

    B3LYP Hyb-GGA Exchange-Correlation Functional

    P. J. Stephens, F. J. Devlin, C. F. Chabalowski, and M. J. Frisch.,  J. Phys. Chem. 98, 11623 (1994) (10.1021/j100096a001)

    Deriv               =              1
    GGA                 =           TRUE
    Meta                =          FALSE

    Exchange Hybrid     =           TRUE
    MP2 Hybrid          =          FALSE

   => Exchange Functionals <=

    0.0800   Slater exchange
    0.7200         Becke 88

   => Exact (HF) Exchange <=

    0.2000               HF

   => Correlation Functionals <=

    0.1900   Vosko, Wilk & Nusair (VWN5_RPA)
    0.8100   Lee, Yang & Parr

   => LibXC Density Thresholds  <==

    XC_HYB_GGA_XC_B3LYP:  1.00E-15

   => Molecular Quadrature <=

    Radial Scheme          =       TREUTLER
    Pruning Scheme         =           NONE
    Nuclear Scheme         =       TREUTLER

    Blocking Scheme        =         OCTREE
    BS radius alpha        =              1
    Pruning alpha          =              1
    Radial Points          =             75
    Spherical Points       =            302
    Total Points           =          41609
    Total Blocks           =            383
    Max Points             =            256
    Max Functions          =             36
    Weights Tolerance      =       1.00E-15

  -Total Gradient:
     Atom            X                  Y                   Z
    ------   -----------------  -----------------  -----------------
       1        0.000000000000     0.000000000000    -0.000039674214
       2       -0.000000000000     0.000000000000     0.000055206497

*** tstop() called on Joses-MacBook-Pro-2.local at Thu Jul 17 11:49:57 2025
Module time:
	user time   =       3.15 seconds =       0.05 minutes
	system time =       0.61 seconds =       0.01 minutes
	total time  =          0 seconds =       0.00 minutes
Total time:
	user time   =     203.23 seconds =       3.39 minutes
	system time =      45.06 seconds =       0.75 minutes
	total time  =         23 seconds =       0.38 minutes

    			-----------------------------------------

    			 OPTKING 3.0: for geometry optimizations

    			     By R.A. King, Bethel University

    			        with contributions from

    			    A.V. Copan, J. Cayton, A. Heide

    			-----------------------------------------

	                            ===> Fragment 1 <==

	 Z (Atomic Numbers)          Masses                          Geom
	      14.000000            27.976927          0.00000000  0.00000000  2.20365169
	      16.000000            31.972071          0.00000000  0.00000000 -1.92828926

	 - Coordinate -           - BOHR/RAD -       - ANG/DEG -
	 R(1,2)           =         4.131941           2.186529

	        --- Internal Coordinate Step in ANG or DEG, aJ/ANG or AJ/DEG ---
	-------------------------------------------------------------------------------
	           Coordinate      Previous         Force          Change          New
	           ----------      --------        ------          ------        ------
	               R(1,2)       2.18653        0.00039        0.00024       2.18677
	-------------------------------------------------------------------------------

	                                 ==> Convergence Check <==

	Measures of convergence in internal coordinates in au.

	Criteria marked as inactive (o), active & met (*), and active & unmet ( ).

	----------------------------------------------------------------------------------------------
	   Step    Total Energy     Delta E     Max Force     RMS Force      Max Disp      RMS Disp
	----------------------------------------------------------------------------------------------
	  Convergence Criteria     1.00e-06 *    3.00e-04 *             o    1.20e-03 *             o
	----------------------------------------------------------------------------------------------
	    16    -687.64250520   -4.68e-07 *    4.74e-05 *    4.74e-05 o    4.52e-04 *    4.52e-04 o  ~
	----------------------------------------------------------------------------------------------

Next Geometry in Ang
	Fragment 1 (Ang)

	   Si   0.0000000000   0.0000000000   1.1662419420
	    S   0.0000000000   0.0000000000  -1.0205264190

    Final optimized geometry and variables:
    Molecular point group: c2v
    Full point group: C_inf_v

    Geometry (in Angstrom), charge = -1, multiplicity = 4:

    SI           0.000000000000     0.000000000000     1.166122253534
    S            0.000000000000     0.000000000000    -1.020406730598

    Psi4 stopped on: Thursday, 17 July 2025 11:49AM
    Psi4 wall time for execution: 0:00:24.05

*** Psi4 exiting successfully. Buy a developer a beer!
