                               Psi4 1.9.1 release

  ==> Input File <==

--------------------------------------------------------------------------
molecule {
-1 4
N   0.00000        0.60000        0.00000
Al   0.00000       -0.60000        0.00000
}

set {
basis              cc-pvdz
reference          uks
maxiter            500
geom_maxiter       500
DAMPING_PERCENTAGE 1
guess              SAP
}

optimize('b3lyp')
--------------------------------------------------------------------------

    Molecular point group: c2v
  Charge       = -1
  Multiplicity = 4
  Basis Set: CC-PVDZ
    Blend: CC-PVDZ
  Basis Set: (CC-PVDZ AUX)
    Blend: CC-PVDZ-JKFIT
  @DF-UKS Final Energy:  -296.60631994904173
    Total Energy =                       -296.6063199490417333
 Dipole X            :          0.0000000            0.0000000            0.0000000
 Dipole Y            :          0.0000000            0.0000000            0.0000000
 Dipole Z            :         -0.3316066            0.3779474            0.0463408
 Magnitude           :                                                    0.0463408
    Molecular point group: c2v
  Basis Set: CC-PVDZ
    Blend: CC-PVDZ
  Basis Set: (CC-PVDZ AUX)
    Blend: CC-PVDZ-JKFIT
  Basis Set: CC-PVDZ
    Blend: CC-PVDZ
  Basis Set: (CC-PVDZ AUX)
    Blend: CC-PVDZ-JKFIT
  @DF-UKS Final Energy:  -296.80694586376245
    Total Energy =                       -296.8069458637624507
  Basis Set: CC-PVDZ
    Blend: CC-PVDZ
  Basis Set: (CC-PVDZ AUX)
    Blend: CC-PVDZ-JKFIT
  Basis Set: CC-PVDZ
    Blend: CC-PVDZ
  @DF-UKS Final Energy:  -296.90236834451127
    Total Energy =                       -296.9023683445112169
  @DF-UKS Final Energy:  -296.93236424676985
    Total Energy =                       -296.9323642467698505
  @DF-UKS Final Energy:  -297.01321441907919
    Total Energy =                       -297.0132144190791905
  @DF-UKS Final Energy:  -297.04344672786868
    Total Energy =                       -297.0434467278686839
  @DF-UKS Final Energy:  -297.04647308566541
    Total Energy =                       -297.0464730856654683
  @DF-UKS Final Energy:  -297.04669129746890
    Total Energy =                       -297.0466912974689535
  @DF-UKS Final Energy:  -297.04677839800166
    Total Energy =                       -297.0467783980016634
  Basis Set: (CC-PVDZ AUX)
    Blend: CC-PVDZ-JKFIT
  Basis Set: CC-PVDZ
    Blend: CC-PVDZ
  Basis Set: (CC-PVDZ AUX)
    Blend: CC-PVDZ-JKFIT
  @DF-UKS Final Energy:  -297.04678419821408
    Total Energy =                       -297.0467841982140840
  Basis Set: CC-PVDZ
    Blend: CC-PVDZ
  Basis Set: (CC-PVDZ AUX)
    Blend: CC-PVDZ-JKFIT
  Charge       = -1
  Multiplicity = 4
  Basis Set: CC-PVDZ
    Blend: CC-PVDZ
  Basis Set: (CC-PVDZ AUX)
    Blend: CC-PVDZ-JKFIT

    Orbital Energies [Eh]
    ---------------------

    Alpha Occupied:

       1A1   -55.830893     2A1   -14.125256     3A1    -3.911878
       4A1    -2.465038     1B1    -2.464614     1B2    -2.464608
       5A1    -0.525508     6A1    -0.138842     2B2    -0.084800
       7A1    -0.035334     2B1    -0.035034     3B2     0.092153

    Alpha Virtual:

       3B1     0.152737     8A1     0.216618     9A1     0.357152
       4B2     0.406377     4B1     0.418960    10A1     0.458824
       1A2     0.474407    11A1     0.478434     5B2     0.520523
       5B1     0.537345    12A1     0.688365     6B2     0.988777
      13A1     0.993762     6B1     1.021205    14A1     1.462487
      15A1     1.987712     2A2     1.988032     7B2     2.037110
       7B1     2.071899    16A1     2.302178

    Beta Occupied:

       1A1   -55.828851     2A1   -14.092692     3A1    -3.909409
       1B1    -2.464074     4A1    -2.460961     1B2    -2.458834
       5A1    -0.415897     6A1    -0.061525     2B1     0.005653

    Beta Virtual:

       7A1     0.090728     2B2     0.103596     3B1     0.171402
       3B2     0.210604     8A1     0.240289     9A1     0.377647
       4B1     0.420556     4B2     0.439427    10A1     0.489255
       1A2     0.504584    11A1     0.508348     5B1     0.551339
       5B2     0.575129    12A1     0.720710     6B1     1.051802
      13A1     1.063946     6B2     1.082093    14A1     1.523080
       2A2     2.069408    15A1     2.075175     7B1     2.130858
       7B2     2.152647    16A1     2.381923

    Final Occupation by Irrep:
             A1    A2    B1    B2
    DOCC [     6,    0,    2,    1 ]
    SOCC [     1,    0,    0,    2 ]
    NA   [     7,    0,    2,    3 ]
    NB   [     6,    0,    2,    1 ]

  @DF-UKS Final Energy:  -297.04678458708776

   => Energetics <=

    Nuclear Repulsion Energy =             25.2039998207557261
    One-Electron Energy =                -466.0359566221316641
    Two-Electron Energy =                 164.4672872403321833
    DFT Exchange-Correlation Energy =     -20.6821150260439666
    Empirical Dispersion Energy =           0.0000000000000000
    VV10 Nonlocal Energy =                  0.0000000000000000
    Total Energy =                       -297.0467845870877568

  UHF NO Occupations:
  HONO-2 :    2 B2 1.0000000
  HONO-1 :    7 A1 1.0000000
  HONO-0 :    3 B2 1.0000000
  LUNO+0 :    3 B1 0.0112106
  LUNO+1 :    8 A1 0.0040504
  LUNO+2 :    9 A1 0.0007946
  LUNO+3 :   10 A1 0.0000002

Computation Completed

Properties will be evaluated at   0.000000,   0.000000,   0.000000 [a0]

Properties computed using the SCF density matrix

 Multipole Moments:

 ------------------------------------------------------------------------------------
     Multipole            Electronic (a.u.)      Nuclear  (a.u.)        Total (a.u.)
 ------------------------------------------------------------------------------------

 L = 1.  Multiply by 2.5417464519 to convert [e a0] to [Debye]
 Dipole X            :          0.0000000            0.0000000            0.0000000
 Dipole Y            :          0.0000000            0.0000000            0.0000000
 Dipole Z            :         -0.4504196            0.6017598            0.1513401
 Magnitude           :                                                    0.1513401

 ------------------------------------------------------------------------------------

*** tstop() called on Joses-MacBook-Pro-2.local at Thu Jul 17 10:30:39 2025
Module time:
	user time   =       2.65 seconds =       0.04 minutes
	system time =       4.73 seconds =       0.08 minutes
	total time  =          1 seconds =       0.02 minutes
Total time:
	user time   =      66.80 seconds =       1.11 minutes
	system time =      63.93 seconds =       1.07 minutes
	total time  =         13 seconds =       0.22 minutes

*** tstart() called on Joses-MacBook-Pro-2.local
*** at Thu Jul 17 10:30:39 2025

         ------------------------------------------------------------
                                   SCF GRAD
                          Rob Parrish, Justin Turney,
                       Andy Simmonett, and Alex Sokolov
         ------------------------------------------------------------

  ==> Geometry <==

    Molecular point group: c2v
    Full point group: C_inf_v

    Geometry (in Angstrom), charge = -1, multiplicity = 4:

       Center              X                  Y                   Z               Mass
    ------------   -----------------  -----------------  -----------------  -----------------
         N            0.000000000000     0.000000000000     1.257821268044    14.003074004430
         AL           0.000000000000     0.000000000000    -0.652793178609    26.981538530000

  Nuclear repulsion =   25.203999820755726

  ==> Basis Set <==

  Basis Set: CC-PVDZ
    Blend: CC-PVDZ
    Number of shells: 14
    Number of basis functions: 32
    Number of Cartesian functions: 34
    Spherical Harmonics?: true
    Max angular momentum: 2

  ==> DFJKGrad: Density-Fitted SCF Gradients <==

    Gradient:                    1
    J tasked:                  Yes
    K tasked:                  Yes
    wK tasked:                  No
    OpenMP threads:              1
    Integrals threads:           1
    Memory [MiB]:              375
    Schwarz Cutoff:          1E-12
    Fitting Condition:       1E-10

   => Auxiliary Basis Set <=

  Basis Set: (CC-PVDZ AUX)
    Blend: CC-PVDZ-JKFIT
    Number of shells: 60
    Number of basis functions: 182
    Number of Cartesian functions: 211
    Spherical Harmonics?: true
    Max angular momentum: 3

  ==> DFT Potential <==

   => LibXC <=

    Version 6.2.2
    S. Lehtola, C. Steigemann, M. J.T. Oliveira, and M. A.L. Marques.,  SoftwareX 7, 1â€“5 (2018) (10.1016/j.softx.2017.11.002)

   => Composite Functional: B3LYP <=

    B3LYP Hyb-GGA Exchange-Correlation Functional

    P. J. Stephens, F. J. Devlin, C. F. Chabalowski, and M. J. Frisch.,  J. Phys. Chem. 98, 11623 (1994) (10.1021/j100096a001)

    Deriv               =              1
    GGA                 =           TRUE
    Meta                =          FALSE

    Exchange Hybrid     =           TRUE
    MP2 Hybrid          =          FALSE

   => Exchange Functionals <=

    0.0800   Slater exchange
    0.7200         Becke 88

   => Exact (HF) Exchange <=

    0.2000               HF

   => Correlation Functionals <=

    0.1900   Vosko, Wilk & Nusair (VWN5_RPA)
    0.8100   Lee, Yang & Parr

   => LibXC Density Thresholds  <==

    XC_HYB_GGA_XC_B3LYP:  1.00E-15

   => Molecular Quadrature <=

    Radial Scheme          =       TREUTLER
    Pruning Scheme         =           NONE
    Nuclear Scheme         =       TREUTLER

    Blocking Scheme        =         OCTREE
    BS radius alpha        =              1
    Pruning alpha          =              1
    Radial Points          =             75
    Spherical Points       =            302
    Total Points           =          43468
    Total Blocks           =            407
    Max Points             =            255
    Max Functions          =             32
    Weights Tolerance      =       1.00E-15

  -Total Gradient:
     Atom            X                  Y                   Z
    ------   -----------------  -----------------  -----------------
       1       -0.000000000000     0.000000000000    -0.000095108007
       2        0.000000000000    -0.000000000000     0.000080866013

*** tstop() called on Joses-MacBook-Pro-2.local at Thu Jul 17 10:30:39 2025
Module time:
	user time   =       0.96 seconds =       0.02 minutes
	system time =       1.42 seconds =       0.02 minutes
	total time  =          0 seconds =       0.00 minutes
Total time:
	user time   =      67.76 seconds =       1.13 minutes
	system time =      65.35 seconds =       1.09 minutes
	total time  =         13 seconds =       0.22 minutes

    			-----------------------------------------

    			 OPTKING 3.0: for geometry optimizations

    			     By R.A. King, Bethel University

    			        with contributions from

    			    A.V. Copan, J. Cayton, A. Heide

    			-----------------------------------------

	                            ===> Fragment 1 <==

	 Z (Atomic Numbers)          Masses                          Geom
	       7.000000            14.003074          0.00000000  0.00000000  2.37693771
	      13.000000            26.981539          0.00000000  0.00000000 -1.23360032

	 - Coordinate -           - BOHR/RAD -       - ANG/DEG -
	 R(1,2)           =         3.610538           1.910614

	        --- Internal Coordinate Step in ANG or DEG, aJ/ANG or AJ/DEG ---
	-------------------------------------------------------------------------------
	           Coordinate      Previous         Force          Change          New
	           ----------      --------        ------          ------        ------
	               R(1,2)       1.91061        0.00072        0.00036       1.91098
	-------------------------------------------------------------------------------

	                                 ==> Convergence Check <==

	Measures of convergence in internal coordinates in au.

	Criteria marked as inactive (o), active & met (*), and active & unmet ( ).

	----------------------------------------------------------------------------------------------
	   Step    Total Energy     Delta E     Max Force     RMS Force      Max Disp      RMS Disp
	----------------------------------------------------------------------------------------------
	  Convergence Criteria     1.00e-06 *    3.00e-04 *             o    1.20e-03 *             o
	----------------------------------------------------------------------------------------------
	    11    -297.04678459   -3.89e-07 *    8.80e-05 *    8.80e-05 o    6.83e-04 *    6.83e-04 o  ~
	----------------------------------------------------------------------------------------------

Next Geometry in Ang
	Fragment 1 (Ang)

	    N   0.0000000000   0.0000000000   1.2580019264
	   Al   0.0000000000   0.0000000000  -0.6529738370

    Final optimized geometry and variables:
    Molecular point group: c2v
    Full point group: C_inf_v

    Geometry (in Angstrom), charge = -1, multiplicity = 4:

    N            0.000000000000     0.000000000000     1.257821268044
    AL           0.000000000000     0.000000000000    -0.652793178609

    Psi4 stopped on: Thursday, 17 July 2025 10:30AM
    Psi4 wall time for execution: 0:00:13.53

*** Psi4 exiting successfully. Buy a developer a beer!
