                               Psi4 1.9.1 release

  ==> Input File <==

--------------------------------------------------------------------------
molecule {
-1 4
O   0.00000        0.60000        0.00000
Mg   0.00000       -0.60000        0.00000
}

set {
basis              cc-pvdz
reference          uks
maxiter            500
geom_maxiter       500
DAMPING_PERCENTAGE 1
guess              SAP
}

optimize('b3lyp')
--------------------------------------------------------------------------

    Molecular point group: c2v
  Charge       = -1
  Multiplicity = 4
  Basis Set: CC-PVDZ
    Blend: CC-PVDZ
  Basis Set: (CC-PVDZ AUX)
    Blend: CC-PVDZ-JKFIT + DEF2-UNIVERSAL-JKFIT
  @DF-UKS Final Energy:  -274.79254240191818
    Total Energy =                       -274.7925424019181833
 Dipole X            :          0.0000000            0.0000000            0.0000000
 Dipole Y            :          0.0000000            0.0000000            0.0000000
 Dipole Z            :          0.8737876           -0.0033262            0.8704614
 Magnitude           :                                                    0.8704614
    Molecular point group: c2v
  Basis Set: CC-PVDZ
    Blend: CC-PVDZ
  Basis Set: (CC-PVDZ AUX)
    Blend: CC-PVDZ-JKFIT + DEF2-UNIVERSAL-JKFIT
  Basis Set: CC-PVDZ
    Blend: CC-PVDZ
  Basis Set: (CC-PVDZ AUX)
    Blend: CC-PVDZ-JKFIT + DEF2-UNIVERSAL-JKFIT
  @DF-UKS Final Energy:  -274.99687839010835
    Total Energy =                       -274.9968783901083498
  Basis Set: CC-PVDZ
    Blend: CC-PVDZ
  Basis Set: (CC-PVDZ AUX)
    Blend: CC-PVDZ-JKFIT + DEF2-UNIVERSAL-JKFIT
  Basis Set: CC-PVDZ
    Blend: CC-PVDZ
  @DF-UKS Final Energy:  -275.10664318375422
    Total Energy =                       -275.1066431837542154
  @DF-UKS Final Energy:  -275.15357887748053
    Total Energy =                       -275.1535788774805269
  @DF-UKS Final Energy:  -275.16924868987883
    Total Energy =                       -275.1692486898788275
  @DF-UKS Final Energy:  -275.17781197269807
    Total Energy =                       -275.1778119726980663
  @DF-UKS Final Energy:  -275.18123563314464
    Total Energy =                       -275.1812356331446381
  @DF-UKS Final Energy:  -275.18196850988056
    Total Energy =                       -275.1819685098805621
  @DF-UKS Final Energy:  -275.18214502849281
    Total Energy =                       -275.1821450284928119
  @DF-UKS Final Energy:  -275.18219639850298
    Total Energy =                       -275.1821963985029811
  Basis Set: (CC-PVDZ AUX)
    Blend: CC-PVDZ-JKFIT + DEF2-UNIVERSAL-JKFIT
  Basis Set: CC-PVDZ
    Blend: CC-PVDZ
  Basis Set: (CC-PVDZ AUX)
    Blend: CC-PVDZ-JKFIT + DEF2-UNIVERSAL-JKFIT
  @DF-UKS Final Energy:  -275.18220505914809
    Total Energy =                       -275.1822050591480888
  Basis Set: CC-PVDZ
    Blend: CC-PVDZ
  Basis Set: (CC-PVDZ AUX)
    Blend: CC-PVDZ-JKFIT + DEF2-UNIVERSAL-JKFIT
  Charge       = -1
  Multiplicity = 4
  Basis Set: CC-PVDZ
    Blend: CC-PVDZ
  Basis Set: (CC-PVDZ AUX)
    Blend: CC-PVDZ-JKFIT + DEF2-UNIVERSAL-JKFIT

    Orbital Energies [Eh]
    ---------------------

    Alpha Occupied:

       1A1   -46.666372     2A1   -18.931022     3A1    -2.947225
       1B2    -1.691800     4A1    -1.691580     1B1    -1.689654
       5A1    -0.695394     6A1    -0.185414     2B1    -0.091006
       2B2    -0.088159     7A1    -0.023588     3B1     0.088508

    Alpha Virtual:

       3B2     0.129830     8A1     0.174131     9A1     0.245656
       4B1     0.306212     4B2     0.313303    10A1     0.383416
       1A2     0.480680    11A1     0.483336     5B1     0.533897
       5B2     0.534671    12A1     0.689375    13A1     1.200461
       6B2     1.222946     6B1     1.223774    14A1     2.010588
       7B2     2.827833     7B1     2.828780     2A2     2.839206
      15A1     2.839294    16A1     2.867894

    Beta Occupied:

       1A1   -46.662958     2A1   -18.905499     3A1    -2.941605
       1B2    -1.688551     4A1    -1.685701     1B1    -1.684408
       5A1    -0.615139     2B2    -0.060460     2B1    -0.053350

    Beta Virtual:

       6A1     0.024553     7A1     0.097301     3B2     0.154585
       3B1     0.168037     8A1     0.194038     9A1     0.277989
       4B2     0.336582     4B1     0.350801    10A1     0.431064
       1A2     0.524118    11A1     0.524837     5B2     0.570422
       5B1     0.585085    12A1     0.732896     6B2     1.241349
       6B1     1.248095    13A1     1.294871    14A1     2.057005
      15A1     2.858936     2A2     2.858942     7B2     2.906541
       7B1     2.911779    16A1     2.971822

    Final Occupation by Irrep:
             A1    A2    B1    B2
    DOCC [     5,    0,    2,    2 ]
    SOCC [     2,    0,    1,    0 ]
    NA   [     7,    0,    3,    2 ]
    NB   [     5,    0,    2,    2 ]

  @DF-UKS Final Energy:  -275.18220552522502

   => Energetics <=

    Nuclear Repulsion Energy =             27.1072224791383007
    One-Electron Energy =                -441.1065653726157052
    Two-Electron Energy =                 159.1663987286261772
    DFT Exchange-Correlation Energy =     -20.3492613603737524
    Empirical Dispersion Energy =           0.0000000000000000
    VV10 Nonlocal Energy =                  0.0000000000000000
    Total Energy =                       -275.1822055252250152

  UHF NO Occupations:
  HONO-2 :    6 A1 1.0000000
  HONO-1 :    3 B1 1.0000000
  HONO-0 :    7 A1 1.0000000
  LUNO+0 :    8 A1 0.0004588
  LUNO+1 :    3 B2 0.0004109
  LUNO+2 :    4 B1 0.0003622
  LUNO+3 :    4 B2 0.0000006

Computation Completed

Properties will be evaluated at   0.000000,   0.000000,   0.000000 [a0]

Properties computed using the SCF density matrix

 Multipole Moments:

 ------------------------------------------------------------------------------------
     Multipole            Electronic (a.u.)      Nuclear  (a.u.)        Total (a.u.)
 ------------------------------------------------------------------------------------

 L = 1.  Multiply by 2.5417464519 to convert [e a0] to [Debye]
 Dipole X            :          0.0000000            0.0000000            0.0000000
 Dipole Y            :          0.0000000            0.0000000            0.0000000
 Dipole Z            :          0.4790222           -0.0051946            0.4738276
 Magnitude           :                                                    0.4738276

 ------------------------------------------------------------------------------------

*** tstop() called on Joses-MacBook-Pro-2.local at Thu Jul 17 10:41:12 2025
Module time:
	user time   =       3.26 seconds =       0.05 minutes
	system time =       3.45 seconds =       0.06 minutes
	total time  =          1 seconds =       0.02 minutes
Total time:
	user time   =      60.03 seconds =       1.00 minutes
	system time =      62.65 seconds =       1.04 minutes
	total time  =         13 seconds =       0.22 minutes

*** tstart() called on Joses-MacBook-Pro-2.local
*** at Thu Jul 17 10:41:12 2025

         ------------------------------------------------------------
                                   SCF GRAD
                          Rob Parrish, Justin Turney,
                       Andy Simmonett, and Alex Sokolov
         ------------------------------------------------------------

  ==> Geometry <==

    Molecular point group: c2v
    Full point group: C_inf_v

    Geometry (in Angstrom), charge = -1, multiplicity = 4:

       Center              X                  Y                   Z               Mass
    ------------   -----------------  -----------------  -----------------  -----------------
         O            0.000000000000     0.000000000000     1.124308536549    15.994914619570
         MG           0.000000000000     0.000000000000    -0.749768096105    23.985041697000

  Nuclear repulsion =   27.107222479138301

  ==> Basis Set <==

  Basis Set: CC-PVDZ
    Blend: CC-PVDZ
    Number of shells: 14
    Number of basis functions: 32
    Number of Cartesian functions: 34
    Spherical Harmonics?: true
    Max angular momentum: 2

  ==> DFJKGrad: Density-Fitted SCF Gradients <==

    Gradient:                    1
    J tasked:                  Yes
    K tasked:                  Yes
    wK tasked:                  No
    OpenMP threads:              1
    Integrals threads:           1
    Memory [MiB]:              375
    Schwarz Cutoff:          1E-12
    Fitting Condition:       1E-10

   => Auxiliary Basis Set <=

  Basis Set: (CC-PVDZ AUX)
    Blend: CC-PVDZ-JKFIT + DEF2-UNIVERSAL-JKFIT
    Number of shells: 58
    Number of basis functions: 182
    Number of Cartesian functions: 218
    Spherical Harmonics?: true
    Max angular momentum: 4

  ==> DFT Potential <==

   => LibXC <=

    Version 6.2.2
    S. Lehtola, C. Steigemann, M. J.T. Oliveira, and M. A.L. Marques.,  SoftwareX 7, 1â€“5 (2018) (10.1016/j.softx.2017.11.002)

   => Composite Functional: B3LYP <=

    B3LYP Hyb-GGA Exchange-Correlation Functional

    P. J. Stephens, F. J. Devlin, C. F. Chabalowski, and M. J. Frisch.,  J. Phys. Chem. 98, 11623 (1994) (10.1021/j100096a001)

    Deriv               =              1
    GGA                 =           TRUE
    Meta                =          FALSE

    Exchange Hybrid     =           TRUE
    MP2 Hybrid          =          FALSE

   => Exchange Functionals <=

    0.0800   Slater exchange
    0.7200         Becke 88

   => Exact (HF) Exchange <=

    0.2000               HF

   => Correlation Functionals <=

    0.1900   Vosko, Wilk & Nusair (VWN5_RPA)
    0.8100   Lee, Yang & Parr

   => LibXC Density Thresholds  <==

    XC_HYB_GGA_XC_B3LYP:  1.00E-15

   => Molecular Quadrature <=

    Radial Scheme          =       TREUTLER
    Pruning Scheme         =           NONE
    Nuclear Scheme         =       TREUTLER

    Blocking Scheme        =         OCTREE
    BS radius alpha        =              1
    Pruning alpha          =              1
    Radial Points          =             75
    Spherical Points       =            302
    Total Points           =          43430
    Total Blocks           =            409
    Max Points             =            256
    Max Functions          =             32
    Weights Tolerance      =       1.00E-15

  -Total Gradient:
     Atom            X                  Y                   Z
    ------   -----------------  -----------------  -----------------
       1        0.000000000000    -0.000000000000    -0.000083818065
       2       -0.000000000000     0.000000000000     0.000043154921

*** tstop() called on Joses-MacBook-Pro-2.local at Thu Jul 17 10:41:12 2025
Module time:
	user time   =       1.43 seconds =       0.02 minutes
	system time =       1.20 seconds =       0.02 minutes
	total time  =          0 seconds =       0.00 minutes
Total time:
	user time   =      61.46 seconds =       1.02 minutes
	system time =      63.85 seconds =       1.06 minutes
	total time  =         13 seconds =       0.22 minutes

    			-----------------------------------------

    			 OPTKING 3.0: for geometry optimizations

    			     By R.A. King, Bethel University

    			        with contributions from

    			    A.V. Copan, J. Cayton, A. Heide

    			-----------------------------------------

	                            ===> Fragment 1 <==

	 Z (Atomic Numbers)          Masses                          Geom
	       8.000000            15.994915          0.00000000  0.00000000  2.12463521
	      12.000000            23.985042          0.00000000  0.00000000 -1.41685636

	 - Coordinate -           - BOHR/RAD -       - ANG/DEG -
	 R(1,2)           =         3.541492           1.874077

	        --- Internal Coordinate Step in ANG or DEG, aJ/ANG or AJ/DEG ---
	-------------------------------------------------------------------------------
	           Coordinate      Previous         Force          Change          New
	           ----------      --------        ------          ------        ------
	               R(1,2)       1.87408        0.00052        0.00025       1.87433
	-------------------------------------------------------------------------------

	                                 ==> Convergence Check <==

	Measures of convergence in internal coordinates in au.

	Criteria marked as inactive (o), active & met (*), and active & unmet ( ).

	----------------------------------------------------------------------------------------------
	   Step    Total Energy     Delta E     Max Force     RMS Force      Max Disp      RMS Disp
	----------------------------------------------------------------------------------------------
	  Convergence Criteria     1.00e-06 *    3.00e-04 *             o    1.20e-03 *             o
	----------------------------------------------------------------------------------------------
	    12    -275.18220553   -4.66e-07 *    6.35e-05 *    6.35e-05 o    4.81e-04 *    4.81e-04 o  ~
	----------------------------------------------------------------------------------------------

Next Geometry in Ang
	Fragment 1 (Ang)

	    O   0.0000000000   0.0000000000   1.1244358498
	   Mg   0.0000000000   0.0000000000  -0.7498954094

    Final optimized geometry and variables:
    Molecular point group: c2v
    Full point group: C_inf_v

    Geometry (in Angstrom), charge = -1, multiplicity = 4:

    O            0.000000000000     0.000000000000     1.124308536549
    MG           0.000000000000     0.000000000000    -0.749768096105

    Psi4 stopped on: Thursday, 17 July 2025 10:41AM
    Psi4 wall time for execution: 0:00:13.62

*** Psi4 exiting successfully. Buy a developer a beer!
