                               Psi4 1.9.1 release

  ==> Input File <==

--------------------------------------------------------------------------
molecule {
-1 4
Cl   0.00000        0.60000        0.00000
Cl   0.00000       -0.60000        0.00000
}

set {
basis              cc-pvdz
reference          uks
maxiter            500
geom_maxiter       500
DAMPING_PERCENTAGE 1
guess              SAP
}

optimize('b3lyp')
--------------------------------------------------------------------------

    Molecular point group: d2h
  Charge       = -1
  Multiplicity = 4
  Basis Set: CC-PVDZ
    Blend: CC-PVDZ
  Basis Set: (CC-PVDZ AUX)
    Blend: CC-PVDZ-JKFIT
  @DF-UKS Final Energy:  -918.52261762843909
    Total Energy =                       -918.5226176284390931
 Dipole X            :          0.0000000            0.0000000            0.0000000
 Dipole Y            :          0.0000000            0.0000000            0.0000000
 Dipole Z            :          0.0000000            0.0000000            0.0000000
 Magnitude           :                                                    0.0000000
    Molecular point group: d2h
  Basis Set: CC-PVDZ
    Blend: CC-PVDZ
  Basis Set: (CC-PVDZ AUX)
    Blend: CC-PVDZ-JKFIT
  Basis Set: CC-PVDZ
    Blend: CC-PVDZ
  Basis Set: (CC-PVDZ AUX)
    Blend: CC-PVDZ-JKFIT
  @DF-UKS Final Energy:  -918.57172645790865
    Total Energy =                       -918.5717264579086532
  Basis Set: CC-PVDZ
    Blend: CC-PVDZ
  Basis Set: (CC-PVDZ AUX)
    Blend: CC-PVDZ-JKFIT
  Basis Set: CC-PVDZ
    Blend: CC-PVDZ
  @DF-UKS Final Energy:  -918.66136319904558
    Total Energy =                       -918.6613631990455815
  @DF-UKS Final Energy:  -918.94155955602878
    Total Energy =                       -918.9415595560287784
  @DF-UKS Final Energy:  -919.43059027009542
    Total Energy =                       -919.4305902700954221
  @DF-UKS Final Energy:  -919.60440817354174
    Total Energy =                       -919.6044081735417421
  @DF-UKS Final Energy:  -919.71520287894555
    Total Energy =                       -919.7152028789457745
  @DF-UKS Final Energy:  -919.75842968498046
    Total Energy =                       -919.7584296849804559
  @DF-UKS Final Energy:  -919.77568352448168
    Total Energy =                       -919.7756835244816784
  @DF-UKS Final Energy:  -919.78057378099072
    Total Energy =                       -919.7805737809908351
  @DF-UKS Final Energy:  -919.78122403751490
    Total Energy =                       -919.7812240375150168
  @DF-UKS Final Energy:  -919.78131747774705
    Total Energy =                       -919.7813174777471659
  Basis Set: (CC-PVDZ AUX)
    Blend: CC-PVDZ-JKFIT
  Basis Set: CC-PVDZ
    Blend: CC-PVDZ
  Basis Set: (CC-PVDZ AUX)
    Blend: CC-PVDZ-JKFIT
  @DF-UKS Final Energy:  -919.78133283126124
    Total Energy =                       -919.7813328312612384
  Basis Set: CC-PVDZ
    Blend: CC-PVDZ
  Basis Set: (CC-PVDZ AUX)
    Blend: CC-PVDZ-JKFIT
  Charge       = -1
  Multiplicity = 4
  Basis Set: CC-PVDZ
    Blend: CC-PVDZ
  Basis Set: (CC-PVDZ AUX)
    Blend: CC-PVDZ-JKFIT

    Orbital Energies [Eh]
    ---------------------

    Alpha Occupied:

       1B2u -101.298615     1Ag  -101.298615     2B2u   -9.205115
       2Ag    -9.205062     1B3u   -6.969191     1B1g   -6.969187
       3Ag    -6.965430     3B2u   -6.965170     1B1u   -6.957236
       1B3g   -6.957232     4Ag    -0.657397     4B2u   -0.494996
       5Ag    -0.204284     2B3u   -0.159546     2B1u   -0.131385
       2B1g   -0.054379     2B3g   -0.023846     5B2u    0.106691
       6Ag     0.597706

    Alpha Virtual:

       6B2u    0.711857     3B3u    0.747166     3B1u    0.767758
       3B1g    0.793789     7Ag     0.806283     3B3g    0.812437
       4B3u    0.825129     4B1u    0.845783     1B2g    0.934584
       8Ag     0.934734     7B2u    0.995094     1Au     0.998014
       8B2u    1.018150     9Ag     1.109506     4B1g    1.197937
       4B3g    1.221024     9B2u    1.633880

    Beta Occupied:

       1Ag  -101.290404     1B2u -101.290403     2B2u   -9.196542
       2Ag    -9.196503     1B3u   -6.954643     1B1g   -6.954627
       1B1u   -6.951966     1B3g   -6.951952     3Ag    -6.949434
       3B2u   -6.949229     4Ag    -0.592738     4B2u   -0.433520
       5Ag    -0.130590     2B1u   -0.105238     2B3u   -0.087523
       2B3g    0.000871

    Beta Virtual:

       2B1g    0.068734     5B2u    0.239063     6Ag     0.728039
       6B2u    0.757838     3B1u    0.782423     3B3u    0.784649
       3B3g    0.830478     3B1g    0.833605     7Ag     0.837767
       4B1u    0.876138     4B3u    0.877648     1B2g    0.978371
       8Ag     0.979508     1Au     1.044197     7B2u    1.045385
       8B2u    1.071978     9Ag     1.158272     4B3g    1.252389
       4B1g    1.254927     9B2u    1.693501

    Final Occupation by Irrep:
             Ag   B1g   B2g   B3g    Au   B1u   B2u   B3u
    DOCC [     5,    1,    0,    2,    0,    2,    4,    2 ]
    SOCC [     1,    1,    0,    0,    0,    0,    1,    0 ]
    NA   [     6,    2,    0,    2,    0,    2,    5,    2 ]
    NB   [     5,    1,    0,    2,    0,    2,    4,    2 ]

  @DF-UKS Final Energy:  -919.78133393882445

   => Energetics <=

    Nuclear Repulsion Energy =             78.7796266398222400
    One-Electron Energy =               -1436.7458419245917867
    Two-Electron Energy =                 483.9739335896430248
    DFT Exchange-Correlation Energy =     -45.7890522436979452
    Empirical Dispersion Energy =           0.0000000000000000
    VV10 Nonlocal Energy =                  0.0000000000000000
    Total Energy =                       -919.7813339388244458

  UHF NO Occupations:
  HONO-2 :    6 Ag 1.0000000
  HONO-1 :    2B1g 1.0000000
  HONO-0 :    5B2u 1.0000000
  LUNO+0 :    3B3u 0.0005826
  LUNO+1 :    6B2u 0.0002644
  LUNO+2 :    7 Ag 0.0002363
  LUNO+3 :    8 Ag 0.0001584

Computation Completed

Properties will be evaluated at   0.000000,   0.000000,   0.000000 [a0]

Properties computed using the SCF density matrix

 Multipole Moments:

 ------------------------------------------------------------------------------------
     Multipole            Electronic (a.u.)      Nuclear  (a.u.)        Total (a.u.)
 ------------------------------------------------------------------------------------

 L = 1.  Multiply by 2.5417464519 to convert [e a0] to [Debye]
 Dipole X            :          0.0000000            0.0000000            0.0000000
 Dipole Y            :          0.0000000            0.0000000            0.0000000
 Dipole Z            :          0.0000000            0.0000000            0.0000000
 Magnitude           :                                                    0.0000000

 ------------------------------------------------------------------------------------

*** tstop() called on Joses-MacBook-Pro-2.local at Thu Jul 17 12:10:18 2025
Module time:
	user time   =       6.30 seconds =       0.11 minutes
	system time =       1.85 seconds =       0.03 minutes
	total time  =          0 seconds =       0.00 minutes
Total time:
	user time   =     155.11 seconds =       2.59 minutes
	system time =      39.26 seconds =       0.65 minutes
	total time  =         18 seconds =       0.30 minutes

*** tstart() called on Joses-MacBook-Pro-2.local
*** at Thu Jul 17 12:10:18 2025

         ------------------------------------------------------------
                                   SCF GRAD
                          Rob Parrish, Justin Turney,
                       Andy Simmonett, and Alex Sokolov
         ------------------------------------------------------------

  ==> Geometry <==

    Molecular point group: d2h
    Full point group: D_inf_h

    Geometry (in Angstrom), charge = -1, multiplicity = 4:

       Center              X                  Y                   Z               Mass
    ------------   -----------------  -----------------  -----------------  -----------------
         CL          -0.000000000000     0.970633020278     0.000000000000    34.968852682000
         CL           0.000000000000    -0.970633020278     0.000000000000    34.968852682000

  Nuclear repulsion =   78.779626639822240

  ==> Basis Set <==

  Basis Set: CC-PVDZ
    Blend: CC-PVDZ
    Number of shells: 16
    Number of basis functions: 36
    Number of Cartesian functions: 38
    Spherical Harmonics?: true
    Max angular momentum: 2

  ==> DFJKGrad: Density-Fitted SCF Gradients <==

    Gradient:                    1
    J tasked:                  Yes
    K tasked:                  Yes
    wK tasked:                  No
    OpenMP threads:              1
    Integrals threads:           1
    Memory [MiB]:              375
    Schwarz Cutoff:          1E-12
    Fitting Condition:       1E-10

   => Auxiliary Basis Set <=

  Basis Set: (CC-PVDZ AUX)
    Blend: CC-PVDZ-JKFIT
    Number of shells: 72
    Number of basis functions: 224
    Number of Cartesian functions: 260
    Spherical Harmonics?: true
    Max angular momentum: 3

  ==> DFT Potential <==

   => LibXC <=

    Version 6.2.2
    S. Lehtola, C. Steigemann, M. J.T. Oliveira, and M. A.L. Marques.,  SoftwareX 7, 1â€“5 (2018) (10.1016/j.softx.2017.11.002)

   => Composite Functional: B3LYP <=

    B3LYP Hyb-GGA Exchange-Correlation Functional

    P. J. Stephens, F. J. Devlin, C. F. Chabalowski, and M. J. Frisch.,  J. Phys. Chem. 98, 11623 (1994) (10.1021/j100096a001)

    Deriv               =              1
    GGA                 =           TRUE
    Meta                =          FALSE

    Exchange Hybrid     =           TRUE
    MP2 Hybrid          =          FALSE

   => Exchange Functionals <=

    0.0800   Slater exchange
    0.7200         Becke 88

   => Exact (HF) Exchange <=

    0.2000               HF

   => Correlation Functionals <=

    0.1900   Vosko, Wilk & Nusair (VWN5_RPA)
    0.8100   Lee, Yang & Parr

   => LibXC Density Thresholds  <==

    XC_HYB_GGA_XC_B3LYP:  1.00E-15

   => Molecular Quadrature <=

    Radial Scheme          =       TREUTLER
    Pruning Scheme         =           NONE
    Nuclear Scheme         =       TREUTLER

    Blocking Scheme        =         OCTREE
    BS radius alpha        =              1
    Pruning alpha          =              1
    Radial Points          =             75
    Spherical Points       =            302
    Total Points           =          39644
    Total Blocks           =            368
    Max Points             =            251
    Max Functions          =             36
    Weights Tolerance      =       1.00E-15

  -Total Gradient:
     Atom            X                  Y                   Z
    ------   -----------------  -----------------  -----------------
       1        0.000000000000    -0.000142000625     0.000000000000
       2       -0.000000000000     0.000142000625     0.000000000000

*** tstop() called on Joses-MacBook-Pro-2.local at Thu Jul 17 12:10:19 2025
Module time:
	user time   =       2.66 seconds =       0.04 minutes
	system time =       1.10 seconds =       0.02 minutes
	total time  =          1 seconds =       0.02 minutes
Total time:
	user time   =     157.78 seconds =       2.63 minutes
	system time =      40.36 seconds =       0.67 minutes
	total time  =         19 seconds =       0.32 minutes

    			-----------------------------------------

    			 OPTKING 3.0: for geometry optimizations

    			     By R.A. King, Bethel University

    			        with contributions from

    			    A.V. Copan, J. Cayton, A. Heide

    			-----------------------------------------

	                            ===> Fragment 1 <==

	 Z (Atomic Numbers)          Masses                          Geom
	      17.000000            34.968853         -0.00000000  1.83423058  0.00000000
	      17.000000            34.968853          0.00000000 -1.83423058  0.00000000

	 - Coordinate -           - BOHR/RAD -       - ANG/DEG -
	 R(1,2)           =         3.668461           1.941266

	        --- Internal Coordinate Step in ANG or DEG, aJ/ANG or AJ/DEG ---
	-------------------------------------------------------------------------------
	           Coordinate      Previous         Force          Change          New
	           ----------      --------        ------          ------        ------
	               R(1,2)       1.94127        0.00117        0.00018       1.94145
	-------------------------------------------------------------------------------

	                                 ==> Convergence Check <==

	Measures of convergence in internal coordinates in au.

	Criteria marked as inactive (o), active & met (*), and active & unmet ( ).

	----------------------------------------------------------------------------------------------
	   Step    Total Energy     Delta E     Max Force     RMS Force      Max Disp      RMS Disp
	----------------------------------------------------------------------------------------------
	  Convergence Criteria     1.00e-06 *    3.00e-04 *             o    1.20e-03 *             o
	----------------------------------------------------------------------------------------------
	    14    -919.78133394   -1.11e-06      1.42e-04 *    1.42e-04 o    3.42e-04 *    3.42e-04 o  ~
	----------------------------------------------------------------------------------------------

Next Geometry in Ang
	Fragment 1 (Ang)

	   Cl  -0.0000000000   0.9707234098   0.0000000000
	   Cl   0.0000000000  -0.9707234098   0.0000000000

    Final optimized geometry and variables:
    Molecular point group: d2h
    Full point group: D_inf_h

    Geometry (in Angstrom), charge = -1, multiplicity = 4:

    CL          -0.000000000000     0.970633020278     0.000000000000
    CL           0.000000000000    -0.970633020278     0.000000000000

    Psi4 stopped on: Thursday, 17 July 2025 12:10PM
    Psi4 wall time for execution: 0:00:19.32

*** Psi4 exiting successfully. Buy a developer a beer!
