                               Psi4 1.9.1 release

  ==> Input File <==

--------------------------------------------------------------------------
molecule {
-1 4
Si   0.00000        0.60000        0.00000
Ar   0.00000       -0.60000        0.00000
}

set {
basis              cc-pvdz
reference          uks
maxiter            500
geom_maxiter       500
DAMPING_PERCENTAGE 1
guess              SAP
}

optimize('b3lyp')
--------------------------------------------------------------------------

    Molecular point group: c2v
  Charge       = -1
  Multiplicity = 4
  Basis Set: CC-PVDZ
    Blend: CC-PVDZ
  Basis Set: (CC-PVDZ AUX)
    Blend: CC-PVDZ-JKFIT
  @DF-UKS Final Energy:  -815.39595457953703
    Total Energy =                       -815.3959545795370332
 Dipole X            :          0.0000000            0.0000000            0.0000000
 Dipole Y            :          0.0000000            0.0000000            0.0000000
 Dipole Z            :         -4.8868519            1.8654469           -3.0214051
 Magnitude           :                                                    3.0214051
    Molecular point group: c2v
  Basis Set: CC-PVDZ
    Blend: CC-PVDZ
  Basis Set: (CC-PVDZ AUX)
    Blend: CC-PVDZ-JKFIT
  Basis Set: CC-PVDZ
    Blend: CC-PVDZ
  Basis Set: (CC-PVDZ AUX)
    Blend: CC-PVDZ-JKFIT
  @DF-UKS Final Energy:  -815.43696768070015
    Total Energy =                       -815.4369676807001497
  Basis Set: CC-PVDZ
    Blend: CC-PVDZ
  Basis Set: (CC-PVDZ AUX)
    Blend: CC-PVDZ-JKFIT
  Basis Set: CC-PVDZ
    Blend: CC-PVDZ
  @DF-UKS Final Energy:  -815.51302993739387
    Total Energy =                       -815.5130299373938669
  @DF-UKS Final Energy:  -815.76048089082485
    Total Energy =                       -815.7604808908247378
  @DF-UKS Final Energy:  -816.29096352847034
    Total Energy =                       -816.2909635284703427
  @DF-UKS Final Energy:  -816.49249734136879
    Total Energy =                       -816.4924973413687894
  @DF-UKS Final Energy:  -816.63844455930121
    Total Energy =                       -816.6384445593012060
  @DF-UKS Final Energy:  -816.74565807081819
    Total Energy =                       -816.7456580708181946
  @DF-UKS Final Energy:  -816.83880393846425
    Total Energy =                       -816.8388039384641388
  @DF-UKS Final Energy:  -816.89624567669409
    Total Energy =                       -816.8962456766940932
  @DF-UKS Final Energy:  -816.90166532014678
    Total Energy =                       -816.9016653201467761
  @DF-UKS Final Energy:  -816.92182629981039
    Total Energy =                       -816.9218262998103910
  @DF-UKS Final Energy:  -816.94096001116827
    Total Energy =                       -816.9409600111682721
  @DF-UKS Final Energy:  -816.95057669796370
    Total Energy =                       -816.9505766979636974
  @DF-UKS Final Energy:  -816.95580847478448
    Total Energy =                       -816.9558084747845896
  @DF-UKS Final Energy:  -816.95862818603689
    Total Energy =                       -816.9586281860370036
  @DF-UKS Final Energy:  -816.96014234575728
    Total Energy =                       -816.9601423457572764
  @DF-UKS Final Energy:  -816.96092878780769
    Total Energy =                       -816.9609287878076884
  @DF-UKS Final Energy:  -816.96130949343831
    Total Energy =                       -816.9613094934381934
  @DF-UKS Final Energy:  -816.96147408800130
    Total Energy =                       -816.9614740880014097
  @DF-UKS Final Energy:  -816.96153422757652
    Total Energy =                       -816.9615342275765215
  @DF-UKS Final Energy:  -816.96155203136857
    Total Energy =                       -816.9615520313685693
  Basis Set: (CC-PVDZ AUX)
    Blend: CC-PVDZ-JKFIT
  Basis Set: CC-PVDZ
    Blend: CC-PVDZ
  Basis Set: (CC-PVDZ AUX)
    Blend: CC-PVDZ-JKFIT
  @DF-UKS Final Energy:  -816.96155516152294
    Total Energy =                       -816.9615551615229379
  Basis Set: CC-PVDZ
    Blend: CC-PVDZ
  Basis Set: (CC-PVDZ AUX)
    Blend: CC-PVDZ-JKFIT
  Charge       = -1
  Multiplicity = 4
  Basis Set: CC-PVDZ
    Blend: CC-PVDZ
  Basis Set: (CC-PVDZ AUX)
    Blend: CC-PVDZ-JKFIT

    Orbital Energies [Eh]
    ---------------------

    Alpha Occupied:

       1A1  -114.986925     2A1   -65.863675     3A1   -11.023008
       1B1    -8.572943     1B2    -8.572943     4A1    -8.572754
       5A1    -5.006380     6A1    -3.365971     2B1    -3.365966
       2B2    -3.365966     7A1    -0.851405     3B1    -0.309882
       3B2    -0.309882     8A1    -0.307438     9A1    -0.184141
      10A1     0.065640     4B1     0.065690     4B2     0.065690

    Alpha Virtual:

      11A1     0.472612    12A1     0.536073     5B1     0.543721
       5B2     0.543721    13A1     0.609202     6B1     0.609739
       6B2     0.609739     1A2     0.609785    14A1     0.609788
       7B2     0.693213     7B1     0.693213    15A1     0.713944
      16A1     0.845959     2A2     0.948005    17A1     0.948029
       8B1     0.949309     8B2     0.949309    18A1     0.950254

    Beta Occupied:

       1A1  -114.986899     2A1   -65.857037     3A1   -11.022981
       1B1    -8.572921     1B2    -8.572921     4A1    -8.572690
       5A1    -4.998968     6A1    -3.355104     2B1    -3.355089
       2B2    -3.355089     7A1    -0.851314     3B1    -0.309867
       3B2    -0.309867     8A1    -0.307394     9A1    -0.098536

    Beta Virtual:

      10A1     0.177202     4B1     0.177319     4B2     0.177319
      11A1     0.509775    12A1     0.576081     5B1     0.586300
       5B2     0.586300    13A1     0.681652     6B1     0.683100
       6B2     0.683100     1A2     0.683260    14A1     0.683264
       7B2     0.693233     7B1     0.693233    15A1     0.717387
      16A1     0.846576     2A2     0.948037    17A1     0.948061
       8B1     0.949391     8B2     0.949391    18A1     0.950394

    Final Occupation by Irrep:
             A1    A2    B1    B2
    DOCC [     9,    0,    3,    3 ]
    SOCC [     1,    0,    1,    1 ]
    NA   [    10,    0,    4,    4 ]
    NB   [     9,    0,    3,    3 ]

  @DF-UKS Final Energy:  -816.96155588856959

   => Energetics <=

    Nuclear Repulsion Energy =             27.9072864171306847
    One-Electron Energy =               -1190.9953156072795082
    Two-Electron Energy =                 387.9728337264222091
    DFT Exchange-Correlation Energy =     -41.8463604248430343
    Empirical Dispersion Energy =           0.0000000000000000
    VV10 Nonlocal Energy =                  0.0000000000000000
    Total Energy =                       -816.9615558885695918

  UHF NO Occupations:
  HONO-2 :    4 B2 1.0000000
  HONO-1 :   10 A1 1.0000000
  HONO-0 :    4 B1 1.0000000
  LUNO+0 :   11 A1 0.0000024
  LUNO+1 :   12 A1 0.0000001
  LUNO+2 :    5 B2 0.0000000
  LUNO+3 :    5 B1 0.0000000

Computation Completed

Properties will be evaluated at   0.000000,   0.000000,   0.000000 [a0]

Properties computed using the SCF density matrix

 Multipole Moments:

 ------------------------------------------------------------------------------------
     Multipole            Electronic (a.u.)      Nuclear  (a.u.)        Total (a.u.)
 ------------------------------------------------------------------------------------

 L = 1.  Multiply by 2.5417464519 to convert [e a0] to [Debye]
 Dipole X            :          0.0000000            0.0000000            0.0000000
 Dipole Y            :          0.0000000            0.0000000            0.0000000
 Dipole Z            :        -12.6834722            7.4282361           -5.2552360
 Magnitude           :                                                    5.2552360

 ------------------------------------------------------------------------------------

*** tstop() called on Joses-MacBook-Pro-2.local at Thu Jul 17 11:52:51 2025
Module time:
	user time   =       4.11 seconds =       0.07 minutes
	system time =       1.95 seconds =       0.03 minutes
	total time  =          1 seconds =       0.02 minutes
Total time:
	user time   =     258.90 seconds =       4.32 minutes
	system time =      68.63 seconds =       1.14 minutes
	total time  =         31 seconds =       0.52 minutes

*** tstart() called on Joses-MacBook-Pro-2.local
*** at Thu Jul 17 11:52:51 2025

         ------------------------------------------------------------
                                   SCF GRAD
                          Rob Parrish, Justin Turney,
                       Andy Simmonett, and Alex Sokolov
         ------------------------------------------------------------

  ==> Geometry <==

    Molecular point group: c2v
    Full point group: C_inf_v

    Geometry (in Angstrom), charge = -1, multiplicity = 4:

       Center              X                  Y                   Z               Mass
    ------------   -----------------  -----------------  -----------------  -----------------
         SI           0.000000000000     0.000000000000     2.810698833356    27.976926534650
         AR           0.000000000000     0.000000000000    -1.967718354744    39.962383123700

  Nuclear repulsion =   27.907286417130685

  ==> Basis Set <==

  Basis Set: CC-PVDZ
    Blend: CC-PVDZ
    Number of shells: 16
    Number of basis functions: 36
    Number of Cartesian functions: 38
    Spherical Harmonics?: true
    Max angular momentum: 2

  ==> DFJKGrad: Density-Fitted SCF Gradients <==

    Gradient:                    1
    J tasked:                  Yes
    K tasked:                  Yes
    wK tasked:                  No
    OpenMP threads:              1
    Integrals threads:           1
    Memory [MiB]:              375
    Schwarz Cutoff:          1E-12
    Fitting Condition:       1E-10

   => Auxiliary Basis Set <=

  Basis Set: (CC-PVDZ AUX)
    Blend: CC-PVDZ-JKFIT
    Number of shells: 72
    Number of basis functions: 224
    Number of Cartesian functions: 260
    Spherical Harmonics?: true
    Max angular momentum: 3

  ==> DFT Potential <==

   => LibXC <=

    Version 6.2.2
    S. Lehtola, C. Steigemann, M. J.T. Oliveira, and M. A.L. Marques.,  SoftwareX 7, 1â€“5 (2018) (10.1016/j.softx.2017.11.002)

   => Composite Functional: B3LYP <=

    B3LYP Hyb-GGA Exchange-Correlation Functional

    P. J. Stephens, F. J. Devlin, C. F. Chabalowski, and M. J. Frisch.,  J. Phys. Chem. 98, 11623 (1994) (10.1021/j100096a001)

    Deriv               =              1
    GGA                 =           TRUE
    Meta                =          FALSE

    Exchange Hybrid     =           TRUE
    MP2 Hybrid          =          FALSE

   => Exchange Functionals <=

    0.0800   Slater exchange
    0.7200         Becke 88

   => Exact (HF) Exchange <=

    0.2000               HF

   => Correlation Functionals <=

    0.1900   Vosko, Wilk & Nusair (VWN5_RPA)
    0.8100   Lee, Yang & Parr

   => LibXC Density Thresholds  <==

    XC_HYB_GGA_XC_B3LYP:  1.00E-15

   => Molecular Quadrature <=

    Radial Scheme          =       TREUTLER
    Pruning Scheme         =           NONE
    Nuclear Scheme         =       TREUTLER

    Blocking Scheme        =         OCTREE
    BS radius alpha        =              1
    Pruning alpha          =              1
    Radial Points          =             75
    Spherical Points       =            302
    Total Points           =          41821
    Total Blocks           =            441
    Max Points             =            253
    Max Functions          =             36
    Weights Tolerance      =       1.00E-15

  -Total Gradient:
     Atom            X                  Y                   Z
    ------   -----------------  -----------------  -----------------
       1        0.000000000000    -0.000000000000    -0.000007602237
       2        0.000000000000     0.000000000000     0.000002746645

*** tstop() called on Joses-MacBook-Pro-2.local at Thu Jul 17 11:52:51 2025
Module time:
	user time   =       2.12 seconds =       0.04 minutes
	system time =       1.24 seconds =       0.02 minutes
	total time  =          0 seconds =       0.00 minutes
Total time:
	user time   =     261.03 seconds =       4.35 minutes
	system time =      69.87 seconds =       1.16 minutes
	total time  =         31 seconds =       0.52 minutes

    			-----------------------------------------

    			 OPTKING 3.0: for geometry optimizations

    			     By R.A. King, Bethel University

    			        with contributions from

    			    A.V. Copan, J. Cayton, A. Heide

    			-----------------------------------------

	                            ===> Fragment 1 <==

	 Z (Atomic Numbers)          Masses                          Geom
	      14.000000            27.976927          0.00000000  0.00000000  5.31145102
	      18.000000            39.962383          0.00000000  0.00000000 -3.71844878

	 - Coordinate -           - BOHR/RAD -       - ANG/DEG -
	 R(1,2)           =         9.029900           4.778417

	        --- Internal Coordinate Step in ANG or DEG, aJ/ANG or AJ/DEG ---
	-------------------------------------------------------------------------------
	           Coordinate      Previous         Force          Change          New
	           ----------      --------        ------          ------        ------
	               R(1,2)       4.77842        0.00004        0.00710       4.78552
	-------------------------------------------------------------------------------

	                                 ==> Convergence Check <==

	Measures of convergence in internal coordinates in au.

	Criteria marked as inactive (o), active & met (*), and active & unmet ( ).

	----------------------------------------------------------------------------------------------
	   Step    Total Energy     Delta E     Max Force     RMS Force      Max Disp      RMS Disp
	----------------------------------------------------------------------------------------------
	  Convergence Criteria     1.00e-06 *    3.00e-04 *             o    1.20e-03 *             o
	----------------------------------------------------------------------------------------------
	    24    -816.96155589   -7.27e-07 *    5.17e-06 *    5.17e-06 o    1.34e-02      1.34e-02 o  ~
	----------------------------------------------------------------------------------------------

Next Geometry in Ang
	Fragment 1 (Ang)

	   Si   0.0000000000   0.0000000000   2.8142489772
	   Ar   0.0000000000   0.0000000000  -1.9712684986

    Final optimized geometry and variables:
    Molecular point group: c2v
    Full point group: C_inf_v

    Geometry (in Angstrom), charge = -1, multiplicity = 4:

    SI           0.000000000000     0.000000000000     2.810698833356
    AR           0.000000000000     0.000000000000    -1.967718354744

    Psi4 stopped on: Thursday, 17 July 2025 11:52AM
    Psi4 wall time for execution: 0:00:31.88

*** Psi4 exiting successfully. Buy a developer a beer!
