                               Psi4 1.9.1 release

  ==> Input File <==

--------------------------------------------------------------------------
molecule {
-1 5
F   0.00000        0.60000        0.00000
Mg   0.00000       -0.60000        0.00000
}

set {
basis              cc-pvdz
reference          uks
maxiter            500
geom_maxiter       500
DAMPING_PERCENTAGE 1
guess              SAP
}

optimize('b3lyp')
--------------------------------------------------------------------------

    Molecular point group: c2v
  Charge       = -1
  Multiplicity = 5
  Basis Set: CC-PVDZ
    Blend: CC-PVDZ
  Basis Set: (CC-PVDZ AUX)
    Blend: CC-PVDZ-JKFIT + DEF2-UNIVERSAL-JKFIT
  @DF-UKS Final Energy:  -299.23326719472533
    Total Energy =                       -299.2332671947253289
 Dipole X            :          0.0000000            0.0000000            0.0000000
 Dipole Y            :          0.0000000            0.0000000            0.0000000
 Dipole Z            :          2.6824615           -0.6391737            2.0432878
 Magnitude           :                                                    2.0432878
    Molecular point group: c2v
  Basis Set: CC-PVDZ
    Blend: CC-PVDZ
  Basis Set: (CC-PVDZ AUX)
    Blend: CC-PVDZ-JKFIT + DEF2-UNIVERSAL-JKFIT
  Basis Set: CC-PVDZ
    Blend: CC-PVDZ
  Basis Set: (CC-PVDZ AUX)
    Blend: CC-PVDZ-JKFIT + DEF2-UNIVERSAL-JKFIT
  @DF-UKS Final Energy:  -299.43078338311454
    Total Energy =                       -299.4307833831145444
  Basis Set: CC-PVDZ
    Blend: CC-PVDZ
  Basis Set: (CC-PVDZ AUX)
    Blend: CC-PVDZ-JKFIT + DEF2-UNIVERSAL-JKFIT
  Basis Set: CC-PVDZ
    Blend: CC-PVDZ
  @DF-UKS Final Energy:  -299.54743084062278
    Total Energy =                       -299.5474308406227806
  @DF-UKS Final Energy:  -299.61243481695976
    Total Energy =                       -299.6124348169597624
  @DF-UKS Final Energy:  -299.64988906665604
    Total Energy =                       -299.6498890666561010
  @DF-UKS Final Energy:  -299.67294278799227
    Total Energy =                       -299.6729427879922696
  @DF-UKS Final Energy:  -299.68787995237398
    Total Energy =                       -299.6878799523739758
  @DF-UKS Final Energy:  -299.69800306953368
    Total Energy =                       -299.6980030695336836
  @DF-UKS Final Energy:  -299.70479878518279
    Total Energy =                       -299.7047987851827884
  @DF-UKS Final Energy:  -299.70902040763588
    Total Energy =                       -299.7090204076358759
  @DF-UKS Final Energy:  -299.70913412498487
    Total Energy =                       -299.7091341249848711
  @DF-UKS Final Energy:  -299.71174551167940
    Total Energy =                       -299.7117455116793963
  @DF-UKS Final Energy:  -299.71178012658868
    Total Energy =                       -299.7117801265886783
  @DF-UKS Final Energy:  -299.71310112853359
    Total Energy =                       -299.7131011285335944
  @DF-UKS Final Energy:  -299.71311136209329
    Total Energy =                       -299.7131113620932297
  @DF-UKS Final Energy:  -299.71312145950156
    Total Energy =                       -299.7131214595016218
  @DF-UKS Final Energy:  -299.71376367219818
    Total Energy =                       -299.7137636721981835
  @DF-UKS Final Energy:  -299.71376632210666
    Total Energy =                       -299.7137663221066646
  @DF-UKS Final Energy:  -299.71376895679981
    Total Energy =                       -299.7137689567998109
  @DF-UKS Final Energy:  -299.71377156664067
    Total Energy =                       -299.7137715666406734
  @DF-UKS Final Energy:  -299.71404618668970
    Total Energy =                       -299.7140461866896999
  @DF-UKS Final Energy:  -299.71413656081614
    Total Energy =                       -299.7141365608161436
  @DF-UKS Final Energy:  -299.71417097914184
    Total Energy =                       -299.7141709791419544
  Basis Set: (CC-PVDZ AUX)
    Blend: CC-PVDZ-JKFIT + DEF2-UNIVERSAL-JKFIT
  Basis Set: CC-PVDZ
    Blend: CC-PVDZ
  Basis Set: (CC-PVDZ AUX)
    Blend: CC-PVDZ-JKFIT + DEF2-UNIVERSAL-JKFIT
  @DF-UKS Final Energy:  -299.71417851798657
    Total Energy =                       -299.7141785179865678
  Basis Set: CC-PVDZ
    Blend: CC-PVDZ
  Basis Set: (CC-PVDZ AUX)
    Blend: CC-PVDZ-JKFIT + DEF2-UNIVERSAL-JKFIT
  Charge       = -1
  Multiplicity = 5
  Basis Set: CC-PVDZ
    Blend: CC-PVDZ
  Basis Set: (CC-PVDZ AUX)
    Blend: CC-PVDZ-JKFIT + DEF2-UNIVERSAL-JKFIT

    Orbital Energies [Eh]
    ---------------------

    Alpha Occupied:

       1A1   -46.679746     2A1   -24.679781     3A1    -2.958871
       4A1    -1.704009     1B2    -1.701572     1B1    -1.701572
       5A1    -1.109533     6A1    -0.436688     2B2    -0.347665
       2B1    -0.347665     7A1    -0.063468     3B2     0.062570
       3B1     0.062570

    Alpha Virtual:

       8A1     0.104242     9A1     0.230563     4B2     0.294926
       4B1     0.294926    10A1     0.303701    11A1     0.462192
       1A2     0.462193     5B1     0.464935     5B2     0.464935
      12A1     0.470494    13A1     1.152210     6B2     1.193701
       6B1     1.193701    14A1     1.549216    15A1     3.541247
       7B1     3.562950     7B2     3.562950     2A2     3.632080
      16A1     3.632290

    Beta Occupied:

       1A1   -46.675594     2A1   -24.649103     3A1    -2.952061
       4A1    -1.700103     1B2    -1.694835     1B1    -1.694835
       5A1    -1.018728     2B2    -0.316289     2B1    -0.316289

    Beta Virtual:

       6A1    -0.143670     7A1     0.050893     8A1     0.148530
       3B1     0.164235     3B2     0.164235     9A1     0.269337
      10A1     0.329054     4B2     0.344860     4B1     0.344860
      11A1     0.514827     5B2     0.520471     5B1     0.520471
      12A1     0.537597     1A2     0.537597     6B2     1.211625
       6B1     1.211625    13A1     1.262489    14A1     1.596846
       2A2     3.647277    15A1     3.647472     7B1     3.657980
       7B2     3.657980    16A1     3.677636

    Final Occupation by Irrep:
             A1    A2    B1    B2
    DOCC [     5,    0,    2,    2 ]
    SOCC [     2,    0,    1,    1 ]
    NA   [     7,    0,    3,    3 ]
    NB   [     5,    0,    2,    2 ]

  @DF-UKS Final Energy:  -299.71417942804590

   => Energetics <=

    Nuclear Repulsion Energy =             12.7095816107572226
    One-Electron Energy =                -446.6620903875174236
    Two-Electron Energy =                 155.9944043986847646
    DFT Exchange-Correlation Energy =     -21.7560750499704625
    Empirical Dispersion Energy =           0.0000000000000000
    VV10 Nonlocal Energy =                  0.0000000000000000
    Total Energy =                       -299.7141794280458953

  UHF NO Occupations:
  HONO-2 :    3 B2 1.0000000
  HONO-1 :    3 B1 1.0000000
  HONO-0 :    7 A1 1.0000000
  LUNO+0 :    8 A1 0.0003086
  LUNO+1 :    4 B1 0.0000557
  LUNO+2 :    4 B2 0.0000557
  LUNO+3 :    9 A1 0.0000004

Computation Completed

Properties will be evaluated at   0.000000,   0.000000,   0.000000 [a0]

Properties computed using the SCF density matrix

 Multipole Moments:

 ------------------------------------------------------------------------------------
     Multipole            Electronic (a.u.)      Nuclear  (a.u.)        Total (a.u.)
 ------------------------------------------------------------------------------------

 L = 1.  Multiply by 2.5417464519 to convert [e a0] to [Debye]
 Dipole X            :          0.0000000            0.0000000            0.0000000
 Dipole Y            :          0.0000000            0.0000000            0.0000000
 Dipole Z            :          6.1378219           -2.3951421            3.7426797
 Magnitude           :                                                    3.7426797

 ------------------------------------------------------------------------------------

*** tstop() called on Joses-MacBook-Pro-2.local at Thu Jul 17 10:52:16 2025
Module time:
	user time   =       2.06 seconds =       0.03 minutes
	system time =       3.36 seconds =       0.06 minutes
	total time  =          0 seconds =       0.00 minutes
Total time:
	user time   =     107.54 seconds =       1.79 minutes
	system time =     128.38 seconds =       2.14 minutes
	total time  =         24 seconds =       0.40 minutes

*** tstart() called on Joses-MacBook-Pro-2.local
*** at Thu Jul 17 10:52:16 2025

         ------------------------------------------------------------
                                   SCF GRAD
                          Rob Parrish, Justin Turney,
                       Andy Simmonett, and Alex Sokolov
         ------------------------------------------------------------

  ==> Geometry <==

    Molecular point group: c2v
    Full point group: C_inf_v

    Geometry (in Angstrom), charge = -1, multiplicity = 5:

       Center              X                  Y                   Z               Mass
    ------------   -----------------  -----------------  -----------------  -----------------
         F            0.000000000000     0.000000000000     2.509186217124    18.998403162730
         MG           0.000000000000     0.000000000000    -1.987510881386    23.985041697000

  Nuclear repulsion =   12.709581610757223

  ==> Basis Set <==

  Basis Set: CC-PVDZ
    Blend: CC-PVDZ
    Number of shells: 14
    Number of basis functions: 32
    Number of Cartesian functions: 34
    Spherical Harmonics?: true
    Max angular momentum: 2

  ==> DFJKGrad: Density-Fitted SCF Gradients <==

    Gradient:                    1
    J tasked:                  Yes
    K tasked:                  Yes
    wK tasked:                  No
    OpenMP threads:              1
    Integrals threads:           1
    Memory [MiB]:              375
    Schwarz Cutoff:          1E-12
    Fitting Condition:       1E-10

   => Auxiliary Basis Set <=

  Basis Set: (CC-PVDZ AUX)
    Blend: CC-PVDZ-JKFIT + DEF2-UNIVERSAL-JKFIT
    Number of shells: 58
    Number of basis functions: 182
    Number of Cartesian functions: 218
    Spherical Harmonics?: true
    Max angular momentum: 4

  ==> DFT Potential <==

   => LibXC <=

    Version 6.2.2
    S. Lehtola, C. Steigemann, M. J.T. Oliveira, and M. A.L. Marques.,  SoftwareX 7, 1â€“5 (2018) (10.1016/j.softx.2017.11.002)

   => Composite Functional: B3LYP <=

    B3LYP Hyb-GGA Exchange-Correlation Functional

    P. J. Stephens, F. J. Devlin, C. F. Chabalowski, and M. J. Frisch.,  J. Phys. Chem. 98, 11623 (1994) (10.1021/j100096a001)

    Deriv               =              1
    GGA                 =           TRUE
    Meta                =          FALSE

    Exchange Hybrid     =           TRUE
    MP2 Hybrid          =          FALSE

   => Exchange Functionals <=

    0.0800   Slater exchange
    0.7200         Becke 88

   => Exact (HF) Exchange <=

    0.2000               HF

   => Correlation Functionals <=

    0.1900   Vosko, Wilk & Nusair (VWN5_RPA)
    0.8100   Lee, Yang & Parr

   => LibXC Density Thresholds  <==

    XC_HYB_GGA_XC_B3LYP:  1.00E-15

   => Molecular Quadrature <=

    Radial Scheme          =       TREUTLER
    Pruning Scheme         =           NONE
    Nuclear Scheme         =       TREUTLER

    Blocking Scheme        =         OCTREE
    BS radius alpha        =              1
    Pruning alpha          =              1
    Radial Points          =             75
    Spherical Points       =            302
    Total Points           =          43595
    Total Blocks           =            434
    Max Points             =            252
    Max Functions          =             32
    Weights Tolerance      =       1.00E-15

  -Total Gradient:
     Atom            X                  Y                   Z
    ------   -----------------  -----------------  -----------------
       1        0.000000000000     0.000000000000     0.000036530544
       2        0.000000000000     0.000000000000     0.000045760470

*** tstop() called on Joses-MacBook-Pro-2.local at Thu Jul 17 10:52:16 2025
Module time:
	user time   =       0.86 seconds =       0.01 minutes
	system time =       1.60 seconds =       0.03 minutes
	total time  =          0 seconds =       0.00 minutes
Total time:
	user time   =     108.40 seconds =       1.81 minutes
	system time =     129.98 seconds =       2.17 minutes
	total time  =         24 seconds =       0.40 minutes

    			-----------------------------------------

    			 OPTKING 3.0: for geometry optimizations

    			     By R.A. King, Bethel University

    			        with contributions from

    			    A.V. Copan, J. Cayton, A. Heide

    			-----------------------------------------

	                            ===> Fragment 1 <==

	 Z (Atomic Numbers)          Masses                          Geom
	       9.000000            18.998403          0.00000000  0.00000000  4.74167475
	      12.000000            23.985042          0.00000000  0.00000000 -3.75585124

	 - Coordinate -           - BOHR/RAD -       - ANG/DEG -
	 R(1,2)           =         8.497526           4.496697

	        --- Internal Coordinate Step in ANG or DEG, aJ/ANG or AJ/DEG ---
	-------------------------------------------------------------------------------
	           Coordinate      Previous         Force          Change          New
	           ----------      --------        ------          ------        ------
	               R(1,2)       4.49670        0.00004        0.00823       4.50493
	-------------------------------------------------------------------------------

	                                 ==> Convergence Check <==

	Measures of convergence in internal coordinates in au.

	Criteria marked as inactive (o), active & met (*), and active & unmet ( ).

	----------------------------------------------------------------------------------------------
	   Step    Total Energy     Delta E     Max Force     RMS Force      Max Disp      RMS Disp
	----------------------------------------------------------------------------------------------
	  Convergence Criteria     1.00e-06 *    3.00e-04 *             o    1.20e-03 *             o
	----------------------------------------------------------------------------------------------
	    25    -299.71417943   -9.10e-07 *    4.61e-06 *    4.61e-06 o    1.56e-02      1.56e-02 o  ~
	----------------------------------------------------------------------------------------------

Next Geometry in Ang
	Fragment 1 (Ang)

	    F   0.0000000000   0.0000000000   2.5133007594
	   Mg   0.0000000000   0.0000000000  -1.9916254237

    Final optimized geometry and variables:
    Molecular point group: c2v
    Full point group: C_inf_v

    Geometry (in Angstrom), charge = -1, multiplicity = 5:

    F            0.000000000000     0.000000000000     2.509186217124
    MG           0.000000000000     0.000000000000    -1.987510881386

    Psi4 stopped on: Thursday, 17 July 2025 10:52AM
    Psi4 wall time for execution: 0:00:24.95

*** Psi4 exiting successfully. Buy a developer a beer!
