                               Psi4 1.9.1 release

  ==> Input File <==

--------------------------------------------------------------------------
molecule {
-1 5
N   0.00000        0.60000        0.00000
Si   0.00000       -0.60000        0.00000
}

set {
basis              cc-pvdz
reference          uks
maxiter            500
geom_maxiter       500
DAMPING_PERCENTAGE 1
guess              SAP
}

optimize('b3lyp')
--------------------------------------------------------------------------

    Molecular point group: c2v
  Charge       = -1
  Multiplicity = 5
  Basis Set: CC-PVDZ
    Blend: CC-PVDZ
  Basis Set: (CC-PVDZ AUX)
    Blend: CC-PVDZ-JKFIT
  @DF-UKS Final Energy:  -343.59334201639228
    Total Energy =                       -343.5933420163922847
 Dipole X            :          0.0000000            0.0000000            0.0000000
 Dipole Y            :          0.0000000            0.0000000            0.0000000
 Dipole Z            :          0.4591728           -0.0110494            0.4481235
 Magnitude           :                                                    0.4481235
    Molecular point group: c2v
  Basis Set: CC-PVDZ
    Blend: CC-PVDZ
  Basis Set: (CC-PVDZ AUX)
    Blend: CC-PVDZ-JKFIT
  Basis Set: CC-PVDZ
    Blend: CC-PVDZ
  Basis Set: (CC-PVDZ AUX)
    Blend: CC-PVDZ-JKFIT
  @DF-UKS Final Energy:  -343.77732147227749
    Total Energy =                       -343.7773214722774924
  Basis Set: CC-PVDZ
    Blend: CC-PVDZ
  Basis Set: (CC-PVDZ AUX)
    Blend: CC-PVDZ-JKFIT
  Basis Set: CC-PVDZ
    Blend: CC-PVDZ
  @DF-UKS Final Energy:  -343.86093517709520
    Total Energy =                       -343.8609351770951434
  @DF-UKS Final Energy:  -343.97048650293056
    Total Energy =                       -343.9704865029304983
  @DF-UKS Final Energy:  -344.02236097205207
    Total Energy =                       -344.0223609720520699
  @DF-UKS Final Energy:  -344.03875581956288
    Total Energy =                       -344.0387558195628799
  @DF-UKS Final Energy:  -344.04108858353726
    Total Energy =                       -344.0410885835372596
  @DF-UKS Final Energy:  -344.04156218310266
    Total Energy =                       -344.0415621831026556
  @DF-UKS Final Energy:  -344.04167193837225
    Total Energy =                       -344.0416719383722466
  @DF-UKS Final Energy:  -344.04169912964795
    Total Energy =                       -344.0416991296479523
  Basis Set: (CC-PVDZ AUX)
    Blend: CC-PVDZ-JKFIT
  Basis Set: CC-PVDZ
    Blend: CC-PVDZ
  Basis Set: (CC-PVDZ AUX)
    Blend: CC-PVDZ-JKFIT
  @DF-UKS Final Energy:  -344.04170784793547
    Total Energy =                       -344.0417078479354700
  Basis Set: CC-PVDZ
    Blend: CC-PVDZ
  Basis Set: (CC-PVDZ AUX)
    Blend: CC-PVDZ-JKFIT
  Charge       = -1
  Multiplicity = 5
  Basis Set: CC-PVDZ
    Blend: CC-PVDZ
  Basis Set: (CC-PVDZ AUX)
    Blend: CC-PVDZ-JKFIT

    Orbital Energies [Eh]
    ---------------------

    Alpha Occupied:

       1A1   -65.902723     2A1   -14.119882     3A1    -5.043418
       4A1    -3.404618     1B2    -3.403428     1B1    -3.400335
       5A1    -0.529775     6A1    -0.208972     2B2    -0.083589
       7A1    -0.072232     2B1    -0.043915     3B2     0.068505
       3B1     0.084865

    Alpha Virtual:

       8A1     0.237064     9A1     0.464062     4B2     0.521167
       4B1     0.530554    10A1     0.544979     1A2     0.590460
      11A1     0.590582     5B2     0.617752     5B1     0.632073
      12A1     0.762213     6B2     0.981836    13A1     0.998720
       6B1     1.011383    14A1     1.445990    15A1     1.988168
       2A2     1.988415     7B2     2.034335     7B1     2.068494
      16A1     2.332055

    Beta Occupied:

       1A1   -65.897292     2A1   -14.083061     3A1    -5.037312
       4A1    -3.398159     1B2    -3.392438     1B1    -3.391388
       5A1    -0.410818     6A1    -0.116065     2B1     0.025378

    Beta Virtual:

       7A1     0.083645     2B2     0.108111     3B1     0.194890
       3B2     0.218542     8A1     0.287476     9A1     0.496511
       4B1     0.560211     4B2     0.561555    10A1     0.580718
       1A2     0.657748    11A1     0.658392     5B1     0.681161
       5B2     0.686655    12A1     0.812881     6B1     1.056932
      13A1     1.076475     6B2     1.076925    14A1     1.510260
       2A2     2.081835    15A1     2.087657     7B1     2.142604
       7B2     2.156169    16A1     2.422369

    Final Occupation by Irrep:
             A1    A2    B1    B2
    DOCC [     6,    0,    2,    1 ]
    SOCC [     1,    0,    1,    2 ]
    NA   [     7,    0,    3,    3 ]
    NB   [     6,    0,    2,    1 ]

  @DF-UKS Final Energy:  -344.04170848743570

   => Energetics <=

    Nuclear Repulsion Energy =             26.6637288911543351
    One-Electron Energy =                -533.5753023684275149
    Two-Electron Energy =                 185.3758094658267623
    DFT Exchange-Correlation Energy =     -22.5059444759893275
    Empirical Dispersion Energy =           0.0000000000000000
    VV10 Nonlocal Energy =                  0.0000000000000000
    Total Energy =                       -344.0417084874357556

  UHF NO Occupations:
  HONO-2 :    2 B2 1.0000000
  HONO-1 :    3 B1 1.0000000
  HONO-0 :    3 B2 1.0000000
  LUNO+0 :    4 B1 0.0017213
  LUNO+1 :    8 A1 0.0015168
  LUNO+2 :    9 A1 0.0007467
  LUNO+3 :   10 A1 0.0000002

Computation Completed

Properties will be evaluated at   0.000000,   0.000000,   0.000000 [a0]

Properties computed using the SCF density matrix

 Multipole Moments:

 ------------------------------------------------------------------------------------
     Multipole            Electronic (a.u.)      Nuclear  (a.u.)        Total (a.u.)
 ------------------------------------------------------------------------------------

 L = 1.  Multiply by 2.5417464519 to convert [e a0] to [Debye]
 Dipole X            :          0.0000000            0.0000000            0.0000000
 Dipole Y            :          0.0000000            0.0000000            0.0000000
 Dipole Z            :          0.0757058           -0.0179087            0.0577971
 Magnitude           :                                                    0.0577971

 ------------------------------------------------------------------------------------

*** tstop() called on Joses-MacBook-Pro-2.local at Thu Jul 17 10:31:36 2025
Module time:
	user time   =       2.93 seconds =       0.05 minutes
	system time =       3.57 seconds =       0.06 minutes
	total time  =          1 seconds =       0.02 minutes
Total time:
	user time   =      63.00 seconds =       1.05 minutes
	system time =      68.45 seconds =       1.14 minutes
	total time  =         13 seconds =       0.22 minutes

*** tstart() called on Joses-MacBook-Pro-2.local
*** at Thu Jul 17 10:31:36 2025

         ------------------------------------------------------------
                                   SCF GRAD
                          Rob Parrish, Justin Turney,
                       Andy Simmonett, and Alex Sokolov
         ------------------------------------------------------------

  ==> Geometry <==

    Molecular point group: c2v
    Full point group: C_inf_v

    Geometry (in Angstrom), charge = -1, multiplicity = 5:

       Center              X                  Y                   Z               Mass
    ------------   -----------------  -----------------  -----------------  -----------------
         N            0.000000000000     0.000000000000     1.296175732495    14.003074004430
         SI           0.000000000000     0.000000000000    -0.648764784166    27.976926534650

  Nuclear repulsion =   26.663728891154335

  ==> Basis Set <==

  Basis Set: CC-PVDZ
    Blend: CC-PVDZ
    Number of shells: 14
    Number of basis functions: 32
    Number of Cartesian functions: 34
    Spherical Harmonics?: true
    Max angular momentum: 2

  ==> DFJKGrad: Density-Fitted SCF Gradients <==

    Gradient:                    1
    J tasked:                  Yes
    K tasked:                  Yes
    wK tasked:                  No
    OpenMP threads:              1
    Integrals threads:           1
    Memory [MiB]:              375
    Schwarz Cutoff:          1E-12
    Fitting Condition:       1E-10

   => Auxiliary Basis Set <=

  Basis Set: (CC-PVDZ AUX)
    Blend: CC-PVDZ-JKFIT
    Number of shells: 60
    Number of basis functions: 182
    Number of Cartesian functions: 211
    Spherical Harmonics?: true
    Max angular momentum: 3

  ==> DFT Potential <==

   => LibXC <=

    Version 6.2.2
    S. Lehtola, C. Steigemann, M. J.T. Oliveira, and M. A.L. Marques.,  SoftwareX 7, 1â€“5 (2018) (10.1016/j.softx.2017.11.002)

   => Composite Functional: B3LYP <=

    B3LYP Hyb-GGA Exchange-Correlation Functional

    P. J. Stephens, F. J. Devlin, C. F. Chabalowski, and M. J. Frisch.,  J. Phys. Chem. 98, 11623 (1994) (10.1021/j100096a001)

    Deriv               =              1
    GGA                 =           TRUE
    Meta                =          FALSE

    Exchange Hybrid     =           TRUE
    MP2 Hybrid          =          FALSE

   => Exchange Functionals <=

    0.0800   Slater exchange
    0.7200         Becke 88

   => Exact (HF) Exchange <=

    0.2000               HF

   => Correlation Functionals <=

    0.1900   Vosko, Wilk & Nusair (VWN5_RPA)
    0.8100   Lee, Yang & Parr

   => LibXC Density Thresholds  <==

    XC_HYB_GGA_XC_B3LYP:  1.00E-15

   => Molecular Quadrature <=

    Radial Scheme          =       TREUTLER
    Pruning Scheme         =           NONE
    Nuclear Scheme         =       TREUTLER

    Blocking Scheme        =         OCTREE
    BS radius alpha        =              1
    Pruning alpha          =              1
    Radial Points          =             75
    Spherical Points       =            302
    Total Points           =          42688
    Total Blocks           =            393
    Max Points             =            256
    Max Functions          =             32
    Weights Tolerance      =       1.00E-15

  -Total Gradient:
     Atom            X                  Y                   Z
    ------   -----------------  -----------------  -----------------
       1        0.000000000000    -0.000000000000    -0.000058523748
       2        0.000000000000     0.000000000000     0.000044245575

*** tstop() called on Joses-MacBook-Pro-2.local at Thu Jul 17 10:31:36 2025
Module time:
	user time   =       0.80 seconds =       0.01 minutes
	system time =       1.60 seconds =       0.03 minutes
	total time  =          0 seconds =       0.00 minutes
Total time:
	user time   =      63.81 seconds =       1.06 minutes
	system time =      70.05 seconds =       1.17 minutes
	total time  =         13 seconds =       0.22 minutes

    			-----------------------------------------

    			 OPTKING 3.0: for geometry optimizations

    			     By R.A. King, Bethel University

    			        with contributions from

    			    A.V. Copan, J. Cayton, A. Heide

    			-----------------------------------------

	                            ===> Fragment 1 <==

	 Z (Atomic Numbers)          Masses                          Geom
	       7.000000            14.003074          0.00000000  0.00000000  2.44941714
	      14.000000            27.976927          0.00000000  0.00000000 -1.22598776

	 - Coordinate -           - BOHR/RAD -       - ANG/DEG -
	 R(1,2)           =         3.675405           1.944941

	        --- Internal Coordinate Step in ANG or DEG, aJ/ANG or AJ/DEG ---
	-------------------------------------------------------------------------------
	           Coordinate      Previous         Force          Change          New
	           ----------      --------        ------          ------        ------
	               R(1,2)       1.94494        0.00042        0.00027       1.94521
	-------------------------------------------------------------------------------

	                                 ==> Convergence Check <==

	Measures of convergence in internal coordinates in au.

	Criteria marked as inactive (o), active & met (*), and active & unmet ( ).

	----------------------------------------------------------------------------------------------
	   Step    Total Energy     Delta E     Max Force     RMS Force      Max Disp      RMS Disp
	----------------------------------------------------------------------------------------------
	  Convergence Criteria     1.00e-06 *    3.00e-04 *             o    1.20e-03 *             o
	----------------------------------------------------------------------------------------------
	    12    -344.04170849   -6.40e-07 *    5.14e-05 *    5.14e-05 o    5.02e-04 *    5.02e-04 o  ~
	----------------------------------------------------------------------------------------------

Next Geometry in Ang
	Fragment 1 (Ang)

	    N   0.0000000000   0.0000000000   1.2963084390
	   Si   0.0000000000   0.0000000000  -0.6488974907

    Final optimized geometry and variables:
    Molecular point group: c2v
    Full point group: C_inf_v

    Geometry (in Angstrom), charge = -1, multiplicity = 5:

    N            0.000000000000     0.000000000000     1.296175732495
    SI           0.000000000000     0.000000000000    -0.648764784166

    Psi4 stopped on: Thursday, 17 July 2025 10:31AM
    Psi4 wall time for execution: 0:00:13.37

*** Psi4 exiting successfully. Buy a developer a beer!
