                               Psi4 1.9.1 release

  ==> Input File <==

--------------------------------------------------------------------------
molecule {
-1 5
B   0.00000        0.60000        0.00000
Mg   0.00000       -0.60000        0.00000
}

set {
basis              cc-pvdz
reference          uks
maxiter            500
geom_maxiter       500
DAMPING_PERCENTAGE 1
guess              SAP
}

optimize('b3lyp')
--------------------------------------------------------------------------

    Molecular point group: c2v
  Charge       = -1
  Multiplicity = 5
  Basis Set: CC-PVDZ
    Blend: CC-PVDZ
  Basis Set: (CC-PVDZ AUX)
    Blend: CC-PVDZ-JKFIT + DEF2-UNIVERSAL-JKFIT
  @DF-UKS Final Energy:  -224.23481759291528
    Total Energy =                       -224.2348175929152774
 Dipole X            :          0.0000000            0.0000000            0.0000000
 Dipole Y            :          0.0000000            0.0000000            0.0000000
 Dipole Z            :          0.8890784           -0.7896955            0.0993829
 Magnitude           :                                                    0.0993829
    Molecular point group: c2v
  Basis Set: CC-PVDZ
    Blend: CC-PVDZ
  Basis Set: (CC-PVDZ AUX)
    Blend: CC-PVDZ-JKFIT + DEF2-UNIVERSAL-JKFIT
  Basis Set: CC-PVDZ
    Blend: CC-PVDZ
  Basis Set: (CC-PVDZ AUX)
    Blend: CC-PVDZ-JKFIT + DEF2-UNIVERSAL-JKFIT
  @DF-UKS Final Energy:  -224.41523844756804
    Total Energy =                       -224.4152384475680435
  Basis Set: CC-PVDZ
    Blend: CC-PVDZ
  Basis Set: (CC-PVDZ AUX)
    Blend: CC-PVDZ-JKFIT + DEF2-UNIVERSAL-JKFIT
  Basis Set: CC-PVDZ
    Blend: CC-PVDZ
  @DF-UKS Final Energy:  -224.58476163951468
    Total Energy =                       -224.5847616395146815
  @DF-UKS Final Energy:  -224.69552713553401
    Total Energy =                       -224.6955271355340074
  @DF-UKS Final Energy:  -224.74367341292717
    Total Energy =                       -224.7436734129271940
  @DF-UKS Final Energy:  -224.76152647472585
    Total Energy =                       -224.7615264747258834
  @DF-UKS Final Energy:  -224.76711150568829
    Total Energy =                       -224.7671115056883195
  @DF-UKS Final Energy:  -224.76807489789155
    Total Energy =                       -224.7680748978915801
  @DF-UKS Final Energy:  -224.76828732573219
    Total Energy =                       -224.7682873257321887
  @DF-UKS Final Energy:  -224.76830498127347
    Total Energy =                       -224.7683049812734737
  Basis Set: (CC-PVDZ AUX)
    Blend: CC-PVDZ-JKFIT + DEF2-UNIVERSAL-JKFIT
  Basis Set: CC-PVDZ
    Blend: CC-PVDZ
  Basis Set: (CC-PVDZ AUX)
    Blend: CC-PVDZ-JKFIT + DEF2-UNIVERSAL-JKFIT
  @DF-UKS Final Energy:  -224.76830649681796
    Total Energy =                       -224.7683064968179849
  Basis Set: CC-PVDZ
    Blend: CC-PVDZ
  Basis Set: (CC-PVDZ AUX)
    Blend: CC-PVDZ-JKFIT + DEF2-UNIVERSAL-JKFIT
  Charge       = -1
  Multiplicity = 5
  Basis Set: CC-PVDZ
    Blend: CC-PVDZ
  Basis Set: (CC-PVDZ AUX)
    Blend: CC-PVDZ-JKFIT + DEF2-UNIVERSAL-JKFIT

    Orbital Energies [Eh]
    ---------------------

    Alpha Occupied:

       1A1   -46.641096     2A1    -6.573346     3A1    -2.926872
       1B2    -1.671135     1B1    -1.671135     4A1    -1.668926
       5A1    -0.204289     6A1    -0.045282     7A1     0.030957
       2B2     0.031879     2B1     0.031879

    Alpha Virtual:

       3B1     0.141167     3B2     0.141167     8A1     0.178402
       9A1     0.240800     4B2     0.305828     4B1     0.305828
      10A1     0.402681    11A1     0.432067     1A2     0.475939
      12A1     0.475939     5B2     0.518376     5B1     0.518376
       6B2     0.521253     6B1     0.521253    13A1     0.722427
      14A1     0.811260     2A2     0.926410    15A1     0.926411
       7B1     1.063775     7B2     1.063775    16A1     1.277743

    Beta Occupied:

       1A1   -46.637756     2A1    -6.555724     3A1    -2.921550
       1B2    -1.666689     1B1    -1.666689     4A1    -1.662948
       5A1    -0.118178

    Beta Virtual:

       6A1     0.064682     2B1     0.120406     2B2     0.120406
       7A1     0.153897     3B1     0.198978     3B2     0.198978
       8A1     0.205028     9A1     0.274663     4B2     0.334878
       4B1     0.334878    10A1     0.450832    11A1     0.478547
      12A1     0.515555     1A2     0.515556     5B1     0.559179
       5B2     0.559179     6B2     0.575517     6B1     0.575517
      13A1     0.777121    14A1     0.860354     2A2     0.989652
      15A1     0.989654     7B1     1.132763     7B2     1.132763
      16A1     1.339136

    Final Occupation by Irrep:
             A1    A2    B1    B2
    DOCC [     5,    0,    1,    1 ]
    SOCC [     2,    0,    1,    1 ]
    NA   [     7,    0,    2,    2 ]
    NB   [     5,    0,    1,    1 ]

  @DF-UKS Final Energy:  -224.76830663132753

   => Energetics <=

    Nuclear Repulsion Energy =             14.7203721037004414
    One-Electron Energy =                -344.5482159093207315
    Two-Electron Energy =                 121.6830321340172389
    DFT Exchange-Correlation Energy =     -16.6234949597244324
    Empirical Dispersion Energy =           0.0000000000000000
    VV10 Nonlocal Energy =                  0.0000000000000000
    Total Energy =                       -224.7683066313275049

  UHF NO Occupations:
  HONO-2 :    2 B1 1.0000000
  HONO-1 :    7 A1 1.0000000
  HONO-0 :    2 B2 1.0000000
  LUNO+0 :    8 A1 0.0009029
  LUNO+1 :    3 B1 0.0000002
  LUNO+2 :    3 B2 0.0000002
  LUNO+3 :    9 A1 0.0000002

Computation Completed

Properties will be evaluated at   0.000000,   0.000000,   0.000000 [a0]

Properties computed using the SCF density matrix

 Multipole Moments:

 ------------------------------------------------------------------------------------
     Multipole            Electronic (a.u.)      Nuclear  (a.u.)        Total (a.u.)
 ------------------------------------------------------------------------------------

 L = 1.  Multiply by 2.5417464519 to convert [e a0] to [Debye]
 Dipole X            :          0.0000000            0.0000000            0.0000000
 Dipole Y            :          0.0000000            0.0000000            0.0000000
 Dipole Z            :          0.7312069           -1.4194235           -0.6882166
 Magnitude           :                                                    0.6882166

 ------------------------------------------------------------------------------------

*** tstop() called on Joses-MacBook-Pro-2.local at Thu Jul 17 09:53:14 2025
Module time:
	user time   =       3.46 seconds =       0.06 minutes
	system time =       3.40 seconds =       0.06 minutes
	total time  =          1 seconds =       0.02 minutes
Total time:
	user time   =      57.61 seconds =       0.96 minutes
	system time =      70.56 seconds =       1.18 minutes
	total time  =         13 seconds =       0.22 minutes

*** tstart() called on Joses-MacBook-Pro-2.local
*** at Thu Jul 17 09:53:14 2025

         ------------------------------------------------------------
                                   SCF GRAD
                          Rob Parrish, Justin Turney,
                       Andy Simmonett, and Alex Sokolov
         ------------------------------------------------------------

  ==> Geometry <==

    Molecular point group: c2v
    Full point group: C_inf_v

    Geometry (in Angstrom), charge = -1, multiplicity = 5:

       Center              X                  Y                   Z               Mass
    ------------   -----------------  -----------------  -----------------  -----------------
         B            0.000000000000     0.000000000000     1.478346297758    11.009305360000
         MG           0.000000000000     0.000000000000    -0.678571504084    23.985041697000

  Nuclear repulsion =   14.720372103700441

  ==> Basis Set <==

  Basis Set: CC-PVDZ
    Blend: CC-PVDZ
    Number of shells: 14
    Number of basis functions: 32
    Number of Cartesian functions: 34
    Spherical Harmonics?: true
    Max angular momentum: 2

  ==> DFJKGrad: Density-Fitted SCF Gradients <==

    Gradient:                    1
    J tasked:                  Yes
    K tasked:                  Yes
    wK tasked:                  No
    OpenMP threads:              1
    Integrals threads:           1
    Memory [MiB]:              375
    Schwarz Cutoff:          1E-12
    Fitting Condition:       1E-10

   => Auxiliary Basis Set <=

  Basis Set: (CC-PVDZ AUX)
    Blend: CC-PVDZ-JKFIT + DEF2-UNIVERSAL-JKFIT
    Number of shells: 58
    Number of basis functions: 182
    Number of Cartesian functions: 218
    Spherical Harmonics?: true
    Max angular momentum: 4

  ==> DFT Potential <==

   => LibXC <=

    Version 6.2.2
    S. Lehtola, C. Steigemann, M. J.T. Oliveira, and M. A.L. Marques.,  SoftwareX 7, 1â€“5 (2018) (10.1016/j.softx.2017.11.002)

   => Composite Functional: B3LYP <=

    B3LYP Hyb-GGA Exchange-Correlation Functional

    P. J. Stephens, F. J. Devlin, C. F. Chabalowski, and M. J. Frisch.,  J. Phys. Chem. 98, 11623 (1994) (10.1021/j100096a001)

    Deriv               =              1
    GGA                 =           TRUE
    Meta                =          FALSE

    Exchange Hybrid     =           TRUE
    MP2 Hybrid          =          FALSE

   => Exchange Functionals <=

    0.0800   Slater exchange
    0.7200         Becke 88

   => Exact (HF) Exchange <=

    0.2000               HF

   => Correlation Functionals <=

    0.1900   Vosko, Wilk & Nusair (VWN5_RPA)
    0.8100   Lee, Yang & Parr

   => LibXC Density Thresholds  <==

    XC_HYB_GGA_XC_B3LYP:  1.00E-15

   => Molecular Quadrature <=

    Radial Scheme          =       TREUTLER
    Pruning Scheme         =           NONE
    Nuclear Scheme         =       TREUTLER

    Blocking Scheme        =         OCTREE
    BS radius alpha        =              1
    Pruning alpha          =              1
    Radial Points          =             75
    Spherical Points       =            302
    Total Points           =          43267
    Total Blocks           =            415
    Max Points             =            256
    Max Functions          =             32
    Weights Tolerance      =       1.00E-15

  -Total Gradient:
     Atom            X                  Y                   Z
    ------   -----------------  -----------------  -----------------
       1        0.000000000000     0.000000000000    -0.000029529596
       2        0.000000000000     0.000000000000     0.000017736757

*** tstop() called on Joses-MacBook-Pro-2.local at Thu Jul 17 09:53:14 2025
Module time:
	user time   =       0.70 seconds =       0.01 minutes
	system time =       2.14 seconds =       0.04 minutes
	total time  =          0 seconds =       0.00 minutes
Total time:
	user time   =      58.31 seconds =       0.97 minutes
	system time =      72.71 seconds =       1.21 minutes
	total time  =         13 seconds =       0.22 minutes

    			-----------------------------------------

    			 OPTKING 3.0: for geometry optimizations

    			     By R.A. King, Bethel University

    			        with contributions from

    			    A.V. Copan, J. Cayton, A. Heide

    			-----------------------------------------

	                            ===> Fragment 1 <==

	 Z (Atomic Numbers)          Masses                          Geom
	       5.000000            11.009305          0.00000000  0.00000000  2.79366962
	      12.000000            23.985042          0.00000000  0.00000000 -1.28231430

	 - Coordinate -           - BOHR/RAD -       - ANG/DEG -
	 R(1,2)           =         4.075984           2.156918

	        --- Internal Coordinate Step in ANG or DEG, aJ/ANG or AJ/DEG ---
	-------------------------------------------------------------------------------
	           Coordinate      Previous         Force          Change          New
	           ----------      --------        ------          ------        ------
	               R(1,2)       2.15692        0.00019        0.00013       2.15705
	-------------------------------------------------------------------------------

	                                 ==> Convergence Check <==

	Measures of convergence in internal coordinates in au.

	Criteria marked as inactive (o), active & met (*), and active & unmet ( ).

	----------------------------------------------------------------------------------------------
	   Step    Total Energy     Delta E     Max Force     RMS Force      Max Disp      RMS Disp
	----------------------------------------------------------------------------------------------
	  Convergence Criteria     1.00e-06 *    3.00e-04 *             o    1.20e-03 *             o
	----------------------------------------------------------------------------------------------
	    12    -224.76830663   -1.35e-07 *    2.36e-05 *    2.36e-05 o    2.55e-04 *    2.55e-04 o  ~
	----------------------------------------------------------------------------------------------

Next Geometry in Ang
	Fragment 1 (Ang)

	    B   0.0000000000   0.0000000000   1.4784137564
	   Mg   0.0000000000   0.0000000000  -0.6786389627

    Final optimized geometry and variables:
    Molecular point group: c2v
    Full point group: C_inf_v

    Geometry (in Angstrom), charge = -1, multiplicity = 5:

    B            0.000000000000     0.000000000000     1.478346297758
    MG           0.000000000000     0.000000000000    -0.678571504084

    Psi4 stopped on: Thursday, 17 July 2025 09:53AM
    Psi4 wall time for execution: 0:00:13.56

*** Psi4 exiting successfully. Buy a developer a beer!
