                               Psi4 1.9.1 release

  ==> Input File <==

--------------------------------------------------------------------------
molecule {
-1 5
Mg   0.00000        0.60000        0.00000
Cl   0.00000       -0.60000        0.00000
}

set {
basis              cc-pvdz
reference          uks
maxiter            500
geom_maxiter       500
DAMPING_PERCENTAGE 1
guess              SAP
}

optimize('b3lyp')
--------------------------------------------------------------------------

    Molecular point group: c2v
  Charge       = -1
  Multiplicity = 5
  Basis Set: CC-PVDZ
    Blend: CC-PVDZ
  Basis Set: (CC-PVDZ AUX)
    Blend: CC-PVDZ-JKFIT + DEF2-UNIVERSAL-JKFIT
  @DF-UKS Final Energy:  -658.90876909467033
    Total Energy =                       -658.9087690946703333
 Dipole X            :          0.0000000            0.0000000            0.0000000
 Dipole Y            :          0.0000000            0.0000000            0.0000000
 Dipole Z            :         -3.6641605            0.4569863           -3.2071742
 Magnitude           :                                                    3.2071742
    Molecular point group: c2v
  Basis Set: CC-PVDZ
    Blend: CC-PVDZ
  Basis Set: (CC-PVDZ AUX)
    Blend: CC-PVDZ-JKFIT + DEF2-UNIVERSAL-JKFIT
  Basis Set: CC-PVDZ
    Blend: CC-PVDZ
  Basis Set: (CC-PVDZ AUX)
    Blend: CC-PVDZ-JKFIT + DEF2-UNIVERSAL-JKFIT
  @DF-UKS Final Energy:  -658.93053263505135
    Total Energy =                       -658.9305326350513496
  Basis Set: CC-PVDZ
    Blend: CC-PVDZ
  Basis Set: (CC-PVDZ AUX)
    Blend: CC-PVDZ-JKFIT + DEF2-UNIVERSAL-JKFIT
  Basis Set: CC-PVDZ
    Blend: CC-PVDZ
  @DF-UKS Final Energy:  -658.97214341799838
    Total Energy =                       -658.9721434179982680
  @DF-UKS Final Energy:  -659.11891276168740
    Total Energy =                       -659.1189127616873975
  @DF-UKS Final Energy:  -659.64757044949533
    Total Energy =                       -659.6475704494953334
  @DF-UKS Final Energy:  -659.84207675871710
    Total Energy =                       -659.8420767587170985
  @DF-UKS Final Energy:  -659.96191781503853
    Total Energy =                       -659.9619178150385324
  @DF-UKS Final Energy:  -660.03254600047876
    Total Energy =                       -660.0325460004787601
  @DF-UKS Final Energy:  -660.07484760081752
    Total Energy =                       -660.0748476008175203
  @DF-UKS Final Energy:  -660.10136809311894
    Total Energy =                       -660.1013680931189356
  @DF-UKS Final Energy:  -660.11877883665193
    Total Energy =                       -660.1187788366519271
  @DF-UKS Final Energy:  -660.13017981100666
    Total Energy =                       -660.1301798110065420
  @DF-UKS Final Energy:  -660.13062036205065
    Total Energy =                       -660.1306203620507631
  @DF-UKS Final Energy:  -660.13824640197788
    Total Energy =                       -660.1382464019778809
  @DF-UKS Final Energy:  -660.13839014400730
    Total Energy =                       -660.1383901440073032
  @DF-UKS Final Energy:  -660.14235278230126
    Total Energy =                       -660.1423527823012591
  @DF-UKS Final Energy:  -660.14239766531773
    Total Energy =                       -660.1423976653176169
  @DF-UKS Final Energy:  -660.14440758740909
    Total Energy =                       -660.1444075874090913
  @DF-UKS Final Energy:  -660.14442091843671
    Total Energy =                       -660.1444209184367082
  @DF-UKS Final Energy:  -660.14443409598630
    Total Energy =                       -660.1444340959862984
  @DF-UKS Final Energy:  -660.14541872113887
    Total Energy =                       -660.1454187211387534
  @DF-UKS Final Energy:  -660.14542242811456
    Total Energy =                       -660.1454224281146708
  @DF-UKS Final Energy:  -660.14542611014804
    Total Energy =                       -660.1454261101480370
  @DF-UKS Final Energy:  -660.14542976594851
    Total Energy =                       -660.1454297659483927
  @DF-UKS Final Energy:  -660.14590356644089
    Total Energy =                       -660.1459035664408930
  @DF-UKS Final Energy:  -660.14590452494406
    Total Energy =                       -660.1459045249440578
  @DF-UKS Final Energy:  -660.14590547856915
    Total Energy =                       -660.1459054785691478
  @DF-UKS Final Energy:  -660.14590642830512
    Total Energy =                       -660.1459064283051248
  @DF-UKS Final Energy:  -660.14590737407468
    Total Energy =                       -660.1459073740746817
  @DF-UKS Final Energy:  -660.14590831603505
    Total Energy =                       -660.1459083160350474
  @DF-UKS Final Energy:  -660.14590925408754
    Total Energy =                       -660.1459092540874281
  Basis Set: (CC-PVDZ AUX)
    Blend: CC-PVDZ-JKFIT + DEF2-UNIVERSAL-JKFIT
  Basis Set: CC-PVDZ
    Blend: CC-PVDZ
  Basis Set: (CC-PVDZ AUX)
    Blend: CC-PVDZ-JKFIT + DEF2-UNIVERSAL-JKFIT
  @DF-UKS Final Energy:  -660.14591018839280
    Total Energy =                       -660.1459101883928042
  Basis Set: CC-PVDZ
    Blend: CC-PVDZ
  Basis Set: (CC-PVDZ AUX)
    Blend: CC-PVDZ-JKFIT + DEF2-UNIVERSAL-JKFIT
  Charge       = -1
  Multiplicity = 5
  Basis Set: CC-PVDZ
    Blend: CC-PVDZ
  Basis Set: (CC-PVDZ AUX)
    Blend: CC-PVDZ-JKFIT + DEF2-UNIVERSAL-JKFIT

    Orbital Energies [Eh]
    ---------------------

    Alpha Occupied:

       1A1  -101.494450     2A1   -46.680706     3A1    -9.408448
       4A1    -7.182239     1B1    -7.158667     1B2    -7.158667
       5A1    -2.959862     6A1    -1.705017     2B1    -1.702556
       2B2    -1.702556     7A1    -0.745701     8A1    -0.307195
       3B1    -0.252622     3B2    -0.252622     9A1    -0.064670
       4B2     0.061621     4B1     0.061621

    Alpha Virtual:

      10A1     0.102847    11A1     0.229438     5B1     0.293923
       5B2     0.293923    12A1     0.302025    13A1     0.461125
       1A2     0.461125     6B2     0.463542     6B1     0.463542
      14A1     0.466579    15A1     0.611114     7B2     0.628261
       7B1     0.628261    16A1     0.709777    17A1     0.756570
       8B1     0.764965     8B2     0.764965     2A2     0.808327
      18A1     0.808348

    Beta Occupied:

       1A1  -101.487699     2A1   -46.676546     3A1    -9.401776
       4A1    -7.160273     1B1    -7.154645     1B2    -7.154645
       5A1    -2.953042     6A1    -1.701106     2B1    -1.695803
       2B2    -1.695803     7A1    -0.692300     3B1    -0.236682
       3B2    -0.236682

    Beta Virtual:

       8A1    -0.145787     9A1     0.050470    10A1     0.147682
       4B2     0.164203     4B1     0.164203    11A1     0.268146
      12A1     0.326898     5B2     0.343720     5B1     0.343720
      13A1     0.511902     6B1     0.519845     6B2     0.519845
       1A2     0.536803    14A1     0.536804     7B2     0.635507
       7B1     0.635507    15A1     0.652309    16A1     0.738233
       2A2     0.816710    17A1     0.816728     8B1     0.822694
       8B2     0.822694    18A1     0.833791

    Final Occupation by Irrep:
             A1    A2    B1    B2
    DOCC [     7,    0,    3,    3 ]
    SOCC [     2,    0,    1,    1 ]
    NA   [     9,    0,    4,    4 ]
    NB   [     7,    0,    3,    3 ]

  @DF-UKS Final Energy:  -660.14612767367271

   => Energetics <=

    Nuclear Repulsion Energy =             22.3076543718705622
    One-Electron Energy =                -962.3224577474984471
    Two-Electron Energy =                 315.9507143064162165
    DFT Exchange-Correlation Energy =     -36.0820386044608696
    Empirical Dispersion Energy =           0.0000000000000000
    VV10 Nonlocal Energy =                  0.0000000000000000
    Total Energy =                       -660.1461276736725949

  UHF NO Occupations:
  HONO-2 :    4 B2 1.0000000
  HONO-1 :    8 A1 1.0000000
  HONO-0 :    9 A1 1.0000000
  LUNO+0 :   10 A1 0.0008600
  LUNO+1 :    5 B2 0.0000290
  LUNO+2 :    5 B1 0.0000290
  LUNO+3 :   11 A1 0.0000004

Computation Completed

Properties will be evaluated at   0.000000,   0.000000,   0.000000 [a0]

Properties computed using the SCF density matrix

 Multipole Moments:

 ------------------------------------------------------------------------------------
     Multipole            Electronic (a.u.)      Nuclear  (a.u.)        Total (a.u.)
 ------------------------------------------------------------------------------------

 L = 1.  Multiply by 2.5417464519 to convert [e a0] to [Debye]
 Dipole X            :          0.0000000            0.0000000            0.0000000
 Dipole Y            :          0.0000000            0.0000000            0.0000000
 Dipole Z            :         -7.1972352            1.8428897           -5.3543456
 Magnitude           :                                                    5.3543456

 ------------------------------------------------------------------------------------

*** tstop() called on Joses-MacBook-Pro-2.local at Thu Jul 17 11:31:04 2025
Module time:
	user time   =       5.05 seconds =       0.08 minutes
	system time =       4.20 seconds =       0.07 minutes
	total time  =          1 seconds =       0.02 minutes
Total time:
	user time   =     272.43 seconds =       4.54 minutes
	system time =     187.99 seconds =       3.13 minutes
	total time  =         44 seconds =       0.73 minutes

*** tstart() called on Joses-MacBook-Pro-2.local
*** at Thu Jul 17 11:31:04 2025

         ------------------------------------------------------------
                                   SCF GRAD
                          Rob Parrish, Justin Turney,
                       Andy Simmonett, and Alex Sokolov
         ------------------------------------------------------------

  ==> Geometry <==

    Molecular point group: c2v
    Full point group: C_inf_v

    Geometry (in Angstrom), charge = -1, multiplicity = 5:

       Center              X                  Y                   Z               Mass
    ------------   -----------------  -----------------  -----------------  -----------------
         MG           0.000000000000     0.000000000000     2.870425487257    23.985041697000
         CL           0.000000000000     0.000000000000    -1.968817096348    34.968852682000

  Nuclear repulsion =   22.307654371870562

  ==> Basis Set <==

  Basis Set: CC-PVDZ
    Blend: CC-PVDZ
    Number of shells: 16
    Number of basis functions: 36
    Number of Cartesian functions: 38
    Spherical Harmonics?: true
    Max angular momentum: 2

  ==> DFJKGrad: Density-Fitted SCF Gradients <==

    Gradient:                    1
    J tasked:                  Yes
    K tasked:                  Yes
    wK tasked:                  No
    OpenMP threads:              1
    Integrals threads:           1
    Memory [MiB]:              375
    Schwarz Cutoff:          1E-12
    Fitting Condition:       1E-10

   => Auxiliary Basis Set <=

  Basis Set: (CC-PVDZ AUX)
    Blend: CC-PVDZ-JKFIT + DEF2-UNIVERSAL-JKFIT
    Number of shells: 70
    Number of basis functions: 224
    Number of Cartesian functions: 267
    Spherical Harmonics?: true
    Max angular momentum: 4

  ==> DFT Potential <==

   => LibXC <=

    Version 6.2.2
    S. Lehtola, C. Steigemann, M. J.T. Oliveira, and M. A.L. Marques.,  SoftwareX 7, 1â€“5 (2018) (10.1016/j.softx.2017.11.002)

   => Composite Functional: B3LYP <=

    B3LYP Hyb-GGA Exchange-Correlation Functional

    P. J. Stephens, F. J. Devlin, C. F. Chabalowski, and M. J. Frisch.,  J. Phys. Chem. 98, 11623 (1994) (10.1021/j100096a001)

    Deriv               =              1
    GGA                 =           TRUE
    Meta                =          FALSE

    Exchange Hybrid     =           TRUE
    MP2 Hybrid          =          FALSE

   => Exchange Functionals <=

    0.0800   Slater exchange
    0.7200         Becke 88

   => Exact (HF) Exchange <=

    0.2000               HF

   => Correlation Functionals <=

    0.1900   Vosko, Wilk & Nusair (VWN5_RPA)
    0.8100   Lee, Yang & Parr

   => LibXC Density Thresholds  <==

    XC_HYB_GGA_XC_B3LYP:  1.00E-15

   => Molecular Quadrature <=

    Radial Scheme          =       TREUTLER
    Pruning Scheme         =           NONE
    Nuclear Scheme         =       TREUTLER

    Blocking Scheme        =         OCTREE
    BS radius alpha        =              1
    Pruning alpha          =              1
    Radial Points          =             75
    Spherical Points       =            302
    Total Points           =          43154
    Total Blocks           =            452
    Max Points             =            256
    Max Functions          =             36
    Weights Tolerance      =       1.00E-15

  -Total Gradient:
     Atom            X                  Y                   Z
    ------   -----------------  -----------------  -----------------
       1       -0.000000000000     0.000000000000    -0.000265682489
       2        0.000000000000     0.000000000000     0.000261872067

*** tstop() called on Joses-MacBook-Pro-2.local at Thu Jul 17 11:31:04 2025
Module time:
	user time   =       1.39 seconds =       0.02 minutes
	system time =       2.33 seconds =       0.04 minutes
	total time  =          0 seconds =       0.00 minutes
Total time:
	user time   =     273.82 seconds =       4.56 minutes
	system time =     190.32 seconds =       3.17 minutes
	total time  =         44 seconds =       0.73 minutes

    			-----------------------------------------

    			 OPTKING 3.0: for geometry optimizations

    			     By R.A. King, Bethel University

    			        with contributions from

    			    A.V. Copan, J. Cayton, A. Heide

    			-----------------------------------------

	                            ===> Fragment 1 <==

	 Z (Atomic Numbers)          Masses                          Geom
	      12.000000            23.985042          0.00000000  0.00000000  5.42431803
	      17.000000            34.968853          0.00000000  0.00000000 -3.72052510

	 - Coordinate -           - BOHR/RAD -       - ANG/DEG -
	 R(1,2)           =         9.144843           4.839243

	        --- Internal Coordinate Step in ANG or DEG, aJ/ANG or AJ/DEG ---
	-------------------------------------------------------------------------------
	           Coordinate      Previous         Force          Change          New
	           ----------      --------        ------          ------        ------
	               R(1,2)       4.83924        0.00217        0.00044       4.83968
	-------------------------------------------------------------------------------

	                                 ==> Convergence Check <==

	Measures of convergence in internal coordinates in au.

	Criteria marked as inactive (o), active & met (*), and active & unmet ( ).

	----------------------------------------------------------------------------------------------
	   Step    Total Energy     Delta E     Max Force     RMS Force      Max Disp      RMS Disp
	----------------------------------------------------------------------------------------------
	  Convergence Criteria     1.00e-06 *    3.00e-04 *             o    1.20e-03 *             o
	----------------------------------------------------------------------------------------------
	    33    -660.14612767   -2.17e-04      2.64e-04 *    2.64e-04 o    8.29e-04 *    8.29e-04 o  ~
	----------------------------------------------------------------------------------------------

Next Geometry in Ang
	Fragment 1 (Ang)

	   Mg   0.0000000000   0.0000000000   2.8706449630
	   Cl   0.0000000000   0.0000000000  -1.9690365721

    Final optimized geometry and variables:
    Molecular point group: c2v
    Full point group: C_inf_v

    Geometry (in Angstrom), charge = -1, multiplicity = 5:

    MG           0.000000000000     0.000000000000     2.870425487257
    CL           0.000000000000     0.000000000000    -1.968817096348

    Psi4 stopped on: Thursday, 17 July 2025 11:31AM
    Psi4 wall time for execution: 0:00:45.27

*** Psi4 exiting successfully. Buy a developer a beer!
