                               Psi4 1.9.1 release

  ==> Input File <==

--------------------------------------------------------------------------
molecule {
-1 5
O   0.00000        0.60000        0.00000
F   0.00000       -0.60000        0.00000
}

set {
basis              cc-pvdz
reference          uks
maxiter            500
geom_maxiter       500
DAMPING_PERCENTAGE 1
guess              SAP
}

optimize('b3lyp')
--------------------------------------------------------------------------

    Molecular point group: c2v
  Charge       = -1
  Multiplicity = 5
  Basis Set: CC-PVDZ
    Blend: CC-PVDZ
  Basis Set: (CC-PVDZ AUX)
    Blend: CC-PVDZ-JKFIT
  @DF-UKS Final Energy:  -173.68570956417972
    Total Energy =                       -173.6857095641797173
 Dipole X            :          0.0000000            0.0000000            0.0000000
 Dipole Y            :          0.0000000            0.0000000            0.0000000
 Dipole Z            :         -1.6726948            0.5205619           -1.1521328
 Magnitude           :                                                    1.1521328
    Molecular point group: c2v
  Basis Set: CC-PVDZ
    Blend: CC-PVDZ
  Basis Set: (CC-PVDZ AUX)
    Blend: CC-PVDZ-JKFIT
  Basis Set: CC-PVDZ
    Blend: CC-PVDZ
  Basis Set: (CC-PVDZ AUX)
    Blend: CC-PVDZ-JKFIT
  @DF-UKS Final Energy:  -173.84827080494429
    Total Energy =                       -173.8482708049442920
  Basis Set: CC-PVDZ
    Blend: CC-PVDZ
  Basis Set: (CC-PVDZ AUX)
    Blend: CC-PVDZ-JKFIT
  Basis Set: CC-PVDZ
    Blend: CC-PVDZ
  @DF-UKS Final Energy:  -173.85797698072770
    Total Energy =                       -173.8579769807276989
  @DF-UKS Final Energy:  -173.86509512903396
    Total Energy =                       -173.8650951290339606
  @DF-UKS Final Energy:  -173.86626595284042
    Total Energy =                       -173.8662659528403935
  @DF-UKS Final Energy:  -173.86652662545026
    Total Energy =                       -173.8665266254502342
  @DF-UKS Final Energy:  -173.86659501995968
    Total Energy =                       -173.8665950199596750
  @DF-UKS Final Energy:  -173.86661728819570
    Total Energy =                       -173.8666172881957266
  Basis Set: (CC-PVDZ AUX)
    Blend: CC-PVDZ-JKFIT
  Basis Set: CC-PVDZ
    Blend: CC-PVDZ
  Basis Set: (CC-PVDZ AUX)
    Blend: CC-PVDZ-JKFIT
  @DF-UKS Final Energy:  -173.86662260866495
    Total Energy =                       -173.8666226086649544
  Basis Set: CC-PVDZ
    Blend: CC-PVDZ
  Basis Set: (CC-PVDZ AUX)
    Blend: CC-PVDZ-JKFIT
  Charge       = -1
  Multiplicity = 5
  Basis Set: CC-PVDZ
    Blend: CC-PVDZ
  Basis Set: (CC-PVDZ AUX)
    Blend: CC-PVDZ-JKFIT

    Orbital Energies [Eh]
    ---------------------

    Alpha Occupied:

       1A1   -24.311638     2A1   -18.873349     3A1    -0.817742
       4A1    -0.668989     5A1    -0.170219     1B2    -0.132700
       1B1    -0.132700     2B2    -0.031283     2B1    -0.031283
       6A1     0.060505     7A1     1.079810

    Alpha Virtual:

       3B2     1.119491     3B1     1.119491     8A1     1.450730
       4B2     1.486457     4B1     1.486457     9A1     1.549002
      10A1     2.103901    11A1     2.775649     1A2     2.775652
       5B2     2.828824     5B1     2.828824    12A1     3.012022
       2A2     3.928332    13A1     3.928345     6B1     3.938223
       6B2     3.938223    14A1     4.221653

    Beta Occupied:

       1A1   -24.291410     2A1   -18.783748     3A1    -0.754400
       4A1    -0.472861     5A1    -0.029537     1B2    -0.024134
       1B1    -0.024134

    Beta Virtual:

       2B2     0.183740     2B1     0.183740     6A1     0.317726
       3B2     1.249471     3B1     1.249471     7A1     1.349913
       4B2     1.518960     4B1     1.518960     8A1     1.559352
       9A1     1.609932    10A1     2.165885    11A1     2.940175
       1A2     2.940180     5B2     2.981103     5B1     2.981103
      12A1     3.127308     2A2     3.956649    13A1     3.956662
       6B1     3.980116     6B2     3.980116    14A1     4.281143

    Final Occupation by Irrep:
             A1    A2    B1    B2
    DOCC [     5,    0,    1,    1 ]
    SOCC [     2,    0,    1,    1 ]
    NA   [     7,    0,    2,    2 ]
    NB   [     5,    0,    1,    1 ]

  @DF-UKS Final Energy:  -173.86662298020485

   => Energetics <=

    Nuclear Repulsion Energy =             22.8577964130839746
    One-Electron Energy =                -293.8076800941097417
    Two-Electron Energy =                 112.7452934613047546
    DFT Exchange-Correlation Energy =     -15.6620327604838518
    Empirical Dispersion Energy =           0.0000000000000000
    VV10 Nonlocal Energy =                  0.0000000000000000
    Total Energy =                       -173.8666229802048520

  UHF NO Occupations:
  HONO-2 :    2 B2 1.0000000
  HONO-1 :    6 A1 1.0000000
  HONO-0 :    7 A1 1.0000000
  LUNO+0 :    8 A1 0.0008896
  LUNO+1 :    3 B1 0.0005009
  LUNO+2 :    3 B2 0.0005009
  LUNO+3 :    9 A1 0.0003336

Computation Completed

Properties will be evaluated at   0.000000,   0.000000,   0.000000 [a0]

Properties computed using the SCF density matrix

 Multipole Moments:

 ------------------------------------------------------------------------------------
     Multipole            Electronic (a.u.)      Nuclear  (a.u.)        Total (a.u.)
 ------------------------------------------------------------------------------------

 L = 1.  Multiply by 2.5417464519 to convert [e a0] to [Debye]
 Dipole X            :          0.0000000            0.0000000            0.0000000
 Dipole Y            :          0.0000000            0.0000000            0.0000000
 Dipole Z            :         -1.5593950            0.7230868           -0.8363082
 Magnitude           :                                                    0.8363082

 ------------------------------------------------------------------------------------

*** tstop() called on Joses-MacBook-Pro-2.local at Thu Jul 17 10:39:10 2025
Module time:
	user time   =       2.52 seconds =       0.04 minutes
	system time =       3.68 seconds =       0.06 minutes
	total time  =          1 seconds =       0.02 minutes
Total time:
	user time   =      34.88 seconds =       0.58 minutes
	system time =      55.56 seconds =       0.93 minutes
	total time  =          9 seconds =       0.15 minutes

*** tstart() called on Joses-MacBook-Pro-2.local
*** at Thu Jul 17 10:39:10 2025

         ------------------------------------------------------------
                                   SCF GRAD
                          Rob Parrish, Justin Turney,
                       Andy Simmonett, and Alex Sokolov
         ------------------------------------------------------------

  ==> Geometry <==

    Molecular point group: c2v
    Full point group: C_inf_v

    Geometry (in Angstrom), charge = -1, multiplicity = 5:

       Center              X                  Y                   Z               Mass
    ------------   -----------------  -----------------  -----------------  -----------------
         O            0.000000000000     0.000000000000     0.904963884760    15.994914619570
         F            0.000000000000     0.000000000000    -0.761896668186    18.998403162730

  Nuclear repulsion =   22.857796413083975

  ==> Basis Set <==

  Basis Set: CC-PVDZ
    Blend: CC-PVDZ
    Number of shells: 12
    Number of basis functions: 28
    Number of Cartesian functions: 30
    Spherical Harmonics?: true
    Max angular momentum: 2

  ==> DFJKGrad: Density-Fitted SCF Gradients <==

    Gradient:                    1
    J tasked:                  Yes
    K tasked:                  Yes
    wK tasked:                  No
    OpenMP threads:              1
    Integrals threads:           1
    Memory [MiB]:              375
    Schwarz Cutoff:          1E-12
    Fitting Condition:       1E-10

   => Auxiliary Basis Set <=

  Basis Set: (CC-PVDZ AUX)
    Blend: CC-PVDZ-JKFIT
    Number of shells: 48
    Number of basis functions: 140
    Number of Cartesian functions: 162
    Spherical Harmonics?: true
    Max angular momentum: 3

  ==> DFT Potential <==

   => LibXC <=

    Version 6.2.2
    S. Lehtola, C. Steigemann, M. J.T. Oliveira, and M. A.L. Marques.,  SoftwareX 7, 1â€“5 (2018) (10.1016/j.softx.2017.11.002)

   => Composite Functional: B3LYP <=

    B3LYP Hyb-GGA Exchange-Correlation Functional

    P. J. Stephens, F. J. Devlin, C. F. Chabalowski, and M. J. Frisch.,  J. Phys. Chem. 98, 11623 (1994) (10.1021/j100096a001)

    Deriv               =              1
    GGA                 =           TRUE
    Meta                =          FALSE

    Exchange Hybrid     =           TRUE
    MP2 Hybrid          =          FALSE

   => Exchange Functionals <=

    0.0800   Slater exchange
    0.7200         Becke 88

   => Exact (HF) Exchange <=

    0.2000               HF

   => Correlation Functionals <=

    0.1900   Vosko, Wilk & Nusair (VWN5_RPA)
    0.8100   Lee, Yang & Parr

   => LibXC Density Thresholds  <==

    XC_HYB_GGA_XC_B3LYP:  1.00E-15

   => Molecular Quadrature <=

    Radial Scheme          =       TREUTLER
    Pruning Scheme         =           NONE
    Nuclear Scheme         =       TREUTLER

    Blocking Scheme        =         OCTREE
    BS radius alpha        =              1
    Pruning alpha          =              1
    Radial Points          =             75
    Spherical Points       =            302
    Total Points           =          42081
    Total Blocks           =            366
    Max Points             =            256
    Max Functions          =             28
    Weights Tolerance      =       1.00E-15

  -Total Gradient:
     Atom            X                  Y                   Z
    ------   -----------------  -----------------  -----------------
       1        0.000000000000     0.000000000000    -0.000044852217
       2        0.000000000000     0.000000000000     0.000057532147

*** tstop() called on Joses-MacBook-Pro-2.local at Thu Jul 17 10:39:10 2025
Module time:
	user time   =       0.56 seconds =       0.01 minutes
	system time =       1.12 seconds =       0.02 minutes
	total time  =          0 seconds =       0.00 minutes
Total time:
	user time   =      35.44 seconds =       0.59 minutes
	system time =      56.69 seconds =       0.94 minutes
	total time  =          9 seconds =       0.15 minutes

    			-----------------------------------------

    			 OPTKING 3.0: for geometry optimizations

    			     By R.A. King, Bethel University

    			        with contributions from

    			    A.V. Copan, J. Cayton, A. Heide

    			-----------------------------------------

	                            ===> Fragment 1 <==

	 Z (Atomic Numbers)          Masses                          Geom
	       8.000000            15.994915          0.00000000  0.00000000  1.71013390
	       9.000000            18.998403          0.00000000  0.00000000 -1.43977604

	 - Coordinate -           - BOHR/RAD -       - ANG/DEG -
	 R(1,2)           =         3.149910           1.666861

	        --- Internal Coordinate Step in ANG or DEG, aJ/ANG or AJ/DEG ---
	-------------------------------------------------------------------------------
	           Coordinate      Previous         Force          Change          New
	           ----------      --------        ------          ------        ------
	               R(1,2)       1.66686        0.00042        0.00019       1.66705
	-------------------------------------------------------------------------------

	                                 ==> Convergence Check <==

	Measures of convergence in internal coordinates in au.

	Criteria marked as inactive (o), active & met (*), and active & unmet ( ).

	----------------------------------------------------------------------------------------------
	   Step    Total Energy     Delta E     Max Force     RMS Force      Max Disp      RMS Disp
	----------------------------------------------------------------------------------------------
	  Convergence Criteria     1.00e-06 *    3.00e-04 *             o    1.20e-03 *             o
	----------------------------------------------------------------------------------------------
	    10    -173.86662298   -3.72e-07 *    5.12e-05 *    5.12e-05 o    3.58e-04 *    3.58e-04 o  ~
	----------------------------------------------------------------------------------------------

Next Geometry in Ang
	Fragment 1 (Ang)

	    O   0.0000000000   0.0000000000   0.9050585971
	    F   0.0000000000   0.0000000000  -0.7619913805

    Final optimized geometry and variables:
    Molecular point group: c2v
    Full point group: C_inf_v

    Geometry (in Angstrom), charge = -1, multiplicity = 5:

    O            0.000000000000     0.000000000000     0.904963884760
    F            0.000000000000     0.000000000000    -0.761896668186

    Psi4 stopped on: Thursday, 17 July 2025 10:39AM
    Psi4 wall time for execution: 0:00:09.93

*** Psi4 exiting successfully. Buy a developer a beer!
