                               Psi4 1.9.1 release

  ==> Input File <==

--------------------------------------------------------------------------
molecule {
-1 5
Na   0.00000        0.60000        0.00000
S   0.00000       -0.60000        0.00000
}

set {
basis              cc-pvdz
reference          uks
maxiter            500
geom_maxiter       500
DAMPING_PERCENTAGE 1
guess              SAP
}

optimize('b3lyp')
--------------------------------------------------------------------------

    Molecular point group: c2v
  Charge       = -1
  Multiplicity = 5
  Basis Set: CC-PVDZ
    Blend: CC-PVDZ
  Basis Set: (CC-PVDZ AUX)
    Blend: CC-PVDZ-JKFIT + DEF2-UNIVERSAL-JKFIT
  @DF-UKS Final Energy:  -559.37083238084324
    Total Energy =                       -559.3708323808431260
 Dipole X            :          0.0000000            0.0000000            0.0000000
 Dipole Y            :          0.0000000            0.0000000            0.0000000
 Dipole Z            :         -1.4328883           -0.6660660           -2.0989542
 Magnitude           :                                                    2.0989542
    Molecular point group: c2v
  Basis Set: CC-PVDZ
    Blend: CC-PVDZ
  Basis Set: (CC-PVDZ AUX)
    Blend: CC-PVDZ-JKFIT + DEF2-UNIVERSAL-JKFIT
  Basis Set: CC-PVDZ
    Blend: CC-PVDZ
  Basis Set: (CC-PVDZ AUX)
    Blend: CC-PVDZ-JKFIT + DEF2-UNIVERSAL-JKFIT
  @DF-UKS Final Energy:  -559.38443769437060
    Total Energy =                       -559.3844376943706038
  Basis Set: CC-PVDZ
    Blend: CC-PVDZ
  Basis Set: (CC-PVDZ AUX)
    Blend: CC-PVDZ-JKFIT + DEF2-UNIVERSAL-JKFIT
  Basis Set: CC-PVDZ
    Blend: CC-PVDZ
  @DF-UKS Final Energy:  -559.41068085260349
    Total Energy =                       -559.4106808526034911
  @DF-UKS Final Energy:  -559.50567153391034
    Total Energy =                       -559.5056715339104585
  @DF-UKS Final Energy:  -559.91852811755780
    Total Energy =                       -559.9185281175577984
  @DF-UKS Final Energy:  -560.12681288813292
    Total Energy =                       -560.1268128881330313
  @DF-UKS Final Energy:  -560.25104367792801
    Total Energy =                       -560.2510436779280099
  @DF-UKS Final Energy:  -560.31374765760336
    Total Energy =                       -560.3137476576033578
  @DF-UKS Final Energy:  -560.34755367783373
    Total Energy =                       -560.3475536778336163
  @DF-UKS Final Energy:  -560.36664124283743
    Total Energy =                       -560.3666412428374315
  @DF-UKS Final Energy:  -560.37828585752288
    Total Energy =                       -560.3782858575228829
  @DF-UKS Final Energy:  -560.38583567640444
    Total Energy =                       -560.3858356764044402
  @DF-UKS Final Energy:  -560.39101708850774
    Total Energy =                       -560.3910170885078514
  @DF-UKS Final Energy:  -560.39469740722097
    Total Energy =                       -560.3946974072209741
  @DF-UKS Final Energy:  -560.39476295460634
    Total Energy =                       -560.3947629546064491
  @DF-UKS Final Energy:  -560.39751005372159
    Total Energy =                       -560.3975100537217031
  @DF-UKS Final Energy:  -560.39753675482496
    Total Energy =                       -560.3975367548249551
  @DF-UKS Final Energy:  -560.39916923899489
    Total Energy =                       -560.3991692389948867
  @DF-UKS Final Energy:  -560.39917959720697
    Total Energy =                       -560.3991795972068530
  @DF-UKS Final Energy:  -560.39918986844725
    Total Energy =                       -560.3991898684472517
  @DF-UKS Final Energy:  -560.40011048066685
    Total Energy =                       -560.4001104806668536
  @DF-UKS Final Energy:  -560.40011425027342
    Total Energy =                       -560.4001142502734183
  @DF-UKS Final Energy:  -560.40011799871468
    Total Energy =                       -560.4001179987146770
  @DF-UKS Final Energy:  -560.40012172625461
    Total Energy =                       -560.4001217262546106
  @DF-UKS Final Energy:  -560.40063413768223
    Total Energy =                       -560.4006341376822320
  @DF-UKS Final Energy:  -560.40063540098561
    Total Energy =                       -560.4006354009854931
  @DF-UKS Final Energy:  -560.40063665820799
    Total Energy =                       -560.4006366582079863
  @DF-UKS Final Energy:  -560.40063791093974
    Total Energy =                       -560.4006379109397358
  @DF-UKS Final Energy:  -560.40063915921132
    Total Energy =                       -560.4006391592113232
  @DF-UKS Final Energy:  -560.40064040309517
    Total Energy =                       -560.4006404030951671
  @DF-UKS Final Energy:  -560.40064164258376
    Total Energy =                       -560.4006416425837642
  @DF-UKS Final Energy:  -560.40064287766552
    Total Energy =                       -560.4006428776654047
  Basis Set: (CC-PVDZ AUX)
    Blend: CC-PVDZ-JKFIT + DEF2-UNIVERSAL-JKFIT
  Basis Set: CC-PVDZ
    Blend: CC-PVDZ
  Basis Set: (CC-PVDZ AUX)
    Blend: CC-PVDZ-JKFIT + DEF2-UNIVERSAL-JKFIT
  @DF-UKS Final Energy:  -560.40090738397544
    Total Energy =                       -560.4009073839754365
  Basis Set: CC-PVDZ
    Blend: CC-PVDZ
  Basis Set: (CC-PVDZ AUX)
    Blend: CC-PVDZ-JKFIT + DEF2-UNIVERSAL-JKFIT
  Charge       = -1
  Multiplicity = 5
  Basis Set: CC-PVDZ
    Blend: CC-PVDZ
  Basis Set: (CC-PVDZ AUX)
    Blend: CC-PVDZ-JKFIT + DEF2-UNIVERSAL-JKFIT

    Orbital Energies [Eh]
    ---------------------

    Alpha Occupied:

       1A1   -88.842651     2A1   -38.342178     3A1    -7.900852
       1B1    -5.870065     4A1    -5.870056     1B2    -5.850366
       5A1    -2.087047     6A1    -1.018413     2B2    -1.018363
       2B1    -1.017203     7A1    -0.632089     3B1    -0.240942
       8A1    -0.240520     3B2    -0.192896     9A1    -0.001349
       4B1     0.053398

    Alpha Virtual:

       4B2     0.088459    10A1     0.089013    11A1     0.158431
       5B1     0.184699    12A1     0.191525     5B2     0.192615
       6B1     0.286713    13A1     0.286963     1A2     0.287337
      14A1     0.290427     6B2     0.291813    15A1     0.538064
       7B1     0.545074     7B2     0.575240    16A1     0.596854
       8B1     0.610844    17A1     0.613277     2A2     0.648593
       8B2     0.649182    18A1     0.663313

    Beta Occupied:

       1A1   -88.831822     2A1   -38.340785     3A1    -7.889795
       1B1    -5.848646     4A1    -5.848634     1B2    -5.843813
       5A1    -2.084344     6A1    -1.016759     2B2    -1.016709
       2B1    -1.014890     7A1    -0.539149     3B2    -0.166108

    Beta Virtual:

       8A1    -0.083816     3B1    -0.083578     9A1     0.066067
       4B2     0.110357    10A1     0.112455     4B1     0.117246
      11A1     0.179811    12A1     0.211157     5B2     0.211414
       5B1     0.220020    13A1     0.314170     6B2     0.316810
       1A2     0.325235     6B1     0.325805    14A1     0.328494
      15A1     0.580239     7B2     0.588072     7B1     0.594829
      16A1     0.640926     2A2     0.705911     8B2     0.706407
      17A1     0.709315     8B1     0.718868    18A1     0.719621

    Final Occupation by Irrep:
             A1    A2    B1    B2
    DOCC [     7,    0,    2,    3 ]
    SOCC [     2,    0,    2,    0 ]
    NA   [     9,    0,    4,    3 ]
    NB   [     7,    0,    2,    3 ]

  @DF-UKS Final Energy:  -560.40090776908733

   => Energetics <=

    Nuclear Repulsion Energy =             17.8492717944106403
    One-Electron Energy =                -815.9306041123918476
    Two-Electron Energy =                 270.0364478447959300
    DFT Exchange-Correlation Energy =     -32.3560232959020766
    Empirical Dispersion Energy =           0.0000000000000000
    VV10 Nonlocal Energy =                  0.0000000000000000
    Total Energy =                       -560.4009077690873255

  UHF NO Occupations:
  HONO-2 :    9 A1 1.0000000
  HONO-1 :    3 B1 1.0000000
  HONO-0 :    4 B1 1.0000000
  LUNO+0 :   10 A1 0.0010339
  LUNO+1 :    4 B2 0.0001108
  LUNO+2 :   11 A1 0.0000005
  LUNO+3 :    5 B2 0.0000004

Computation Completed

Properties will be evaluated at   0.000000,   0.000000,   0.000000 [a0]

Properties computed using the SCF density matrix

 Multipole Moments:

 ------------------------------------------------------------------------------------
     Multipole            Electronic (a.u.)      Nuclear  (a.u.)        Total (a.u.)
 ------------------------------------------------------------------------------------

 L = 1.  Multiply by 2.5417464519 to convert [e a0] to [Debye]
 Dipole X            :          0.0000000            0.0000000            0.0000000
 Dipole Y            :          0.0000000            0.0000000            0.0000000
 Dipole Z            :         -2.8184428           -2.8962049           -5.7146477
 Magnitude           :                                                    5.7146477

 ------------------------------------------------------------------------------------

*** tstop() called on Joses-MacBook-Pro-2.local at Thu Jul 17 11:16:28 2025
Module time:
	user time   =       2.98 seconds =       0.05 minutes
	system time =       3.29 seconds =       0.05 minutes
	total time  =          0 seconds =       0.00 minutes
Total time:
	user time   =     395.45 seconds =       6.59 minutes
	system time =     209.12 seconds =       3.49 minutes
	total time  =         60 seconds =       1.00 minutes

*** tstart() called on Joses-MacBook-Pro-2.local
*** at Thu Jul 17 11:16:28 2025

         ------------------------------------------------------------
                                   SCF GRAD
                          Rob Parrish, Justin Turney,
                       Andy Simmonett, and Alex Sokolov
         ------------------------------------------------------------

  ==> Geometry <==

    Molecular point group: c2v
    Full point group: C_inf_v

    Geometry (in Angstrom), charge = -1, multiplicity = 5:

       Center              X                  Y                   Z               Mass
    ------------   -----------------  -----------------  -----------------  -----------------
         NA           0.000000000000     0.000000000000     3.035308246962    22.989769282000
         S            0.000000000000     0.000000000000    -2.182562271827    31.972071174400

  Nuclear repulsion =   17.849271794410640

  ==> Basis Set <==

  Basis Set: CC-PVDZ
    Blend: CC-PVDZ
    Number of shells: 16
    Number of basis functions: 36
    Number of Cartesian functions: 38
    Spherical Harmonics?: true
    Max angular momentum: 2

  ==> DFJKGrad: Density-Fitted SCF Gradients <==

    Gradient:                    1
    J tasked:                  Yes
    K tasked:                  Yes
    wK tasked:                  No
    OpenMP threads:              1
    Integrals threads:           1
    Memory [MiB]:              375
    Schwarz Cutoff:          1E-12
    Fitting Condition:       1E-10

   => Auxiliary Basis Set <=

  Basis Set: (CC-PVDZ AUX)
    Blend: CC-PVDZ-JKFIT + DEF2-UNIVERSAL-JKFIT
    Number of shells: 70
    Number of basis functions: 224
    Number of Cartesian functions: 267
    Spherical Harmonics?: true
    Max angular momentum: 4

  ==> DFT Potential <==

   => LibXC <=

    Version 6.2.2
    S. Lehtola, C. Steigemann, M. J.T. Oliveira, and M. A.L. Marques.,  SoftwareX 7, 1â€“5 (2018) (10.1016/j.softx.2017.11.002)

   => Composite Functional: B3LYP <=

    B3LYP Hyb-GGA Exchange-Correlation Functional

    P. J. Stephens, F. J. Devlin, C. F. Chabalowski, and M. J. Frisch.,  J. Phys. Chem. 98, 11623 (1994) (10.1021/j100096a001)

    Deriv               =              1
    GGA                 =           TRUE
    Meta                =          FALSE

    Exchange Hybrid     =           TRUE
    MP2 Hybrid          =          FALSE

   => Exchange Functionals <=

    0.0800   Slater exchange
    0.7200         Becke 88

   => Exact (HF) Exchange <=

    0.2000               HF

   => Correlation Functionals <=

    0.1900   Vosko, Wilk & Nusair (VWN5_RPA)
    0.8100   Lee, Yang & Parr

   => LibXC Density Thresholds  <==

    XC_HYB_GGA_XC_B3LYP:  1.00E-15

   => Molecular Quadrature <=

    Radial Scheme          =       TREUTLER
    Pruning Scheme         =           NONE
    Nuclear Scheme         =       TREUTLER

    Blocking Scheme        =         OCTREE
    BS radius alpha        =              1
    Pruning alpha          =              1
    Radial Points          =             75
    Spherical Points       =            302
    Total Points           =          43927
    Total Blocks           =            464
    Max Points             =            255
    Max Functions          =             36
    Weights Tolerance      =       1.00E-15

  -Total Gradient:
     Atom            X                  Y                   Z
    ------   -----------------  -----------------  -----------------
       1        0.000000000000    -0.000000000000    -0.000290852723
       2        0.000000000000     0.000000000000     0.000295991589

*** tstop() called on Joses-MacBook-Pro-2.local at Thu Jul 17 11:16:29 2025
Module time:
	user time   =       1.36 seconds =       0.02 minutes
	system time =       2.81 seconds =       0.05 minutes
	total time  =          1 seconds =       0.02 minutes
Total time:
	user time   =     396.82 seconds =       6.61 minutes
	system time =     211.94 seconds =       3.53 minutes
	total time  =         61 seconds =       1.02 minutes

    			-----------------------------------------

    			 OPTKING 3.0: for geometry optimizations

    			     By R.A. King, Bethel University

    			        with contributions from

    			    A.V. Copan, J. Cayton, A. Heide

    			-----------------------------------------

	                            ===> Fragment 1 <==

	 Z (Atomic Numbers)          Masses                          Geom
	      11.000000            22.989769          0.00000000  0.00000000  5.73590129
	      16.000000            31.972071          0.00000000  0.00000000 -4.12444495

	 - Coordinate -           - BOHR/RAD -       - ANG/DEG -
	 R(1,2)           =         9.860346           5.217871

	        --- Internal Coordinate Step in ANG or DEG, aJ/ANG or AJ/DEG ---
	-------------------------------------------------------------------------------
	           Coordinate      Previous         Force          Change          New
	           ----------      --------        ------          ------        ------
	               R(1,2)       5.21787        0.00242        0.00068       5.21855
	-------------------------------------------------------------------------------

	                                 ==> Convergence Check <==

	Measures of convergence in internal coordinates in au.

	Criteria marked as inactive (o), active & met (*), and active & unmet ( ).

	----------------------------------------------------------------------------------------------
	   Step    Total Energy     Delta E     Max Force     RMS Force      Max Disp      RMS Disp
	----------------------------------------------------------------------------------------------
	  Convergence Criteria     1.00e-06 *    3.00e-04 *             o    1.20e-03 *             o
	----------------------------------------------------------------------------------------------
	    34    -560.40090777   -3.85e-07 *    2.93e-04 *    2.93e-04 o    1.29e-03      1.29e-03 o  ~
	----------------------------------------------------------------------------------------------

Next Geometry in Ang
	Fragment 1 (Ang)

	   Na   0.0000000000   0.0000000000   3.0356494830
	    S   0.0000000000   0.0000000000  -2.1829035079

    Final optimized geometry and variables:
    Molecular point group: c2v
    Full point group: C_inf_v

    Geometry (in Angstrom), charge = -1, multiplicity = 5:

    NA           0.000000000000     0.000000000000     3.035308246962
    S            0.000000000000     0.000000000000    -2.182562271827

    Psi4 stopped on: Thursday, 17 July 2025 11:16AM
    Psi4 wall time for execution: 0:01:00.81

*** Psi4 exiting successfully. Buy a developer a beer!
