                               Psi4 1.9.1 release

  ==> Input File <==

--------------------------------------------------------------------------
molecule {
-1 5
H   0.00000        0.60000        0.00000
Si   0.00000       -0.60000        0.00000
}

set {
basis              cc-pvdz
reference          uks
maxiter            500
geom_maxiter       500
DAMPING_PERCENTAGE 1
guess              SAP
}

optimize('b3lyp')
--------------------------------------------------------------------------

    Molecular point group: c2v
  Charge       = -1
  Multiplicity = 5
  Basis Set: CC-PVDZ
    Blend: CC-PVDZ
  Basis Set: (CC-PVDZ AUX)
    Blend: CC-PVDZ-JKFIT
  @DF-UKS Final Energy:  -289.74845709662088
    Total Energy =                       -289.7484570966208821
 Dipole X            :          0.0000000            0.0000000            0.0000000
 Dipole Y            :          0.0000000            0.0000000            0.0000000
 Dipole Z            :         -0.6398385            1.0849378            0.4450993
 Magnitude           :                                                    0.4450993
    Molecular point group: c2v
  Basis Set: CC-PVDZ
    Blend: CC-PVDZ
  Basis Set: (CC-PVDZ AUX)
    Blend: CC-PVDZ-JKFIT
  Basis Set: CC-PVDZ
    Blend: CC-PVDZ
  Basis Set: (CC-PVDZ AUX)
    Blend: CC-PVDZ-JKFIT
  @DF-UKS Final Energy:  -289.81649081549745
    Total Energy =                       -289.8164908154973887
  Basis Set: CC-PVDZ
    Blend: CC-PVDZ
  Basis Set: (CC-PVDZ AUX)
    Blend: CC-PVDZ-JKFIT
  Basis Set: CC-PVDZ
    Blend: CC-PVDZ
  @DF-UKS Final Energy:  -289.84557133088629
    Total Energy =                       -289.8455713308862869
  @DF-UKS Final Energy:  -289.87070361587303
    Total Energy =                       -289.8707036158730261
  @DF-UKS Final Energy:  -289.89010567583352
    Total Energy =                       -289.8901056758335244
  @DF-UKS Final Energy:  -289.89586097807444
    Total Energy =                       -289.8958609780744951
  @DF-UKS Final Energy:  -289.90672447833344
    Total Energy =                       -289.9067244783335013
  @DF-UKS Final Energy:  -289.90858751990817
    Total Energy =                       -289.9085875199081670
  @DF-UKS Final Energy:  -289.91390309294371
    Total Energy =                       -289.9139030929436558
  @DF-UKS Final Energy:  -289.91448838502896
    Total Energy =                       -289.9144883850289602
  @DF-UKS Final Energy:  -289.91719784001185
    Total Energy =                       -289.9171978400118519
  @DF-UKS Final Energy:  -289.91738156737188
    Total Energy =                       -289.9173815673719901
  @DF-UKS Final Energy:  -289.91878714308689
    Total Energy =                       -289.9187871430868881
  @DF-UKS Final Energy:  -289.91884454152000
    Total Energy =                       -289.9188445415200022
  @DF-UKS Final Energy:  -289.91956946051016
    Total Energy =                       -289.9195694605101608
  @DF-UKS Final Energy:  -289.91958667179745
    Total Energy =                       -289.9195866717974468
  @DF-UKS Final Energy:  -289.91994549591976
    Total Energy =                       -289.9199454959197624
  @DF-UKS Final Energy:  -289.91995030997373
    Total Energy =                       -289.9199503099737285
  @DF-UKS Final Energy:  -289.91995500408143
    Total Energy =                       -289.9199550040814302
  @DF-UKS Final Energy:  -289.92012255149228
    Total Energy =                       -289.9201225514922839
  @DF-UKS Final Energy:  -289.92012379280362
    Total Energy =                       -289.9201237928035653
  @DF-UKS Final Energy:  -289.92012501726202
    Total Energy =                       -289.9201250172620234
  @DF-UKS Final Energy:  -289.92012622354201
    Total Energy =                       -289.9201262235420131
  @DF-UKS Final Energy:  -289.92012741203746
    Total Energy =                       -289.9201274120374592
  Basis Set: (CC-PVDZ AUX)
    Blend: CC-PVDZ-JKFIT
  Basis Set: CC-PVDZ
    Blend: CC-PVDZ
  Basis Set: (CC-PVDZ AUX)
    Blend: CC-PVDZ-JKFIT
  @DF-UKS Final Energy:  -289.92020406966748
    Total Energy =                       -289.9202040696674771
  Basis Set: CC-PVDZ
    Blend: CC-PVDZ
  Basis Set: (CC-PVDZ AUX)
    Blend: CC-PVDZ-JKFIT
  Charge       = -1
  Multiplicity = 5
  Basis Set: CC-PVDZ
    Blend: CC-PVDZ
  Basis Set: (CC-PVDZ AUX)
    Blend: CC-PVDZ-JKFIT

    Orbital Energies [Eh]
    ---------------------

    Alpha Occupied:

       1A1   -65.863118     2A1    -5.005828     3A1    -3.365417
       1B1    -3.365416     1B2    -3.365416     4A1    -0.214840
       5A1    -0.183598     2B1     0.066203     2B2     0.066203
       6A1     0.066247

    Alpha Virtual:

       7A1     0.472513     8A1     0.513208     3B1     0.544432
       3B2     0.544432     9A1     0.559307     1A2     0.610308
      10A1     0.610308     4B2     0.610309     4B1     0.610309
      11A1     0.610486     5B2     1.314228     5B1     1.314228
      12A1     1.315553

    Beta Occupied:

       1A1   -65.856476     2A1    -4.998410     3A1    -3.354538
       1B2    -3.354536     1B1    -3.354536     4A1    -0.098008

    Beta Virtual:

       5A1     0.053011     2B1     0.177787     2B2     0.177787
       6A1     0.177945     7A1     0.512112     8A1     0.584528
       3B1     0.587031     3B2     0.587031     9A1     0.683435
       4B2     0.683772     4B1     0.683772     1A2     0.683785
      10A1     0.683785    11A1     0.714689    12A1     1.517768
       5B1     1.519160     5B2     1.519160

    Final Occupation by Irrep:
             A1    A2    B1    B2
    DOCC [     4,    0,    1,    1 ]
    SOCC [     2,    0,    1,    1 ]
    NA   [     6,    0,    2,    2 ]
    NB   [     4,    0,    1,    1 ]

  @DF-UKS Final Energy:  -289.92020438225228

   => Energetics <=

    Nuclear Repulsion Energy =              1.4621327825246464
    One-Electron Energy =                -408.3185768002430223
    Two-Electron Energy =                 134.1424747898856538
    DFT Exchange-Correlation Energy =     -17.2062351544195025
    Empirical Dispersion Energy =           0.0000000000000000
    VV10 Nonlocal Energy =                  0.0000000000000000
    Total Energy =                       -289.9202043822522796

  UHF NO Occupations:
  HONO-2 :    2 B1 1.0000000
  HONO-1 :    5 A1 1.0000000
  HONO-0 :    6 A1 1.0000000
  LUNO+0 :    7 A1 0.0000026
  LUNO+1 :    8 A1 0.0000000
  LUNO+2 :    3 B1 0.0000000
  LUNO+3 :    3 B2 0.0000000

Computation Completed

Properties will be evaluated at   0.000000,   0.000000,   0.000000 [a0]

Properties computed using the SCF density matrix

 Multipole Moments:

 ------------------------------------------------------------------------------------
     Multipole            Electronic (a.u.)      Nuclear  (a.u.)        Total (a.u.)
 ------------------------------------------------------------------------------------

 L = 1.  Multiply by 2.5417464519 to convert [e a0] to [Debye]
 Dipole X            :          0.0000000            0.0000000            0.0000000
 Dipole Y            :          0.0000000            0.0000000            0.0000000
 Dipole Z            :         -4.2603690            4.5810595            0.3206905
 Magnitude           :                                                    0.3206905

 ------------------------------------------------------------------------------------

*** tstop() called on Joses-MacBook-Pro-2.local at Thu Jul 17 09:15:19 2025
Module time:
	user time   =       1.96 seconds =       0.03 minutes
	system time =       1.95 seconds =       0.03 minutes
	total time  =          1 seconds =       0.02 minutes
Total time:
	user time   =      89.91 seconds =       1.50 minutes
	system time =     109.93 seconds =       1.83 minutes
	total time  =         19 seconds =       0.32 minutes

*** tstart() called on Joses-MacBook-Pro-2.local
*** at Thu Jul 17 09:15:19 2025

         ------------------------------------------------------------
                                   SCF GRAD
                          Rob Parrish, Justin Turney,
                       Andy Simmonett, and Alex Sokolov
         ------------------------------------------------------------

  ==> Geometry <==

    Molecular point group: c2v
    Full point group: C_inf_v

    Geometry (in Angstrom), charge = -1, multiplicity = 5:

       Center              X                  Y                   Z               Mass
    ------------   -----------------  -----------------  -----------------  -----------------
         H            0.000000000000     0.000000000000     4.890719711616     1.007825032230
         SI           0.000000000000     0.000000000000    -0.176180530227    27.976926534650

  Nuclear repulsion =    1.462132782524646

  ==> Basis Set <==

  Basis Set: CC-PVDZ
    Blend: CC-PVDZ
    Number of shells: 11
    Number of basis functions: 23
    Number of Cartesian functions: 24
    Spherical Harmonics?: true
    Max angular momentum: 2

  ==> DFJKGrad: Density-Fitted SCF Gradients <==

    Gradient:                    1
    J tasked:                  Yes
    K tasked:                  Yes
    wK tasked:                  No
    OpenMP threads:              1
    Integrals threads:           1
    Memory [MiB]:              375
    Schwarz Cutoff:          1E-12
    Fitting Condition:       1E-10

   => Auxiliary Basis Set <=

  Basis Set: (CC-PVDZ AUX)
    Blend: CC-PVDZ-JKFIT
    Number of shells: 45
    Number of basis functions: 135
    Number of Cartesian functions: 155
    Spherical Harmonics?: true
    Max angular momentum: 3

  ==> DFT Potential <==

   => LibXC <=

    Version 6.2.2
    S. Lehtola, C. Steigemann, M. J.T. Oliveira, and M. A.L. Marques.,  SoftwareX 7, 1â€“5 (2018) (10.1016/j.softx.2017.11.002)

   => Composite Functional: B3LYP <=

    B3LYP Hyb-GGA Exchange-Correlation Functional

    P. J. Stephens, F. J. Devlin, C. F. Chabalowski, and M. J. Frisch.,  J. Phys. Chem. 98, 11623 (1994) (10.1021/j100096a001)

    Deriv               =              1
    GGA                 =           TRUE
    Meta                =          FALSE

    Exchange Hybrid     =           TRUE
    MP2 Hybrid          =          FALSE

   => Exchange Functionals <=

    0.0800   Slater exchange
    0.7200         Becke 88

   => Exact (HF) Exchange <=

    0.2000               HF

   => Correlation Functionals <=

    0.1900   Vosko, Wilk & Nusair (VWN5_RPA)
    0.8100   Lee, Yang & Parr

   => LibXC Density Thresholds  <==

    XC_HYB_GGA_XC_B3LYP:  1.00E-15

   => Molecular Quadrature <=

    Radial Scheme          =       TREUTLER
    Pruning Scheme         =           NONE
    Nuclear Scheme         =       TREUTLER

    Blocking Scheme        =         OCTREE
    BS radius alpha        =              1
    Pruning alpha          =              1
    Radial Points          =             75
    Spherical Points       =            302
    Total Points           =          43109
    Total Blocks           =            440
    Max Points             =            254
    Max Functions          =             23
    Weights Tolerance      =       1.00E-15

  -Total Gradient:
     Atom            X                  Y                   Z
    ------   -----------------  -----------------  -----------------
       1        0.000000000000     0.000000000000    -0.000099845775
       2        0.000000000000    -0.000000000000     0.000095251905

*** tstop() called on Joses-MacBook-Pro-2.local at Thu Jul 17 09:15:19 2025
Module time:
	user time   =       0.59 seconds =       0.01 minutes
	system time =       0.96 seconds =       0.02 minutes
	total time  =          0 seconds =       0.00 minutes
Total time:
	user time   =      90.51 seconds =       1.51 minutes
	system time =     110.89 seconds =       1.85 minutes
	total time  =         19 seconds =       0.32 minutes

    			-----------------------------------------

    			 OPTKING 3.0: for geometry optimizations

    			     By R.A. King, Bethel University

    			        with contributions from

    			    A.V. Copan, J. Cayton, A. Heide

    			-----------------------------------------

	                            ===> Fragment 1 <==

	 Z (Atomic Numbers)          Masses                          Geom
	       1.000000             1.007825          0.00000000  0.00000000  9.24212081
	      14.000000            27.976927          0.00000000  0.00000000 -0.33293295

	 - Coordinate -           - BOHR/RAD -       - ANG/DEG -
	 R(1,2)           =         9.575054           5.066900

	        --- Internal Coordinate Step in ANG or DEG, aJ/ANG or AJ/DEG ---
	-------------------------------------------------------------------------------
	           Coordinate      Previous         Force          Change          New
	           ----------      --------        ------          ------        ------
	               R(1,2)       5.06690        0.00080        0.00168       5.06858
	-------------------------------------------------------------------------------

	                                 ==> Convergence Check <==

	Measures of convergence in internal coordinates in au.

	Criteria marked as inactive (o), active & met (*), and active & unmet ( ).

	----------------------------------------------------------------------------------------------
	   Step    Total Energy     Delta E     Max Force     RMS Force      Max Disp      RMS Disp
	----------------------------------------------------------------------------------------------
	  Convergence Criteria     1.00e-06 *    3.00e-04 *             o    1.20e-03 *             o
	----------------------------------------------------------------------------------------------
	    26    -289.92020438   -3.13e-07 *    9.75e-05 *    9.75e-05 o    3.17e-03      3.17e-03 o  ~
	----------------------------------------------------------------------------------------------

Next Geometry in Ang
	Fragment 1 (Ang)

	    H   0.0000000000   0.0000000000   4.8915576956
	   Si   0.0000000000   0.0000000000  -0.1770185142

    Final optimized geometry and variables:
    Molecular point group: c2v
    Full point group: C_inf_v

    Geometry (in Angstrom), charge = -1, multiplicity = 5:

    H            0.000000000000     0.000000000000     4.890719711616
    SI           0.000000000000     0.000000000000    -0.176180530227

    Psi4 stopped on: Thursday, 17 July 2025 09:15AM
    Psi4 wall time for execution: 0:00:19.54

*** Psi4 exiting successfully. Buy a developer a beer!
