                               Psi4 1.9.1 release

  ==> Input File <==

--------------------------------------------------------------------------
molecule {
-1 5
F   0.00000        0.60000        0.00000
Ar   0.00000       -0.60000        0.00000
}

set {
basis              cc-pvdz
reference          uks
maxiter            500
geom_maxiter       500
DAMPING_PERCENTAGE 1
guess              SAP
}

optimize('b3lyp')
--------------------------------------------------------------------------

    Molecular point group: c2v
  Charge       = -1
  Multiplicity = 5
  Basis Set: CC-PVDZ
    Blend: CC-PVDZ
  Basis Set: (CC-PVDZ AUX)
    Blend: CC-PVDZ-JKFIT
  @DF-UKS Final Energy:  -625.32123941667248
    Total Energy =                       -625.3212394166725971
 Dipole X            :          0.0000000            0.0000000            0.0000000
 Dipole Y            :          0.0000000            0.0000000            0.0000000
 Dipole Z            :          0.5768075            0.6803766            1.2571841
 Magnitude           :                                                    1.2571841
    Molecular point group: c2v
  Basis Set: CC-PVDZ
    Blend: CC-PVDZ
  Basis Set: (CC-PVDZ AUX)
    Blend: CC-PVDZ-JKFIT
  Basis Set: CC-PVDZ
    Blend: CC-PVDZ
  Basis Set: (CC-PVDZ AUX)
    Blend: CC-PVDZ-JKFIT
  @DF-UKS Final Energy:  -625.49718437549052
    Total Energy =                       -625.4971843754905194
  Basis Set: CC-PVDZ
    Blend: CC-PVDZ
  Basis Set: (CC-PVDZ AUX)
    Blend: CC-PVDZ-JKFIT
  Basis Set: CC-PVDZ
    Blend: CC-PVDZ
  @DF-UKS Final Energy:  -625.61725104667403
    Total Energy =                       -625.6172510466740277
  @DF-UKS Final Energy:  -625.68043023086113
    Total Energy =                       -625.6804302308611341
  @DF-UKS Final Energy:  -625.72877270974732
    Total Energy =                       -625.7287727097473180
  @DF-UKS Final Energy:  -625.74935983332421
    Total Energy =                       -625.7493598333242062
  @DF-UKS Final Energy:  -625.75798547222405
    Total Energy =                       -625.7579854722240498
  @DF-UKS Final Energy:  -625.76207700642999
    Total Energy =                       -625.7620770064299904
  @DF-UKS Final Energy:  -625.76344094835679
    Total Energy =                       -625.7634409483567879
  @DF-UKS Final Energy:  -625.76391826128236
    Total Energy =                       -625.7639182612823561
  @DF-UKS Final Energy:  -625.76397038839684
    Total Energy =                       -625.7639703883967286
  Basis Set: (CC-PVDZ AUX)
    Blend: CC-PVDZ-JKFIT
  Basis Set: CC-PVDZ
    Blend: CC-PVDZ
  Basis Set: (CC-PVDZ AUX)
    Blend: CC-PVDZ-JKFIT
  @DF-UKS Final Energy:  -625.76397240358733
    Total Energy =                       -625.7639724035874451
  Basis Set: CC-PVDZ
    Blend: CC-PVDZ
  Basis Set: (CC-PVDZ AUX)
    Blend: CC-PVDZ-JKFIT
  Charge       = -1
  Multiplicity = 5
  Basis Set: CC-PVDZ
    Blend: CC-PVDZ
  Basis Set: (CC-PVDZ AUX)
    Blend: CC-PVDZ-JKFIT

    Orbital Energies [Eh]
    ---------------------

    Alpha Occupied:

       1A1  -114.735162     2A1   -24.493623     3A1   -10.822685
       1B1    -8.387722     4A1    -8.371019     1B2    -8.361411
       5A1    -0.935080     6A1    -0.746980     7A1    -0.273327
       2B1    -0.238253     2B2    -0.189343     3B1    -0.180247
       3B2    -0.167826     8A1    -0.165367     4B1     0.698025
       4B2     0.733658

    Alpha Virtual:

       9A1     0.832456    10A1     0.925768    11A1     1.016080
       5B1     1.032978     1A2     1.062115    12A1     1.075488
       5B2     1.079060     6B1     1.359202     6B2     1.362782
      13A1     1.429418    14A1     1.892097    15A1     3.743968
       7B1     3.745299     7B2     3.747105    16A1     3.800290
       2A2     3.800457

    Beta Occupied:

       1A1  -114.709353     2A1   -24.466593     3A1   -10.798498
       4A1    -8.351326     1B1    -8.333635     1B2    -8.326566
       5A1    -0.860352     6A1    -0.640794     7A1    -0.156537
       2B2    -0.155088     2B1    -0.152106     3B2    -0.106928

    Beta Virtual:

       3B1    -0.013558     8A1     0.021205     4B2     0.873886
       4B1     0.878584     9A1     0.883096    10A1     1.016590
      11A1     1.084590     5B2     1.120126     5B1     1.124917
       1A2     1.155397    12A1     1.160980     6B1     1.380979
       6B2     1.381569    13A1     1.504956    14A1     1.944388
      15A1     3.815793     2A2     3.815971     7B1     3.824803
       7B2     3.824995    16A1     3.850701

    Final Occupation by Irrep:
             A1    A2    B1    B2
    DOCC [     7,    0,    2,    3 ]
    SOCC [     1,    0,    2,    1 ]
    NA   [     8,    0,    4,    4 ]
    NB   [     7,    0,    2,    3 ]

  @DF-UKS Final Energy:  -625.76397250415994

   => Energetics <=

    Nuclear Repulsion Energy =             36.5606552808314831
    One-Electron Energy =                -947.0602875419754128
    Two-Electron Energy =                 318.3074779997909900
    DFT Exchange-Correlation Energy =     -33.5718182428069554
    Empirical Dispersion Energy =           0.0000000000000000
    VV10 Nonlocal Energy =                  0.0000000000000000
    Total Energy =                       -625.7639725041599377

  UHF NO Occupations:
  HONO-2 :    3 B1 1.0000000
  HONO-1 :    8 A1 1.0000000
  HONO-0 :    4 B1 1.0000000
  LUNO+0 :    9 A1 0.0010693
  LUNO+1 :   10 A1 0.0005677
  LUNO+2 :   11 A1 0.0001967
  LUNO+3 :    5 B1 0.0000732

Computation Completed

Properties will be evaluated at   0.000000,   0.000000,   0.000000 [a0]

Properties computed using the SCF density matrix

 Multipole Moments:

 ------------------------------------------------------------------------------------
     Multipole            Electronic (a.u.)      Nuclear  (a.u.)        Total (a.u.)
 ------------------------------------------------------------------------------------

 L = 1.  Multiply by 2.5417464519 to convert [e a0] to [Debye]
 Dipole X            :          0.0000000            0.0000000            0.0000000
 Dipole Y            :          0.0000000            0.0000000            0.0000000
 Dipole Z            :         -0.7669142            1.3294448            0.5625306
 Magnitude           :                                                    0.5625306

 ------------------------------------------------------------------------------------

*** tstop() called on Joses-MacBook-Pro-2.local at Thu Jul 17 10:57:13 2025
Module time:
	user time   =       2.36 seconds =       0.04 minutes
	system time =       3.27 seconds =       0.05 minutes
	total time  =          0 seconds =       0.00 minutes
Total time:
	user time   =      66.31 seconds =       1.11 minutes
	system time =      73.74 seconds =       1.23 minutes
	total time  =         14 seconds =       0.23 minutes

*** tstart() called on Joses-MacBook-Pro-2.local
*** at Thu Jul 17 10:57:13 2025

         ------------------------------------------------------------
                                   SCF GRAD
                          Rob Parrish, Justin Turney,
                       Andy Simmonett, and Alex Sokolov
         ------------------------------------------------------------

  ==> Geometry <==

    Molecular point group: c2v
    Full point group: C_inf_v

    Geometry (in Angstrom), charge = -1, multiplicity = 5:

       Center              X                  Y                   Z               Mass
    ------------   -----------------  -----------------  -----------------  -----------------
         F            0.000000000000     0.000000000000     1.589242932844    18.998403162730
         AR           0.000000000000     0.000000000000    -0.755537473034    39.962383123700

  Nuclear repulsion =   36.560655280831483

  ==> Basis Set <==

  Basis Set: CC-PVDZ
    Blend: CC-PVDZ
    Number of shells: 14
    Number of basis functions: 32
    Number of Cartesian functions: 34
    Spherical Harmonics?: true
    Max angular momentum: 2

  ==> DFJKGrad: Density-Fitted SCF Gradients <==

    Gradient:                    1
    J tasked:                  Yes
    K tasked:                  Yes
    wK tasked:                  No
    OpenMP threads:              1
    Integrals threads:           1
    Memory [MiB]:              375
    Schwarz Cutoff:          1E-12
    Fitting Condition:       1E-10

   => Auxiliary Basis Set <=

  Basis Set: (CC-PVDZ AUX)
    Blend: CC-PVDZ-JKFIT
    Number of shells: 60
    Number of basis functions: 182
    Number of Cartesian functions: 211
    Spherical Harmonics?: true
    Max angular momentum: 3

  ==> DFT Potential <==

   => LibXC <=

    Version 6.2.2
    S. Lehtola, C. Steigemann, M. J.T. Oliveira, and M. A.L. Marques.,  SoftwareX 7, 1â€“5 (2018) (10.1016/j.softx.2017.11.002)

   => Composite Functional: B3LYP <=

    B3LYP Hyb-GGA Exchange-Correlation Functional

    P. J. Stephens, F. J. Devlin, C. F. Chabalowski, and M. J. Frisch.,  J. Phys. Chem. 98, 11623 (1994) (10.1021/j100096a001)

    Deriv               =              1
    GGA                 =           TRUE
    Meta                =          FALSE

    Exchange Hybrid     =           TRUE
    MP2 Hybrid          =          FALSE

   => Exchange Functionals <=

    0.0800   Slater exchange
    0.7200         Becke 88

   => Exact (HF) Exchange <=

    0.2000               HF

   => Correlation Functionals <=

    0.1900   Vosko, Wilk & Nusair (VWN5_RPA)
    0.8100   Lee, Yang & Parr

   => LibXC Density Thresholds  <==

    XC_HYB_GGA_XC_B3LYP:  1.00E-15

   => Molecular Quadrature <=

    Radial Scheme          =       TREUTLER
    Pruning Scheme         =           NONE
    Nuclear Scheme         =       TREUTLER

    Blocking Scheme        =         OCTREE
    BS radius alpha        =              1
    Pruning alpha          =              1
    Radial Points          =             75
    Spherical Points       =            302
    Total Points           =          41431
    Total Blocks           =            372
    Max Points             =            254
    Max Functions          =             32
    Weights Tolerance      =       1.00E-15

  -Total Gradient:
     Atom            X                  Y                   Z
    ------   -----------------  -----------------  -----------------
       1       -0.000000000000     0.000000000000     0.000017765883
       2        0.000000000000    -0.000000000000     0.000042948081

*** tstop() called on Joses-MacBook-Pro-2.local at Thu Jul 17 10:57:13 2025
Module time:
	user time   =       1.04 seconds =       0.02 minutes
	system time =       1.28 seconds =       0.02 minutes
	total time  =          0 seconds =       0.00 minutes
Total time:
	user time   =      67.35 seconds =       1.12 minutes
	system time =      75.02 seconds =       1.25 minutes
	total time  =         14 seconds =       0.23 minutes

    			-----------------------------------------

    			 OPTKING 3.0: for geometry optimizations

    			     By R.A. King, Bethel University

    			        with contributions from

    			    A.V. Copan, J. Cayton, A. Heide

    			-----------------------------------------

	                            ===> Fragment 1 <==

	 Z (Atomic Numbers)          Masses                          Geom
	       9.000000            18.998403          0.00000000  0.00000000  3.00323389
	      18.000000            39.962383          0.00000000  0.00000000 -1.42775890

	 - Coordinate -           - BOHR/RAD -       - ANG/DEG -
	 R(1,2)           =         4.430993           2.344780

	        --- Internal Coordinate Step in ANG or DEG, aJ/ANG or AJ/DEG ---
	-------------------------------------------------------------------------------
	           Coordinate      Previous         Force          Change          New
	           ----------      --------        ------          ------        ------
	               R(1,2)       2.34478        0.00010        0.00019       2.34497
	-------------------------------------------------------------------------------

	                                 ==> Convergence Check <==

	Measures of convergence in internal coordinates in au.

	Criteria marked as inactive (o), active & met (*), and active & unmet ( ).

	----------------------------------------------------------------------------------------------
	   Step    Total Energy     Delta E     Max Force     RMS Force      Max Disp      RMS Disp
	----------------------------------------------------------------------------------------------
	  Convergence Criteria     1.00e-06 *    3.00e-04 *             o    1.20e-03 *             o
	----------------------------------------------------------------------------------------------
	    13    -625.76397250   -1.01e-07 *    1.26e-05 *    1.26e-05 o    3.59e-04 *    3.59e-04 o  ~
	----------------------------------------------------------------------------------------------

Next Geometry in Ang
	Fragment 1 (Ang)

	    F   0.0000000000   0.0000000000   1.5893380231
	   Ar   0.0000000000   0.0000000000  -0.7556325633

    Final optimized geometry and variables:
    Molecular point group: c2v
    Full point group: C_inf_v

    Geometry (in Angstrom), charge = -1, multiplicity = 5:

    F            0.000000000000     0.000000000000     1.589242932844
    AR           0.000000000000     0.000000000000    -0.755537473034

    Psi4 stopped on: Thursday, 17 July 2025 10:57AM
    Psi4 wall time for execution: 0:00:15.51

*** Psi4 exiting successfully. Buy a developer a beer!
