                               Psi4 1.9.1 release

  ==> Input File <==

--------------------------------------------------------------------------
molecule {
-1 5
Al   0.00000        0.60000        0.00000
Si   0.00000       -0.60000        0.00000
}

set {
basis              cc-pvdz
reference          uks
maxiter            500
geom_maxiter       500
DAMPING_PERCENTAGE 1
guess              SAP
}

optimize('b3lyp')
--------------------------------------------------------------------------

    Molecular point group: c2v
  Charge       = -1
  Multiplicity = 5
  Basis Set: CC-PVDZ
    Blend: CC-PVDZ
  Basis Set: (CC-PVDZ AUX)
    Blend: CC-PVDZ-JKFIT
  @DF-UKS Final Energy:  -530.61576050855172
    Total Energy =                       -530.6157605085517162
 Dipole X            :          0.0000000            0.0000000            0.0000000
 Dipole Y            :          0.0000000            0.0000000            0.0000000
 Dipole Z            :         -0.6441888           -0.5793738           -1.2235626
 Magnitude           :                                                    1.2235626
    Molecular point group: c2v
  Basis Set: CC-PVDZ
    Blend: CC-PVDZ
  Basis Set: (CC-PVDZ AUX)
    Blend: CC-PVDZ-JKFIT
  Basis Set: CC-PVDZ
    Blend: CC-PVDZ
  Basis Set: (CC-PVDZ AUX)
    Blend: CC-PVDZ-JKFIT
  @DF-UKS Final Energy:  -530.63272005120155
    Total Energy =                       -530.6327200512015452
  Basis Set: CC-PVDZ
    Blend: CC-PVDZ
  Basis Set: (CC-PVDZ AUX)
    Blend: CC-PVDZ-JKFIT
  Basis Set: CC-PVDZ
    Blend: CC-PVDZ
  @DF-UKS Final Energy:  -530.66548502559726
    Total Energy =                       -530.6654850255972633
  @DF-UKS Final Energy:  -530.78448158992217
    Total Energy =                       -530.7844815899221658
  @DF-UKS Final Energy:  -531.29486964388173
    Total Energy =                       -531.2948696438817251
  @DF-UKS Final Energy:  -531.54953800006820
    Total Energy =                       -531.5495380000681962
  @DF-UKS Final Energy:  -531.67354398407554
    Total Energy =                       -531.6735439840755362
  @DF-UKS Final Energy:  -531.78984387397452
    Total Energy =                       -531.7898438739745188
  @DF-UKS Final Energy:  -531.84030253878143
    Total Energy =                       -531.8403025387814296
  @DF-UKS Final Energy:  -531.84303381118139
    Total Energy =                       -531.8430338111813853
  @DF-UKS Final Energy:  -531.85261586610363
    Total Energy =                       -531.8526158661036334
  @DF-UKS Final Energy:  -531.85468563330596
    Total Energy =                       -531.8546856333059623
  @DF-UKS Final Energy:  -531.85535091181362
    Total Energy =                       -531.8553509118136162
  @DF-UKS Final Energy:  -531.85542138627306
    Total Energy =                       -531.8554213862730649
  Basis Set: (CC-PVDZ AUX)
    Blend: CC-PVDZ-JKFIT
  Basis Set: CC-PVDZ
    Blend: CC-PVDZ
  Basis Set: (CC-PVDZ AUX)
    Blend: CC-PVDZ-JKFIT
  @DF-UKS Final Energy:  -531.85542960901626
    Total Energy =                       -531.8554296090162552
  Basis Set: CC-PVDZ
    Blend: CC-PVDZ
  Basis Set: (CC-PVDZ AUX)
    Blend: CC-PVDZ-JKFIT
  Charge       = -1
  Multiplicity = 5
  Basis Set: CC-PVDZ
    Blend: CC-PVDZ
  Basis Set: (CC-PVDZ AUX)
    Blend: CC-PVDZ-JKFIT

    Orbital Energies [Eh]
    ---------------------

    Alpha Occupied:

       1A1   -65.936529     2A1   -55.859920     3A1    -5.080174
       4A1    -3.940727     1B1    -3.440088     5A1    -3.439268
       1B2    -3.439201     2B1    -2.494882     6A1    -2.493406
       2B2    -2.492488     7A1    -0.268906     8A1    -0.130029
       3B2    -0.006976     9A1    -0.006235     3B1    -0.003065
       4B2     0.067474

    Alpha Virtual:

       4B1     0.112072    10A1     0.180601    11A1     0.325239
      12A1     0.361567     5B2     0.384252     5B1     0.387950
       6B2     0.419187     6B1     0.422878    13A1     0.429768
       1A2     0.438134    14A1     0.441185     7B1     0.500198
       7B2     0.501100    15A1     0.541828     2A2     0.553756
      16A1     0.554149    17A1     0.625988     8B2     0.664019
       8B1     0.664732    18A1     0.870202

    Beta Occupied:

       1A1   -65.930241     2A1   -55.857316     3A1    -5.073118
       4A1    -3.937560     5A1    -3.430162     1B1    -3.430142
       1B2    -3.427391     2B1    -2.492573     6A1    -2.489075
       2B2    -2.485828     7A1    -0.195818     8A1    -0.078818

    Beta Virtual:

       9A1     0.082923     3B1     0.086174     3B2     0.099648
       4B1     0.147240     4B2     0.162726    10A1     0.211530
      11A1     0.350252    12A1     0.391227     5B1     0.400013
       5B2     0.416362     6B1     0.459846    13A1     0.461838
       6B2     0.475523     1A2     0.478739    14A1     0.480688
       7B1     0.536330     7B2     0.543639    15A1     0.576843
       2A2     0.622987    16A1     0.623131    17A1     0.661020
       8B1     0.709856     8B2     0.720808    18A1     0.908216

    Final Occupation by Irrep:
             A1    A2    B1    B2
    DOCC [     8,    0,    2,    2 ]
    SOCC [     1,    0,    1,    2 ]
    NA   [     9,    0,    3,    4 ]
    NB   [     8,    0,    2,    2 ]

  @DF-UKS Final Energy:  -531.85543059687041

   => Energetics <=

    Nuclear Repulsion Energy =             35.5543440558041013
    One-Electron Energy =                -814.2575705568752937
    Two-Electron Energy =                 278.7883043924841218
    DFT Exchange-Correlation Energy =     -31.9405084882833634
    Empirical Dispersion Energy =           0.0000000000000000
    VV10 Nonlocal Energy =                  0.0000000000000000
    Total Energy =                       -531.8554305968704057

  UHF NO Occupations:
  HONO-2 :    4 B2 1.0000000
  HONO-1 :    3 B1 1.0000000
  HONO-0 :    9 A1 1.0000000
  LUNO+0 :   10 A1 0.0014492
  LUNO+1 :   11 A1 0.0001752
  LUNO+2 :    5 B2 0.0000000
  LUNO+3 :   12 A1 0.0000000

Computation Completed

Properties will be evaluated at   0.000000,   0.000000,   0.000000 [a0]

Properties computed using the SCF density matrix

 Multipole Moments:

 ------------------------------------------------------------------------------------
     Multipole            Electronic (a.u.)      Nuclear  (a.u.)        Total (a.u.)
 ------------------------------------------------------------------------------------

 L = 1.  Multiply by 2.5417464519 to convert [e a0] to [Debye]
 Dipole X            :          0.0000000            0.0000000            0.0000000
 Dipole Y            :          0.0000000            0.0000000            0.0000000
 Dipole Z            :          1.0085301           -1.3078486           -0.2993185
 Magnitude           :                                                    0.2993185

 ------------------------------------------------------------------------------------

*** tstop() called on Joses-MacBook-Pro-2.local at Thu Jul 17 11:37:16 2025
Module time:
	user time   =      12.46 seconds =       0.21 minutes
	system time =       1.57 seconds =       0.03 minutes
	total time  =          1 seconds =       0.02 minutes
Total time:
	user time   =     294.97 seconds =       4.92 minutes
	system time =      54.72 seconds =       0.91 minutes
	total time  =         36 seconds =       0.60 minutes

*** tstart() called on Joses-MacBook-Pro-2.local
*** at Thu Jul 17 11:37:16 2025

         ------------------------------------------------------------
                                   SCF GRAD
                          Rob Parrish, Justin Turney,
                       Andy Simmonett, and Alex Sokolov
         ------------------------------------------------------------

  ==> Geometry <==

    Molecular point group: c2v
    Full point group: C_inf_v

    Geometry (in Angstrom), charge = -1, multiplicity = 5:

       Center              X                  Y                   Z               Mass
    ------------   -----------------  -----------------  -----------------  -----------------
         AL           0.000000000000     0.000000000000     1.378939644200    26.981538530000
         SI           0.000000000000     0.000000000000    -1.329878501644    27.976926534650

  Nuclear repulsion =   35.554344055804101

  ==> Basis Set <==

  Basis Set: CC-PVDZ
    Blend: CC-PVDZ
    Number of shells: 16
    Number of basis functions: 36
    Number of Cartesian functions: 38
    Spherical Harmonics?: true
    Max angular momentum: 2

  ==> DFJKGrad: Density-Fitted SCF Gradients <==

    Gradient:                    1
    J tasked:                  Yes
    K tasked:                  Yes
    wK tasked:                  No
    OpenMP threads:              1
    Integrals threads:           1
    Memory [MiB]:              375
    Schwarz Cutoff:          1E-12
    Fitting Condition:       1E-10

   => Auxiliary Basis Set <=

  Basis Set: (CC-PVDZ AUX)
    Blend: CC-PVDZ-JKFIT
    Number of shells: 72
    Number of basis functions: 224
    Number of Cartesian functions: 260
    Spherical Harmonics?: true
    Max angular momentum: 3

  ==> DFT Potential <==

   => LibXC <=

    Version 6.2.2
    S. Lehtola, C. Steigemann, M. J.T. Oliveira, and M. A.L. Marques.,  SoftwareX 7, 1â€“5 (2018) (10.1016/j.softx.2017.11.002)

   => Composite Functional: B3LYP <=

    B3LYP Hyb-GGA Exchange-Correlation Functional

    P. J. Stephens, F. J. Devlin, C. F. Chabalowski, and M. J. Frisch.,  J. Phys. Chem. 98, 11623 (1994) (10.1021/j100096a001)

    Deriv               =              1
    GGA                 =           TRUE
    Meta                =          FALSE

    Exchange Hybrid     =           TRUE
    MP2 Hybrid          =          FALSE

   => Exchange Functionals <=

    0.0800   Slater exchange
    0.7200         Becke 88

   => Exact (HF) Exchange <=

    0.2000               HF

   => Correlation Functionals <=

    0.1900   Vosko, Wilk & Nusair (VWN5_RPA)
    0.8100   Lee, Yang & Parr

   => LibXC Density Thresholds  <==

    XC_HYB_GGA_XC_B3LYP:  1.00E-15

   => Molecular Quadrature <=

    Radial Scheme          =       TREUTLER
    Pruning Scheme         =           NONE
    Nuclear Scheme         =       TREUTLER

    Blocking Scheme        =         OCTREE
    BS radius alpha        =              1
    Pruning alpha          =              1
    Radial Points          =             75
    Spherical Points       =            302
    Total Points           =          42447
    Total Blocks           =            401
    Max Points             =            256
    Max Functions          =             36
    Weights Tolerance      =       1.00E-15

  -Total Gradient:
     Atom            X                  Y                   Z
    ------   -----------------  -----------------  -----------------
       1        0.000000000000    -0.000000000000    -0.000084984759
       2       -0.000000000000     0.000000000000     0.000096664376

*** tstop() called on Joses-MacBook-Pro-2.local at Thu Jul 17 11:37:17 2025
Module time:
	user time   =       3.04 seconds =       0.05 minutes
	system time =       1.44 seconds =       0.02 minutes
	total time  =          1 seconds =       0.02 minutes
Total time:
	user time   =     298.02 seconds =       4.97 minutes
	system time =      56.16 seconds =       0.94 minutes
	total time  =         37 seconds =       0.62 minutes

    			-----------------------------------------

    			 OPTKING 3.0: for geometry optimizations

    			     By R.A. King, Bethel University

    			        with contributions from

    			    A.V. Copan, J. Cayton, A. Heide

    			-----------------------------------------

	                            ===> Fragment 1 <==

	 Z (Atomic Numbers)          Masses                          Geom
	      13.000000            26.981539          0.00000000  0.00000000  2.60581827
	      14.000000            27.976927          0.00000000  0.00000000 -2.51310615

	 - Coordinate -           - BOHR/RAD -       - ANG/DEG -
	 R(1,2)           =         5.118924           2.708818

	        --- Internal Coordinate Step in ANG or DEG, aJ/ANG or AJ/DEG ---
	-------------------------------------------------------------------------------
	           Coordinate      Previous         Force          Change          New
	           ----------      --------        ------          ------        ------
	               R(1,2)       2.70882        0.00075        0.00139       2.71021
	-------------------------------------------------------------------------------

	                                 ==> Convergence Check <==

	Measures of convergence in internal coordinates in au.

	Criteria marked as inactive (o), active & met (*), and active & unmet ( ).

	----------------------------------------------------------------------------------------------
	   Step    Total Energy     Delta E     Max Force     RMS Force      Max Disp      RMS Disp
	----------------------------------------------------------------------------------------------
	  Convergence Criteria     1.00e-06 *    3.00e-04 *             o    1.20e-03 *             o
	----------------------------------------------------------------------------------------------
	    16    -531.85543060   -9.88e-07 *    9.08e-05 *    9.08e-05 o    2.64e-03      2.64e-03 o  ~
	----------------------------------------------------------------------------------------------

Next Geometry in Ang
	Fragment 1 (Ang)

	   Al   0.0000000000   0.0000000000   1.3796368826
	   Si   0.0000000000   0.0000000000  -1.3305757401

    Final optimized geometry and variables:
    Molecular point group: c2v
    Full point group: C_inf_v

    Geometry (in Angstrom), charge = -1, multiplicity = 5:

    AL           0.000000000000     0.000000000000     1.378939644200
    SI           0.000000000000     0.000000000000    -1.329878501644

    Psi4 stopped on: Thursday, 17 July 2025 11:37AM
    Psi4 wall time for execution: 0:00:37.23

*** Psi4 exiting successfully. Buy a developer a beer!
