                               Psi4 1.9.1 release

  ==> Input File <==

--------------------------------------------------------------------------
molecule {
-1 5
He   0.00000        0.60000        0.00000
B   0.00000       -0.60000        0.00000
}

set {
basis              cc-pvdz
reference          uks
maxiter            500
geom_maxiter       500
DAMPING_PERCENTAGE 1
guess              SAP
}

optimize('b3lyp')
--------------------------------------------------------------------------

    Molecular point group: c2v
  Charge       = -1
  Multiplicity = 5
  Basis Set: CC-PVDZ
    Blend: CC-PVDZ
  Basis Set: (CC-PVDZ AUX)
    Blend: CC-PVDZ-JKFIT + DEF2-UNIVERSAL-JKFIT
  @DF-UKS Final Energy:   -27.27437678075846
    Total Energy =                        -27.2743767807584554
 Dipole X            :          0.0000000            0.0000000            0.0000000
 Dipole Y            :          0.0000000            0.0000000            0.0000000
 Dipole Z            :          0.8716750            0.3029614            1.1746364
 Magnitude           :                                                    1.1746364
    Molecular point group: c2v
  Basis Set: CC-PVDZ
    Blend: CC-PVDZ
  Basis Set: (CC-PVDZ AUX)
    Blend: CC-PVDZ-JKFIT + DEF2-UNIVERSAL-JKFIT
  Basis Set: CC-PVDZ
    Blend: CC-PVDZ
  Basis Set: (CC-PVDZ AUX)
    Blend: CC-PVDZ-JKFIT + DEF2-UNIVERSAL-JKFIT
  @DF-UKS Final Energy:   -27.34451129511549
    Total Energy =                        -27.3445112951154883
  Basis Set: CC-PVDZ
    Blend: CC-PVDZ
  Basis Set: (CC-PVDZ AUX)
    Blend: CC-PVDZ-JKFIT + DEF2-UNIVERSAL-JKFIT
  Basis Set: CC-PVDZ
    Blend: CC-PVDZ
  @DF-UKS Final Energy:   -27.41389316947636
    Total Energy =                        -27.4138931694763635
  @DF-UKS Final Energy:   -27.42932769995059
    Total Energy =                        -27.4293276999505906
  @DF-UKS Final Energy:   -27.43788784425955
    Total Energy =                        -27.4378878442595493
  @DF-UKS Final Energy:   -27.44278795658026
    Total Energy =                        -27.4427879565802613
  @DF-UKS Final Energy:   -27.44557496554451
    Total Energy =                        -27.4455749655445125
  @DF-UKS Final Energy:   -27.44709621609343
    Total Energy =                        -27.4470962160934349
  @DF-UKS Final Energy:   -27.44788472020217
    Total Energy =                        -27.4478847202021683
  @DF-UKS Final Energy:   -27.44827245289770
    Total Energy =                        -27.4482724528977045
  @DF-UKS Final Energy:   -27.44845257877469
    Total Energy =                        -27.4484525787746882
  @DF-UKS Final Energy:   -27.44853202209604
    Total Energy =                        -27.4485320220960389
  @DF-UKS Final Energy:   -27.44856585937104
    Total Energy =                        -27.4485658593710404
  @DF-UKS Final Energy:   -27.44858022006922
    Total Energy =                        -27.4485802200692177
  @DF-UKS Final Energy:   -27.44858558409291
    Total Energy =                        -27.4485855840929140
  @DF-UKS Final Energy:   -27.44858774112561
    Total Energy =                        -27.4485877411256141
  Basis Set: (CC-PVDZ AUX)
    Blend: CC-PVDZ-JKFIT + DEF2-UNIVERSAL-JKFIT
  Basis Set: CC-PVDZ
    Blend: CC-PVDZ
  Basis Set: (CC-PVDZ AUX)
    Blend: CC-PVDZ-JKFIT + DEF2-UNIVERSAL-JKFIT
  @DF-UKS Final Energy:   -27.44858906308243
    Total Energy =                        -27.4485890630824301
  Basis Set: CC-PVDZ
    Blend: CC-PVDZ
  Basis Set: (CC-PVDZ AUX)
    Blend: CC-PVDZ-JKFIT + DEF2-UNIVERSAL-JKFIT
  Charge       = -1
  Multiplicity = 5
  Basis Set: CC-PVDZ
    Blend: CC-PVDZ
  Basis Set: (CC-PVDZ AUX)
    Blend: CC-PVDZ-JKFIT + DEF2-UNIVERSAL-JKFIT

    Orbital Energies [Eh]
    ---------------------

    Alpha Occupied:

       1A1    -6.526223     2A1    -0.535188     3A1    -0.137761
       1B2     0.091855     1B1     0.091855     4A1     0.091861

    Alpha Virtual:

       5A1     0.531802     2B1     0.531904     2B2     0.531904
       6A1     0.592113     7A1     0.955670     3B1     0.955675
       3B2     0.955675     1A2     0.955682     8A1     0.955682
       9A1     1.233999     4B1     2.303640     4B2     2.303640
      10A1     2.304620

    Beta Occupied:

       1A1    -6.488426     2A1    -0.535185

    Beta Virtual:

       3A1     0.130420     4A1     0.302391     1B2     0.303130
       1B1     0.303130     5A1     0.641384     2B2     0.642266
       2B1     0.642266     6A1     0.712906     7A1     1.134367
       1A2     1.134378     8A1     1.134503     3B2     1.134532
       3B1     1.134532     9A1     1.233990     4B1     2.303648
       4B2     2.303648    10A1     2.304633

    Final Occupation by Irrep:
             A1    A2    B1    B2
    DOCC [     2,    0,    0,    0 ]
    SOCC [     2,    0,    1,    1 ]
    NA   [     4,    0,    1,    1 ]
    NB   [     2,    0,    0,    0 ]

  @DF-UKS Final Energy:   -27.44858912454296

   => Energetics <=

    Nuclear Repulsion Energy =              1.1470661406947507
    One-Electron Energy =                 -40.1924275843076515
    Two-Electron Energy =                  15.8330947459701594
    DFT Exchange-Correlation Energy =      -4.2363224269002124
    Empirical Dispersion Energy =           0.0000000000000000
    VV10 Nonlocal Energy =                  0.0000000000000000
    Total Energy =                        -27.4485891245429592

  UHF NO Occupations:
  HONO-2 :    3 A1 1.0000000
  HONO-1 :    1 B2 1.0000000
  HONO-0 :    4 A1 1.0000000
  LUNO+0 :    5 A1 0.0000005
  LUNO+1 :    6 A1 0.0000000
  LUNO+2 :    2 B1 0.0000000
  LUNO+3 :    3 B1 0.0000000

Computation Completed

Properties will be evaluated at   0.000000,   0.000000,   0.000000 [a0]

Properties computed using the SCF density matrix

 Multipole Moments:

 ------------------------------------------------------------------------------------
     Multipole            Electronic (a.u.)      Nuclear  (a.u.)        Total (a.u.)
 ------------------------------------------------------------------------------------

 L = 1.  Multiply by 2.5417464519 to convert [e a0] to [Debye]
 Dipole X            :          0.0000000            0.0000000            0.0000000
 Dipole Y            :          0.0000000            0.0000000            0.0000000
 Dipole Z            :          1.1555691            1.1647125            2.3202817
 Magnitude           :                                                    2.3202817

 ------------------------------------------------------------------------------------

*** tstop() called on Joses-MacBook-Pro-2.local at Thu Jul 17 09:18:46 2025
Module time:
	user time   =       0.68 seconds =       0.01 minutes
	system time =       3.13 seconds =       0.05 minutes
	total time  =          0 seconds =       0.00 minutes
Total time:
	user time   =      21.54 seconds =       0.36 minutes
	system time =      73.38 seconds =       1.22 minutes
	total time  =         10 seconds =       0.17 minutes

*** tstart() called on Joses-MacBook-Pro-2.local
*** at Thu Jul 17 09:18:46 2025

         ------------------------------------------------------------
                                   SCF GRAD
                          Rob Parrish, Justin Turney,
                       Andy Simmonett, and Alex Sokolov
         ------------------------------------------------------------

  ==> Geometry <==

    Molecular point group: c2v
    Full point group: C_inf_v

    Geometry (in Angstrom), charge = -1, multiplicity = 5:

       Center              X                  Y                   Z               Mass
    ------------   -----------------  -----------------  -----------------  -----------------
         HE           0.000000000000     0.000000000000     3.383270158578     4.002603254130
         B            0.000000000000     0.000000000000    -1.230040198133    11.009305360000

  Nuclear repulsion =    1.147066140694751

  ==> Basis Set <==

  Basis Set: CC-PVDZ
    Blend: CC-PVDZ
    Number of shells: 9
    Number of basis functions: 19
    Number of Cartesian functions: 20
    Spherical Harmonics?: true
    Max angular momentum: 2

  ==> DFJKGrad: Density-Fitted SCF Gradients <==

    Gradient:                    1
    J tasked:                  Yes
    K tasked:                  Yes
    wK tasked:                  No
    OpenMP threads:              1
    Integrals threads:           1
    Memory [MiB]:              375
    Schwarz Cutoff:          1E-12
    Fitting Condition:       1E-10

   => Auxiliary Basis Set <=

  Basis Set: (CC-PVDZ AUX)
    Blend: CC-PVDZ-JKFIT + DEF2-UNIVERSAL-JKFIT
    Number of shells: 33
    Number of basis functions: 93
    Number of Cartesian functions: 106
    Spherical Harmonics?: true
    Max angular momentum: 3

  ==> DFT Potential <==

   => LibXC <=

    Version 6.2.2
    S. Lehtola, C. Steigemann, M. J.T. Oliveira, and M. A.L. Marques.,  SoftwareX 7, 1â€“5 (2018) (10.1016/j.softx.2017.11.002)

   => Composite Functional: B3LYP <=

    B3LYP Hyb-GGA Exchange-Correlation Functional

    P. J. Stephens, F. J. Devlin, C. F. Chabalowski, and M. J. Frisch.,  J. Phys. Chem. 98, 11623 (1994) (10.1021/j100096a001)

    Deriv               =              1
    GGA                 =           TRUE
    Meta                =          FALSE

    Exchange Hybrid     =           TRUE
    MP2 Hybrid          =          FALSE

   => Exchange Functionals <=

    0.0800   Slater exchange
    0.7200         Becke 88

   => Exact (HF) Exchange <=

    0.2000               HF

   => Correlation Functionals <=

    0.1900   Vosko, Wilk & Nusair (VWN5_RPA)
    0.8100   Lee, Yang & Parr

   => LibXC Density Thresholds  <==

    XC_HYB_GGA_XC_B3LYP:  1.00E-15

   => Molecular Quadrature <=

    Radial Scheme          =       TREUTLER
    Pruning Scheme         =           NONE
    Nuclear Scheme         =       TREUTLER

    Blocking Scheme        =         OCTREE
    BS radius alpha        =              1
    Pruning alpha          =              1
    Radial Points          =             75
    Spherical Points       =            302
    Total Points           =          43689
    Total Blocks           =            430
    Max Points             =            254
    Max Functions          =             19
    Weights Tolerance      =       1.00E-15

  -Total Gradient:
     Atom            X                  Y                   Z
    ------   -----------------  -----------------  -----------------
       1        0.000000000000    -0.000000000000    -0.000004580109
       2       -0.000000000000     0.000000000000     0.000003543579

*** tstop() called on Joses-MacBook-Pro-2.local at Thu Jul 17 09:18:46 2025
Module time:
	user time   =       0.27 seconds =       0.00 minutes
	system time =       0.61 seconds =       0.01 minutes
	total time  =          0 seconds =       0.00 minutes
Total time:
	user time   =      21.81 seconds =       0.36 minutes
	system time =      73.99 seconds =       1.23 minutes
	total time  =         10 seconds =       0.17 minutes

    			-----------------------------------------

    			 OPTKING 3.0: for geometry optimizations

    			     By R.A. King, Bethel University

    			        with contributions from

    			    A.V. Copan, J. Cayton, A. Heide

    			-----------------------------------------

	                            ===> Fragment 1 <==

	 Z (Atomic Numbers)          Masses                          Geom
	       2.000000             4.002603          0.00000000  0.00000000  6.39345401
	       5.000000            11.009305          0.00000000  0.00000000 -2.32443910

	 - Coordinate -           - BOHR/RAD -       - ANG/DEG -
	 R(1,2)           =         8.717893           4.613310

	        --- Internal Coordinate Step in ANG or DEG, aJ/ANG or AJ/DEG ---
	-------------------------------------------------------------------------------
	           Coordinate      Previous         Force          Change          New
	           ----------      --------        ------          ------        ------
	               R(1,2)       4.61331        0.00003        0.06915       4.68246
	-------------------------------------------------------------------------------

	                                 ==> Convergence Check <==

	Measures of convergence in internal coordinates in au.

	Criteria marked as inactive (o), active & met (*), and active & unmet ( ).

	----------------------------------------------------------------------------------------------
	   Step    Total Energy     Delta E     Max Force     RMS Force      Max Disp      RMS Disp
	----------------------------------------------------------------------------------------------
	  Convergence Criteria     1.00e-06 *    3.00e-04 *             o    1.20e-03 *             o
	----------------------------------------------------------------------------------------------
	    18     -27.44858912   -6.15e-08 *    4.06e-06 *    4.06e-06 o    1.31e-01      1.31e-01 o  ~
	----------------------------------------------------------------------------------------------

Next Geometry in Ang
	Fragment 1 (Ang)

	   He   0.0000000000   0.0000000000   3.4178446396
	    B   0.0000000000   0.0000000000  -1.2646146791

    Final optimized geometry and variables:
    Molecular point group: c2v
    Full point group: C_inf_v

    Geometry (in Angstrom), charge = -1, multiplicity = 5:

    HE           0.000000000000     0.000000000000     3.383270158578
    B            0.000000000000     0.000000000000    -1.230040198133

    Psi4 stopped on: Thursday, 17 July 2025 09:18AM
    Psi4 wall time for execution: 0:00:10.68

*** Psi4 exiting successfully. Buy a developer a beer!
