                               Psi4 1.9.1 release

  ==> Input File <==

--------------------------------------------------------------------------
molecule {
-1 5
Li   0.00000        0.60000        0.00000
S   0.00000       -0.60000        0.00000
}

set {
basis              cc-pvdz
reference          uks
maxiter            500
geom_maxiter       500
DAMPING_PERCENTAGE 1
guess              SAP
}

optimize('b3lyp')
--------------------------------------------------------------------------

    Molecular point group: c2v
  Charge       = -1
  Multiplicity = 5
  Basis Set: CC-PVDZ
    Blend: CC-PVDZ
  Basis Set: (CC-PVDZ AUX)
    Blend: CC-PVDZ-JKFIT + DEF2-UNIVERSAL-JKFIT
  @DF-UKS Final Energy:  -405.08874660811881
    Total Energy =                       -405.0887466081187540
 Dipole X            :          0.0000000            0.0000000            0.0000000
 Dipole Y            :          0.0000000            0.0000000            0.0000000
 Dipole Z            :         -2.3889167           -0.9503775           -3.3392942
 Magnitude           :                                                    3.3392942
    Molecular point group: c2v
  Basis Set: CC-PVDZ
    Blend: CC-PVDZ
  Basis Set: (CC-PVDZ AUX)
    Blend: CC-PVDZ-JKFIT + DEF2-UNIVERSAL-JKFIT
  Basis Set: CC-PVDZ
    Blend: CC-PVDZ
  Basis Set: (CC-PVDZ AUX)
    Blend: CC-PVDZ-JKFIT + DEF2-UNIVERSAL-JKFIT
  @DF-UKS Final Energy:  -405.23359881090153
    Total Energy =                       -405.2335988109014693
  Basis Set: CC-PVDZ
    Blend: CC-PVDZ
  Basis Set: (CC-PVDZ AUX)
    Blend: CC-PVDZ-JKFIT + DEF2-UNIVERSAL-JKFIT
  Basis Set: CC-PVDZ
    Blend: CC-PVDZ
  @DF-UKS Final Energy:  -405.36777416899935
    Total Energy =                       -405.3677741689993468
  @DF-UKS Final Energy:  -405.46495624243738
    Total Energy =                       -405.4649562424374380
  @DF-UKS Final Energy:  -405.52138110403638
    Total Energy =                       -405.5213811040363794
  @DF-UKS Final Energy:  -405.55168928516679
    Total Energy =                       -405.5516892851667308
  @DF-UKS Final Energy:  -405.56927561107142
    Total Energy =                       -405.5692756110714754
  @DF-UKS Final Energy:  -405.57995881029200
    Total Energy =                       -405.5799588102919984
  @DF-UKS Final Energy:  -405.58712755610105
    Total Energy =                       -405.5871275561010521
  @DF-UKS Final Energy:  -405.59251948682919
    Total Energy =                       -405.5925194868291896
  @DF-UKS Final Energy:  -405.59277979481971
    Total Energy =                       -405.5927797948196485
  @DF-UKS Final Energy:  -405.59731595157064
    Total Energy =                       -405.5973159515706357
  @DF-UKS Final Energy:  -405.59743585434217
    Total Energy =                       -405.5974358543421658
  @DF-UKS Final Energy:  -405.60025279714682
    Total Energy =                       -405.6002527971468794
  @DF-UKS Final Energy:  -405.60030263200849
    Total Energy =                       -405.6003026320083791
  @DF-UKS Final Energy:  -405.60188478983150
    Total Energy =                       -405.6018847898314448
  @DF-UKS Final Energy:  -405.60190327178071
    Total Energy =                       -405.6019032717807136
  @DF-UKS Final Energy:  -405.60275553154264
    Total Energy =                       -405.6027555315425843
  @DF-UKS Final Energy:  -405.60276192155146
    Total Energy =                       -405.6027619215514051
  @DF-UKS Final Energy:  -405.60276824376950
    Total Energy =                       -405.6027682437695603
  @DF-UKS Final Energy:  -405.60322249392391
    Total Energy =                       -405.6032224939239654
  @DF-UKS Final Energy:  -405.60322453150451
    Total Energy =                       -405.6032245315045657
  @DF-UKS Final Energy:  -405.60322655417048
    Total Energy =                       -405.6032265541705328
  @DF-UKS Final Energy:  -405.60322856224587
    Total Energy =                       -405.6032285622459312
  @DF-UKS Final Energy:  -405.60323055588867
    Total Energy =                       -405.6032305558886151
  Basis Set: (CC-PVDZ AUX)
    Blend: CC-PVDZ-JKFIT + DEF2-UNIVERSAL-JKFIT
  Basis Set: CC-PVDZ
    Blend: CC-PVDZ
  Basis Set: (CC-PVDZ AUX)
    Blend: CC-PVDZ-JKFIT + DEF2-UNIVERSAL-JKFIT
  @DF-UKS Final Energy:  -405.60345688771821
    Total Energy =                       -405.6034568877182096
  Basis Set: CC-PVDZ
    Blend: CC-PVDZ
  Basis Set: (CC-PVDZ AUX)
    Blend: CC-PVDZ-JKFIT + DEF2-UNIVERSAL-JKFIT
  Charge       = -1
  Multiplicity = 5
  Basis Set: CC-PVDZ
    Blend: CC-PVDZ
  Basis Set: (CC-PVDZ AUX)
    Blend: CC-PVDZ-JKFIT + DEF2-UNIVERSAL-JKFIT

    Orbital Energies [Eh]
    ---------------------

    Alpha Occupied:

       1A1   -88.838284     2A1    -7.896487     1B2    -5.865706
       3A1    -5.865682     1B1    -5.846006     4A1    -1.866498
       5A1    -0.627731     2B2    -0.236739     6A1    -0.235878
       2B1    -0.188654     7A1     0.009978     3B2     0.058683

    Alpha Virtual:

       3B1     0.098184     8A1     0.098946     4B2     0.193746
       4B1     0.206873     9A1     0.206969    10A1     0.210880
       5B2     0.363374     1A2     0.364015    11A1     0.364029
      12A1     0.370489     5B1     0.373137    13A1     0.539290
       6B2     0.548942     6B1     0.579152    14A1     0.602871
       7B2     0.615269    15A1     0.619034     2A2     0.652768
       7B1     0.653633    16A1     0.667671

    Beta Occupied:

       1A1   -88.827455     2A1    -7.885428     1B2    -5.844298
       3A1    -5.844246     1B1    -5.839453     4A1    -1.860105
       5A1    -0.534801     2B1    -0.161870

    Beta Virtual:

       2B2    -0.079388     6A1    -0.079073     7A1     0.094425
       3B1     0.127434     8A1     0.129766     3B2     0.136344
       4B1     0.226109     9A1     0.226888     4B2     0.237150
      10A1     0.239635    11A1     0.408933     5B1     0.413146
       1A2     0.424792     5B2     0.425324    12A1     0.428087
      13A1     0.580906     6B1     0.592020     6B2     0.598757
      14A1     0.649251     2A2     0.710071     7B1     0.710865
      15A1     0.713581     7B2     0.723289    16A1     0.724189

    Final Occupation by Irrep:
             A1    A2    B1    B2
    DOCC [     5,    0,    2,    1 ]
    SOCC [     2,    0,    0,    2 ]
    NA   [     7,    0,    2,    3 ]
    NB   [     5,    0,    2,    1 ]

  @DF-UKS Final Energy:  -405.60345747243406

   => Energetics <=

    Nuclear Repulsion Energy =              4.9476788267932079
    One-Electron Energy =                -571.0857265152167201
    Two-Electron Energy =                 182.7492687007533334
    DFT Exchange-Correlation Energy =     -22.2146784847638337
    Empirical Dispersion Energy =           0.0000000000000000
    VV10 Nonlocal Energy =                  0.0000000000000000
    Total Energy =                       -405.6034574724340587

  UHF NO Occupations:
  HONO-2 :    6 A1 1.0000000
  HONO-1 :    7 A1 1.0000000
  HONO-0 :    3 B2 1.0000000
  LUNO+0 :    8 A1 0.0010310
  LUNO+1 :    3 B1 0.0001093
  LUNO+2 :    9 A1 0.0000004
  LUNO+3 :   10 A1 0.0000000

Computation Completed

Properties will be evaluated at   0.000000,   0.000000,   0.000000 [a0]

Properties computed using the SCF density matrix

 Multipole Moments:

 ------------------------------------------------------------------------------------
     Multipole            Electronic (a.u.)      Nuclear  (a.u.)        Total (a.u.)
 ------------------------------------------------------------------------------------

 L = 1.  Multiply by 2.5417464519 to convert [e a0] to [Debye]
 Dipole X            :          0.0000000            0.0000000            0.0000000
 Dipole Y            :          0.0000000            0.0000000            0.0000000
 Dipole Z            :         -3.8510836           -4.0658915           -7.9169751
 Magnitude           :                                                    7.9169751

 ------------------------------------------------------------------------------------

*** tstop() called on Joses-MacBook-Pro-2.local at Thu Jul 17 09:36:30 2025
Module time:
	user time   =       1.74 seconds =       0.03 minutes
	system time =       2.88 seconds =       0.05 minutes
	total time  =          0 seconds =       0.00 minutes
Total time:
	user time   =     114.02 seconds =       1.90 minutes
	system time =     137.90 seconds =       2.30 minutes
	total time  =         25 seconds =       0.42 minutes

*** tstart() called on Joses-MacBook-Pro-2.local
*** at Thu Jul 17 09:36:30 2025

         ------------------------------------------------------------
                                   SCF GRAD
                          Rob Parrish, Justin Turney,
                       Andy Simmonett, and Alex Sokolov
         ------------------------------------------------------------

  ==> Geometry <==

    Molecular point group: c2v
    Full point group: C_inf_v

    Geometry (in Angstrom), charge = -1, multiplicity = 5:

       Center              X                  Y                   Z               Mass
    ------------   -----------------  -----------------  -----------------  -----------------
         LI           0.000000000000     0.000000000000     4.209978254693     7.016003436600
         S            0.000000000000     0.000000000000    -0.923844493584    31.972071174400

  Nuclear repulsion =    4.947678826793208

  ==> Basis Set <==

  Basis Set: CC-PVDZ
    Blend: CC-PVDZ
    Number of shells: 14
    Number of basis functions: 32
    Number of Cartesian functions: 34
    Spherical Harmonics?: true
    Max angular momentum: 2

  ==> DFJKGrad: Density-Fitted SCF Gradients <==

    Gradient:                    1
    J tasked:                  Yes
    K tasked:                  Yes
    wK tasked:                  No
    OpenMP threads:              1
    Integrals threads:           1
    Memory [MiB]:              375
    Schwarz Cutoff:          1E-12
    Fitting Condition:       1E-10

   => Auxiliary Basis Set <=

  Basis Set: (CC-PVDZ AUX)
    Blend: CC-PVDZ-JKFIT + DEF2-UNIVERSAL-JKFIT
    Number of shells: 53
    Number of basis functions: 163
    Number of Cartesian functions: 190
    Spherical Harmonics?: true
    Max angular momentum: 3

  ==> DFT Potential <==

   => LibXC <=

    Version 6.2.2
    S. Lehtola, C. Steigemann, M. J.T. Oliveira, and M. A.L. Marques.,  SoftwareX 7, 1â€“5 (2018) (10.1016/j.softx.2017.11.002)

   => Composite Functional: B3LYP <=

    B3LYP Hyb-GGA Exchange-Correlation Functional

    P. J. Stephens, F. J. Devlin, C. F. Chabalowski, and M. J. Frisch.,  J. Phys. Chem. 98, 11623 (1994) (10.1021/j100096a001)

    Deriv               =              1
    GGA                 =           TRUE
    Meta                =          FALSE

    Exchange Hybrid     =           TRUE
    MP2 Hybrid          =          FALSE

   => Exchange Functionals <=

    0.0800   Slater exchange
    0.7200         Becke 88

   => Exact (HF) Exchange <=

    0.2000               HF

   => Correlation Functionals <=

    0.1900   Vosko, Wilk & Nusair (VWN5_RPA)
    0.8100   Lee, Yang & Parr

   => LibXC Density Thresholds  <==

    XC_HYB_GGA_XC_B3LYP:  1.00E-15

   => Molecular Quadrature <=

    Radial Scheme          =       TREUTLER
    Pruning Scheme         =           NONE
    Nuclear Scheme         =       TREUTLER

    Blocking Scheme        =         OCTREE
    BS radius alpha        =              1
    Pruning alpha          =              1
    Radial Points          =             75
    Spherical Points       =            302
    Total Points           =          44412
    Total Blocks           =            468
    Max Points             =            255
    Max Functions          =             32
    Weights Tolerance      =       1.00E-15

  -Total Gradient:
     Atom            X                  Y                   Z
    ------   -----------------  -----------------  -----------------
       1        0.000000000000    -0.000000000000    -0.000256070527
       2        0.000000000000     0.000000000000     0.000259757883

*** tstop() called on Joses-MacBook-Pro-2.local at Thu Jul 17 09:36:30 2025
Module time:
	user time   =       0.75 seconds =       0.01 minutes
	system time =       1.48 seconds =       0.02 minutes
	total time  =          0 seconds =       0.00 minutes
Total time:
	user time   =     114.77 seconds =       1.91 minutes
	system time =     139.38 seconds =       2.32 minutes
	total time  =         25 seconds =       0.42 minutes

    			-----------------------------------------

    			 OPTKING 3.0: for geometry optimizations

    			     By R.A. King, Bethel University

    			        with contributions from

    			    A.V. Copan, J. Cayton, A. Heide

    			-----------------------------------------

	                            ===> Fragment 1 <==

	 Z (Atomic Numbers)          Masses                          Geom
	       3.000000             7.016003          0.00000000  0.00000000  7.95570590
	      16.000000            31.972071          0.00000000  0.00000000 -1.74581308

	 - Coordinate -           - BOHR/RAD -       - ANG/DEG -
	 R(1,2)           =         9.701519           5.133823

	        --- Internal Coordinate Step in ANG or DEG, aJ/ANG or AJ/DEG ---
	-------------------------------------------------------------------------------
	           Coordinate      Previous         Force          Change          New
	           ----------      --------        ------          ------        ------
	               R(1,2)       5.13382        0.00212        0.00118       5.13500
	-------------------------------------------------------------------------------

	                                 ==> Convergence Check <==

	Measures of convergence in internal coordinates in au.

	Criteria marked as inactive (o), active & met (*), and active & unmet ( ).

	----------------------------------------------------------------------------------------------
	   Step    Total Energy     Delta E     Max Force     RMS Force      Max Disp      RMS Disp
	----------------------------------------------------------------------------------------------
	  Convergence Criteria     1.00e-06 *    3.00e-04 *             o    1.20e-03 *             o
	----------------------------------------------------------------------------------------------
	    27    -405.60345747   -5.85e-07 *    2.58e-04 *    2.58e-04 o    2.23e-03      2.23e-03 o  ~
	----------------------------------------------------------------------------------------------

Next Geometry in Ang
	Fragment 1 (Ang)

	   Li   0.0000000000   0.0000000000   4.2105678370
	    S   0.0000000000   0.0000000000  -0.9244340759

    Final optimized geometry and variables:
    Molecular point group: c2v
    Full point group: C_inf_v

    Geometry (in Angstrom), charge = -1, multiplicity = 5:

    LI           0.000000000000     0.000000000000     4.209978254693
    S            0.000000000000     0.000000000000    -0.923844493584

    Psi4 stopped on: Thursday, 17 July 2025 09:36AM
    Psi4 wall time for execution: 0:00:25.80

*** Psi4 exiting successfully. Buy a developer a beer!
