                               Psi4 1.9.1 release

  ==> Input File <==

--------------------------------------------------------------------------
molecule {
-1 5
N   0.00000        0.60000        0.00000
Ne   0.00000       -0.60000        0.00000
}

set {
basis              cc-pvdz
reference          uks
maxiter            500
geom_maxiter       500
DAMPING_PERCENTAGE 1
guess              SAP
}

optimize('b3lyp')
--------------------------------------------------------------------------

    Molecular point group: c2v
  Charge       = -1
  Multiplicity = 5
  Basis Set: CC-PVDZ
    Blend: CC-PVDZ
  Basis Set: (CC-PVDZ AUX)
    Blend: CC-PVDZ-JKFIT
  @DF-UKS Final Energy:  -182.30000549386281
    Total Energy =                       -182.3000054938628409
 Dipole X            :          0.0000000            0.0000000            0.0000000
 Dipole Y            :          0.0000000            0.0000000            0.0000000
 Dipole Z            :         -1.9157882           -0.0055805           -1.9213687
 Magnitude           :                                                    1.9213687
    Molecular point group: c2v
  Basis Set: CC-PVDZ
    Blend: CC-PVDZ
  Basis Set: (CC-PVDZ AUX)
    Blend: CC-PVDZ-JKFIT
  Basis Set: CC-PVDZ
    Blend: CC-PVDZ
  Basis Set: (CC-PVDZ AUX)
    Blend: CC-PVDZ-JKFIT
  @DF-UKS Final Energy:  -182.52618796465191
    Total Energy =                       -182.5261879646519105
  Basis Set: CC-PVDZ
    Blend: CC-PVDZ
  Basis Set: (CC-PVDZ AUX)
    Blend: CC-PVDZ-JKFIT
  Basis Set: CC-PVDZ
    Blend: CC-PVDZ
  @DF-UKS Final Energy:  -182.55688063968512
    Total Energy =                       -182.5568806396851187
  @DF-UKS Final Energy:  -182.60182895671014
    Total Energy =                       -182.6018289567101647
  @DF-UKS Final Energy:  -182.63511919931102
    Total Energy =                       -182.6351191993110206
  @DF-UKS Final Energy:  -182.68482271938240
    Total Energy =                       -182.6848227193824243
  @DF-UKS Final Energy:  -182.69735201601125
    Total Energy =                       -182.6973520160112514
  @DF-UKS Final Energy:  -182.71464143523056
    Total Energy =                       -182.7146414352305612
  @DF-UKS Final Energy:  -182.71512697074166
    Total Energy =                       -182.7151269707416645
  @DF-UKS Final Energy:  -182.71599932817136
    Total Energy =                       -182.7159993281713639
  @DF-UKS Final Energy:  -182.71603944143206
    Total Energy =                       -182.7160394414320592
  Basis Set: (CC-PVDZ AUX)
    Blend: CC-PVDZ-JKFIT
  Basis Set: CC-PVDZ
    Blend: CC-PVDZ
  Basis Set: (CC-PVDZ AUX)
    Blend: CC-PVDZ-JKFIT
  @DF-UKS Final Energy:  -182.71604168445478
    Total Energy =                       -182.7160416844547512
  Basis Set: CC-PVDZ
    Blend: CC-PVDZ
  Basis Set: (CC-PVDZ AUX)
    Blend: CC-PVDZ-JKFIT
  Charge       = -1
  Multiplicity = 5
  Basis Set: CC-PVDZ
    Blend: CC-PVDZ
  Basis Set: (CC-PVDZ AUX)
    Blend: CC-PVDZ-JKFIT

    Orbital Energies [Eh]
    ---------------------

    Alpha Occupied:

       1A1   -30.737608     2A1   -13.869809     3A1    -1.209575
       4A1    -0.369163     1B2    -0.319488     1B1    -0.319488
       5A1    -0.314981     6A1     0.068945     2B2     0.078318
       2B1     0.078318     7A1     0.920941

    Alpha Virtual:

       3B2     1.034624     3B1     1.034624     8A1     1.127684
       4B2     1.575189     4B1     1.575189     9A1     1.625242
      10A1     2.056347     1A2     2.093886    11A1     2.093889
       5B1     2.112174     5B2     2.112174    12A1     2.124948
       2A2     4.946491    13A1     4.946564     6B1     4.949928
       6B2     4.949928    14A1     4.951975

    Beta Occupied:

       1A1   -30.735655     2A1   -13.798615     3A1    -1.207394
       1B2    -0.318400     1B1    -0.318400     4A1    -0.310547
       5A1    -0.167504

    Beta Virtual:

       2B1     0.313649     2B2     0.313649     6A1     0.353873
       3B2     1.162455     3B1     1.162455     7A1     1.188801
       8A1     1.264935     4B2     1.576071     4B1     1.576071
       9A1     1.642308    10A1     2.065107     1A2     2.233973
      11A1     2.233977     5B1     2.261063     5B2     2.261063
      12A1     2.272995     2A2     4.947070    13A1     4.947143
       6B1     4.951770     6B2     4.951770    14A1     4.954256

    Final Occupation by Irrep:
             A1    A2    B1    B2
    DOCC [     5,    0,    1,    1 ]
    SOCC [     2,    0,    1,    1 ]
    NA   [     7,    0,    2,    2 ]
    NB   [     5,    0,    1,    1 ]

  @DF-UKS Final Energy:  -182.71604180893385

   => Energetics <=

    Nuclear Repulsion Energy =             13.0507403890625913
    One-Electron Energy =                -287.2631403840445046
    Two-Electron Energy =                 107.4324321772230348
    DFT Exchange-Correlation Energy =     -15.9360739911749558
    Empirical Dispersion Energy =           0.0000000000000000
    VV10 Nonlocal Energy =                  0.0000000000000000
    Total Energy =                       -182.7160418089338521

  UHF NO Occupations:
  HONO-2 :    2 B2 1.0000000
  HONO-1 :    2 B1 1.0000000
  HONO-0 :    7 A1 1.0000000
  LUNO+0 :    8 A1 0.0011011
  LUNO+1 :    9 A1 0.0000040
  LUNO+2 :    3 B2 0.0000002
  LUNO+3 :    3 B1 0.0000002

Computation Completed

Properties will be evaluated at   0.000000,   0.000000,   0.000000 [a0]

Properties computed using the SCF density matrix

 Multipole Moments:

 ------------------------------------------------------------------------------------
     Multipole            Electronic (a.u.)      Nuclear  (a.u.)        Total (a.u.)
 ------------------------------------------------------------------------------------

 L = 1.  Multiply by 2.5417464519 to convert [e a0] to [Debye]
 Dipole X            :          0.0000000            0.0000000            0.0000000
 Dipole Y            :          0.0000000            0.0000000            0.0000000
 Dipole Z            :         -2.8897866           -0.0131994           -2.9029859
 Magnitude           :                                                    2.9029859

 ------------------------------------------------------------------------------------

*** tstop() called on Joses-MacBook-Pro-2.local at Thu Jul 17 10:27:56 2025
Module time:
	user time   =       4.11 seconds =       0.07 minutes
	system time =       2.82 seconds =       0.05 minutes
	total time  =          1 seconds =       0.02 minutes
Total time:
	user time   =      62.67 seconds =       1.04 minutes
	system time =      74.08 seconds =       1.23 minutes
	total time  =         15 seconds =       0.25 minutes

*** tstart() called on Joses-MacBook-Pro-2.local
*** at Thu Jul 17 10:27:56 2025

         ------------------------------------------------------------
                                   SCF GRAD
                          Rob Parrish, Justin Turney,
                       Andy Simmonett, and Alex Sokolov
         ------------------------------------------------------------

  ==> Geometry <==

    Molecular point group: c2v
    Full point group: C_inf_v

    Geometry (in Angstrom), charge = -1, multiplicity = 5:

       Center              X                  Y                   Z               Mass
    ------------   -----------------  -----------------  -----------------  -----------------
         N            0.000000000000     0.000000000000     1.669199373739    14.003074004430
         NE           0.000000000000     0.000000000000    -1.169138041811    19.992440176200

  Nuclear repulsion =   13.050740389062591

  ==> Basis Set <==

  Basis Set: CC-PVDZ
    Blend: CC-PVDZ
    Number of shells: 12
    Number of basis functions: 28
    Number of Cartesian functions: 30
    Spherical Harmonics?: true
    Max angular momentum: 2

  ==> DFJKGrad: Density-Fitted SCF Gradients <==

    Gradient:                    1
    J tasked:                  Yes
    K tasked:                  Yes
    wK tasked:                  No
    OpenMP threads:              1
    Integrals threads:           1
    Memory [MiB]:              375
    Schwarz Cutoff:          1E-12
    Fitting Condition:       1E-10

   => Auxiliary Basis Set <=

  Basis Set: (CC-PVDZ AUX)
    Blend: CC-PVDZ-JKFIT
    Number of shells: 48
    Number of basis functions: 140
    Number of Cartesian functions: 162
    Spherical Harmonics?: true
    Max angular momentum: 3

  ==> DFT Potential <==

   => LibXC <=

    Version 6.2.2
    S. Lehtola, C. Steigemann, M. J.T. Oliveira, and M. A.L. Marques.,  SoftwareX 7, 1â€“5 (2018) (10.1016/j.softx.2017.11.002)

   => Composite Functional: B3LYP <=

    B3LYP Hyb-GGA Exchange-Correlation Functional

    P. J. Stephens, F. J. Devlin, C. F. Chabalowski, and M. J. Frisch.,  J. Phys. Chem. 98, 11623 (1994) (10.1021/j100096a001)

    Deriv               =              1
    GGA                 =           TRUE
    Meta                =          FALSE

    Exchange Hybrid     =           TRUE
    MP2 Hybrid          =          FALSE

   => Exchange Functionals <=

    0.0800   Slater exchange
    0.7200         Becke 88

   => Exact (HF) Exchange <=

    0.2000               HF

   => Correlation Functionals <=

    0.1900   Vosko, Wilk & Nusair (VWN5_RPA)
    0.8100   Lee, Yang & Parr

   => LibXC Density Thresholds  <==

    XC_HYB_GGA_XC_B3LYP:  1.00E-15

   => Molecular Quadrature <=

    Radial Scheme          =       TREUTLER
    Pruning Scheme         =           NONE
    Nuclear Scheme         =       TREUTLER

    Blocking Scheme        =         OCTREE
    BS radius alpha        =              1
    Pruning alpha          =              1
    Radial Points          =             75
    Spherical Points       =            302
    Total Points           =          42885
    Total Blocks           =            380
    Max Points             =            255
    Max Functions          =             28
    Weights Tolerance      =       1.00E-15

  -Total Gradient:
     Atom            X                  Y                   Z
    ------   -----------------  -----------------  -----------------
       1       -0.000000000000     0.000000000000    -0.000025825358
       2        0.000000000000     0.000000000000     0.000029521996

*** tstop() called on Joses-MacBook-Pro-2.local at Thu Jul 17 10:27:56 2025
Module time:
	user time   =       0.40 seconds =       0.01 minutes
	system time =       1.36 seconds =       0.02 minutes
	total time  =          0 seconds =       0.00 minutes
Total time:
	user time   =      63.09 seconds =       1.05 minutes
	system time =      75.44 seconds =       1.26 minutes
	total time  =         15 seconds =       0.25 minutes

    			-----------------------------------------

    			 OPTKING 3.0: for geometry optimizations

    			     By R.A. King, Bethel University

    			        with contributions from

    			    A.V. Copan, J. Cayton, A. Heide

    			-----------------------------------------

	                            ===> Fragment 1 <==

	 Z (Atomic Numbers)          Masses                          Geom
	       7.000000            14.003074          0.00000000  0.00000000  3.15432967
	      10.000000            19.992440          0.00000000  0.00000000 -2.20935070

	 - Coordinate -           - BOHR/RAD -       - ANG/DEG -
	 R(1,2)           =         5.363680           2.838337

	        --- Internal Coordinate Step in ANG or DEG, aJ/ANG or AJ/DEG ---
	-------------------------------------------------------------------------------
	           Coordinate      Previous         Force          Change          New
	           ----------      --------        ------          ------        ------
	               R(1,2)       2.83834        0.00023        0.00030       2.83863
	-------------------------------------------------------------------------------

	                                 ==> Convergence Check <==

	Measures of convergence in internal coordinates in au.

	Criteria marked as inactive (o), active & met (*), and active & unmet ( ).

	----------------------------------------------------------------------------------------------
	   Step    Total Energy     Delta E     Max Force     RMS Force      Max Disp      RMS Disp
	----------------------------------------------------------------------------------------------
	  Convergence Criteria     1.00e-06 *    3.00e-04 *             o    1.20e-03 *             o
	----------------------------------------------------------------------------------------------
	    13    -182.71604181   -1.24e-07 *    2.77e-05 *    2.77e-05 o    5.59e-04 *    5.59e-04 o  ~
	----------------------------------------------------------------------------------------------

Next Geometry in Ang
	Fragment 1 (Ang)

	    N   0.0000000000   0.0000000000   1.6693472955
	   Ne   0.0000000000   0.0000000000  -1.1692859635

    Final optimized geometry and variables:
    Molecular point group: c2v
    Full point group: C_inf_v

    Geometry (in Angstrom), charge = -1, multiplicity = 5:

    N            0.000000000000     0.000000000000     1.669199373739
    NE           0.000000000000     0.000000000000    -1.169138041811

    Psi4 stopped on: Thursday, 17 July 2025 10:27AM
    Psi4 wall time for execution: 0:00:15.54

*** Psi4 exiting successfully. Buy a developer a beer!
