                               Psi4 1.9.1 release

  ==> Input File <==

--------------------------------------------------------------------------
molecule {
-1 5
Ne   0.00000        0.60000        0.00000
Cl   0.00000       -0.60000        0.00000
}

set {
basis              cc-pvdz
reference          uks
maxiter            500
geom_maxiter       500
DAMPING_PERCENTAGE 1
guess              SAP
}

optimize('b3lyp')
--------------------------------------------------------------------------

    Molecular point group: c2v
  Charge       = -1
  Multiplicity = 5
  Basis Set: CC-PVDZ
    Blend: CC-PVDZ
  Basis Set: (CC-PVDZ AUX)
    Blend: CC-PVDZ-JKFIT
  @DF-UKS Final Energy:  -587.07060013908767
    Total Energy =                       -587.0706001390876736
 Dipole X            :          0.0000000            0.0000000            0.0000000
 Dipole Y            :          0.0000000            0.0000000            0.0000000
 Dipole Z            :          1.9683531            0.4050456            2.3733987
 Magnitude           :                                                    2.3733987
    Molecular point group: c2v
  Basis Set: CC-PVDZ
    Blend: CC-PVDZ
  Basis Set: (CC-PVDZ AUX)
    Blend: CC-PVDZ-JKFIT
  Basis Set: CC-PVDZ
    Blend: CC-PVDZ
  Basis Set: (CC-PVDZ AUX)
    Blend: CC-PVDZ-JKFIT
  @DF-UKS Final Energy:  -587.32088725611857
    Total Energy =                       -587.3208872561184535
  Basis Set: CC-PVDZ
    Blend: CC-PVDZ
  Basis Set: (CC-PVDZ AUX)
    Blend: CC-PVDZ-JKFIT
  Basis Set: CC-PVDZ
    Blend: CC-PVDZ
  @DF-UKS Final Energy:  -587.55532129681819
    Total Energy =                       -587.5553212968183061
  @DF-UKS Final Energy:  -587.66577048931094
    Total Energy =                       -587.6657704893109440
  @DF-UKS Final Energy:  -587.69624224630206
    Total Energy =                       -587.6962422463020630
  @DF-UKS Final Energy:  -587.71087436677146
    Total Energy =                       -587.7108743667714634
  @DF-UKS Final Energy:  -587.71543772708367
    Total Energy =                       -587.7154377270837813
  @DF-UKS Final Energy:  -587.71823647258464
    Total Energy =                       -587.7182364725846355
  @DF-UKS Final Energy:  -587.72052917346878
    Total Energy =                       -587.7205291734686625
  @DF-UKS Final Energy:  -587.72282770926006
    Total Energy =                       -587.7228277092600592
  @DF-UKS Final Energy:  -587.73565599920903
    Total Energy =                       -587.7356559992090297
  @DF-UKS Final Energy:  -587.76148189661671
    Total Energy =                       -587.7614818966167149
  @DF-UKS Final Energy:  -587.76168250906085
    Total Energy =                       -587.7616825090608472
  @DF-UKS Final Energy:  -587.76288742350528
    Total Energy =                       -587.7628874235052763
  @DF-UKS Final Energy:  -587.76301950426375
    Total Energy =                       -587.7630195042637524
  @DF-UKS Final Energy:  -587.76303893076681
    Total Energy =                       -587.7630389307666974
  Basis Set: (CC-PVDZ AUX)
    Blend: CC-PVDZ-JKFIT
  Basis Set: CC-PVDZ
    Blend: CC-PVDZ
  Basis Set: (CC-PVDZ AUX)
    Blend: CC-PVDZ-JKFIT
  @DF-UKS Final Energy:  -587.76304249823602
    Total Energy =                       -587.7630424982360182
  Basis Set: CC-PVDZ
    Blend: CC-PVDZ
  Basis Set: (CC-PVDZ AUX)
    Blend: CC-PVDZ-JKFIT
  Charge       = -1
  Multiplicity = 5
  Basis Set: CC-PVDZ
    Blend: CC-PVDZ
  Basis Set: (CC-PVDZ AUX)
    Blend: CC-PVDZ-JKFIT

    Orbital Energies [Eh]
    ---------------------

    Alpha Occupied:

       1A1  -101.141965     2A1   -30.787984     3A1    -9.115168
       4A1    -6.879071     1B1    -6.879039     1B2    -6.860785
       5A1    -1.255671     6A1    -0.567113     2B2    -0.364863
       2B1    -0.364789     7A1    -0.362958     3B1    -0.116420
       8A1    -0.115965     3B2    -0.068895     9A1     0.677261
       4B1     0.678567

    Alpha Virtual:

       4B2     0.783484    10A1     0.810376    11A1     0.943238
       5B1     0.943322     5B2     0.970604     1A2     0.970704
      12A1     0.982711     6B2     1.532140     6B1     1.532286
      13A1     1.555149    14A1     2.000574     2A2     4.900802
      15A1     4.901006     7B2     4.902368     7B1     4.902421
      16A1     4.903340

    Beta Occupied:

       1A1  -101.113921     2A1   -30.787205     3A1    -9.088019
       1B2    -6.844647     4A1    -6.826460     1B1    -6.826223
       5A1    -1.254724     6A1    -0.432522     2B2    -0.364444
       2B1    -0.364328     7A1    -0.360726     3B2    -0.027424

    Beta Virtual:

       3B1     0.093032     8A1     0.093276     4B2     0.823268
       9A1     0.857495     4B1     0.861601    10A1     0.908538
      11A1     1.043835     5B2     1.048043     1A2     1.048235
      12A1     1.084154     5B1     1.084265     6B2     1.532170
       6B1     1.532386    13A1     1.558597    14A1     2.002266
       2A2     4.901081    15A1     4.901285     7B2     4.903193
       7B1     4.903261    16A1     4.904361

    Final Occupation by Irrep:
             A1    A2    B1    B2
    DOCC [     7,    0,    2,    3 ]
    SOCC [     2,    0,    2,    0 ]
    NA   [     9,    0,    4,    3 ]
    NB   [     7,    0,    2,    3 ]

  @DF-UKS Final Energy:  -587.76304329100708

   => Energetics <=

    Nuclear Repulsion Energy =             27.3213687207781817
    One-Electron Energy =                -878.7554205106335985
    Two-Electron Energy =                 296.8124888562589376
    DFT Exchange-Correlation Energy =     -33.1414803574107779
    Empirical Dispersion Energy =           0.0000000000000000
    VV10 Nonlocal Energy =                  0.0000000000000000
    Total Energy =                       -587.7630432910071931

  UHF NO Occupations:
  HONO-2 :    8 A1 1.0000000
  HONO-1 :    4 B1 1.0000000
  HONO-0 :    9 A1 1.0000000
  LUNO+0 :   10 A1 0.0016382
  LUNO+1 :    4 B2 0.0001556
  LUNO+2 :   11 A1 0.0000013
  LUNO+3 :    5 B1 0.0000001

Computation Completed

Properties will be evaluated at   0.000000,   0.000000,   0.000000 [a0]

Properties computed using the SCF density matrix

 Multipole Moments:

 ------------------------------------------------------------------------------------
     Multipole            Electronic (a.u.)      Nuclear  (a.u.)        Total (a.u.)
 ------------------------------------------------------------------------------------

 L = 1.  Multiply by 2.5417464519 to convert [e a0] to [Debye]
 Dipole X            :          0.0000000            0.0000000            0.0000000
 Dipole Y            :          0.0000000            0.0000000            0.0000000
 Dipole Z            :          1.0493983            1.1113997            2.1607979
 Magnitude           :                                                    2.1607979

 ------------------------------------------------------------------------------------

*** tstop() called on Joses-MacBook-Pro-2.local at Thu Jul 17 11:04:28 2025
Module time:
	user time   =       2.29 seconds =       0.04 minutes
	system time =       3.42 seconds =       0.06 minutes
	total time  =          1 seconds =       0.02 minutes
Total time:
	user time   =     110.45 seconds =       1.84 minutes
	system time =      83.68 seconds =       1.39 minutes
	total time  =         20 seconds =       0.33 minutes

*** tstart() called on Joses-MacBook-Pro-2.local
*** at Thu Jul 17 11:04:28 2025

         ------------------------------------------------------------
                                   SCF GRAD
                          Rob Parrish, Justin Turney,
                       Andy Simmonett, and Alex Sokolov
         ------------------------------------------------------------

  ==> Geometry <==

    Molecular point group: c2v
    Full point group: C_inf_v

    Geometry (in Angstrom), charge = -1, multiplicity = 5:

       Center              X                  Y                   Z               Mass
    ------------   -----------------  -----------------  -----------------  -----------------
         NE           0.000000000000     0.000000000000     2.094942199487    19.992440176200
         CL           0.000000000000     0.000000000000    -1.197723213190    34.968852682000

  Nuclear repulsion =   27.321368720778182

  ==> Basis Set <==

  Basis Set: CC-PVDZ
    Blend: CC-PVDZ
    Number of shells: 14
    Number of basis functions: 32
    Number of Cartesian functions: 34
    Spherical Harmonics?: true
    Max angular momentum: 2

  ==> DFJKGrad: Density-Fitted SCF Gradients <==

    Gradient:                    1
    J tasked:                  Yes
    K tasked:                  Yes
    wK tasked:                  No
    OpenMP threads:              1
    Integrals threads:           1
    Memory [MiB]:              375
    Schwarz Cutoff:          1E-12
    Fitting Condition:       1E-10

   => Auxiliary Basis Set <=

  Basis Set: (CC-PVDZ AUX)
    Blend: CC-PVDZ-JKFIT
    Number of shells: 60
    Number of basis functions: 182
    Number of Cartesian functions: 211
    Spherical Harmonics?: true
    Max angular momentum: 3

  ==> DFT Potential <==

   => LibXC <=

    Version 6.2.2
    S. Lehtola, C. Steigemann, M. J.T. Oliveira, and M. A.L. Marques.,  SoftwareX 7, 1â€“5 (2018) (10.1016/j.softx.2017.11.002)

   => Composite Functional: B3LYP <=

    B3LYP Hyb-GGA Exchange-Correlation Functional

    P. J. Stephens, F. J. Devlin, C. F. Chabalowski, and M. J. Frisch.,  J. Phys. Chem. 98, 11623 (1994) (10.1021/j100096a001)

    Deriv               =              1
    GGA                 =           TRUE
    Meta                =          FALSE

    Exchange Hybrid     =           TRUE
    MP2 Hybrid          =          FALSE

   => Exchange Functionals <=

    0.0800   Slater exchange
    0.7200         Becke 88

   => Exact (HF) Exchange <=

    0.2000               HF

   => Correlation Functionals <=

    0.1900   Vosko, Wilk & Nusair (VWN5_RPA)
    0.8100   Lee, Yang & Parr

   => LibXC Density Thresholds  <==

    XC_HYB_GGA_XC_B3LYP:  1.00E-15

   => Molecular Quadrature <=

    Radial Scheme          =       TREUTLER
    Pruning Scheme         =           NONE
    Nuclear Scheme         =       TREUTLER

    Blocking Scheme        =         OCTREE
    BS radius alpha        =              1
    Pruning alpha          =              1
    Radial Points          =             75
    Spherical Points       =            302
    Total Points           =          42016
    Total Blocks           =            380
    Max Points             =            255
    Max Functions          =             32
    Weights Tolerance      =       1.00E-15

  -Total Gradient:
     Atom            X                  Y                   Z
    ------   -----------------  -----------------  -----------------
       1        0.000000000000    -0.000000000000    -0.000042324599
       2        0.000000000000     0.000000000000     0.000057456316

*** tstop() called on Joses-MacBook-Pro-2.local at Thu Jul 17 11:04:28 2025
Module time:
	user time   =       1.31 seconds =       0.02 minutes
	system time =       1.26 seconds =       0.02 minutes
	total time  =          0 seconds =       0.00 minutes
Total time:
	user time   =     111.76 seconds =       1.86 minutes
	system time =      84.95 seconds =       1.42 minutes
	total time  =         20 seconds =       0.33 minutes

    			-----------------------------------------

    			 OPTKING 3.0: for geometry optimizations

    			     By R.A. King, Bethel University

    			        with contributions from

    			    A.V. Copan, J. Cayton, A. Heide

    			-----------------------------------------

	                            ===> Fragment 1 <==

	 Z (Atomic Numbers)          Masses                          Geom
	      10.000000            19.992440          0.00000000  0.00000000  3.95886701
	      17.000000            34.968853          0.00000000  0.00000000 -2.26336885

	 - Coordinate -           - BOHR/RAD -       - ANG/DEG -
	 R(1,2)           =         6.222236           3.292665

	        --- Internal Coordinate Step in ANG or DEG, aJ/ANG or AJ/DEG ---
	-------------------------------------------------------------------------------
	           Coordinate      Previous         Force          Change          New
	           ----------      --------        ------          ------        ------
	               R(1,2)       3.29267        0.00041        0.00191       3.29458
	-------------------------------------------------------------------------------

	                                 ==> Convergence Check <==

	Measures of convergence in internal coordinates in au.

	Criteria marked as inactive (o), active & met (*), and active & unmet ( ).

	----------------------------------------------------------------------------------------------
	   Step    Total Energy     Delta E     Max Force     RMS Force      Max Disp      RMS Disp
	----------------------------------------------------------------------------------------------
	  Convergence Criteria     1.00e-06 *    3.00e-04 *             o    1.20e-03 *             o
	----------------------------------------------------------------------------------------------
	    18    -587.76304329   -7.93e-07 *    4.99e-05 *    4.99e-05 o    3.61e-03      3.61e-03 o  ~
	----------------------------------------------------------------------------------------------

Next Geometry in Ang
	Fragment 1 (Ang)

	   Ne   0.0000000000   0.0000000000   2.0958984334
	   Cl   0.0000000000   0.0000000000  -1.1986794471

    Final optimized geometry and variables:
    Molecular point group: c2v
    Full point group: C_inf_v

    Geometry (in Angstrom), charge = -1, multiplicity = 5:

    NE           0.000000000000     0.000000000000     2.094942199487
    CL           0.000000000000     0.000000000000    -1.197723213190

    Psi4 stopped on: Thursday, 17 July 2025 11:04AM
    Psi4 wall time for execution: 0:00:21.32

*** Psi4 exiting successfully. Buy a developer a beer!
