                               Psi4 1.9.1 release

  ==> Input File <==

--------------------------------------------------------------------------
molecule {
-1 5
O   0.00000        0.60000        0.00000
Na   0.00000       -0.60000        0.00000
}

set {
basis              cc-pvdz
reference          uks
maxiter            500
geom_maxiter       500
DAMPING_PERCENTAGE 1
guess              SAP
}

optimize('b3lyp')
--------------------------------------------------------------------------

    Molecular point group: c2v
  Charge       = -1
  Multiplicity = 5
  Basis Set: CC-PVDZ
    Blend: CC-PVDZ
  Basis Set: (CC-PVDZ AUX)
    Blend: CC-PVDZ-JKFIT + DEF2-UNIVERSAL-JKFIT
  @DF-UKS Final Energy:  -236.84093232385268
    Total Energy =                       -236.8409323238526838
 Dipole X            :          0.0000000            0.0000000            0.0000000
 Dipole Y            :          0.0000000            0.0000000            0.0000000
 Dipole Z            :          1.2260900            0.4638392            1.6899291
 Magnitude           :                                                    1.6899291
    Molecular point group: c2v
  Basis Set: CC-PVDZ
    Blend: CC-PVDZ
  Basis Set: (CC-PVDZ AUX)
    Blend: CC-PVDZ-JKFIT + DEF2-UNIVERSAL-JKFIT
  Basis Set: CC-PVDZ
    Blend: CC-PVDZ
  Basis Set: (CC-PVDZ AUX)
    Blend: CC-PVDZ-JKFIT + DEF2-UNIVERSAL-JKFIT
  @DF-UKS Final Energy:  -237.05081573939367
    Total Energy =                       -237.0508157393936699
  Basis Set: CC-PVDZ
    Blend: CC-PVDZ
  Basis Set: (CC-PVDZ AUX)
    Blend: CC-PVDZ-JKFIT + DEF2-UNIVERSAL-JKFIT
  Basis Set: CC-PVDZ
    Blend: CC-PVDZ
  @DF-UKS Final Energy:  -237.18489120567273
    Total Energy =                       -237.1848912056727272
  @DF-UKS Final Energy:  -237.25931608157128
    Total Energy =                       -237.2593160815712849
  @DF-UKS Final Energy:  -237.29683569371417
    Total Energy =                       -237.2968356937141721
  @DF-UKS Final Energy:  -237.31666996784810
    Total Energy =                       -237.3166699678480995
  @DF-UKS Final Energy:  -237.32737466447028
    Total Energy =                       -237.3273746644702840
  @DF-UKS Final Energy:  -237.33346148567696
    Total Energy =                       -237.3334614856769633
  @DF-UKS Final Energy:  -237.33718813805237
    Total Energy =                       -237.3371881380523689
  @DF-UKS Final Energy:  -237.33966214975598
    Total Energy =                       -237.3396621497559806
  @DF-UKS Final Energy:  -237.34140246713594
    Total Energy =                       -237.3414024671359357
  @DF-UKS Final Energy:  -237.34262338957370
    Total Energy =                       -237.3426233895737028
  @DF-UKS Final Energy:  -237.34263472497364
    Total Energy =                       -237.3426347249736352
  @DF-UKS Final Energy:  -237.34264595672059
    Total Energy =                       -237.3426459567205882
  @DF-UKS Final Energy:  -237.34354662177634
    Total Energy =                       -237.3435466217763405
  @DF-UKS Final Energy:  -237.34355069699427
    Total Energy =                       -237.3435506969942708
  @DF-UKS Final Energy:  -237.34355474853467
    Total Energy =                       -237.3435547485346717
  @DF-UKS Final Energy:  -237.34355877183032
    Total Energy =                       -237.3435587718303168
  @DF-UKS Final Energy:  -237.34403883462079
    Total Energy =                       -237.3440388346207897
  @DF-UKS Final Energy:  -237.34404022472799
    Total Energy =                       -237.3440402247279906
  @DF-UKS Final Energy:  -237.34404161115640
    Total Energy =                       -237.3440416111563991
  @DF-UKS Final Energy:  -237.34404299186070
    Total Energy =                       -237.3440429918607038
  @DF-UKS Final Energy:  -237.34404436682448
    Total Energy =                       -237.3440443668244768
  @DF-UKS Final Energy:  -237.34404573622149
    Total Energy =                       -237.3440457362214886
  @DF-UKS Final Energy:  -237.34404709992845
    Total Energy =                       -237.3440470999284173
  Basis Set: (CC-PVDZ AUX)
    Blend: CC-PVDZ-JKFIT + DEF2-UNIVERSAL-JKFIT
  Basis Set: CC-PVDZ
    Blend: CC-PVDZ
  Basis Set: (CC-PVDZ AUX)
    Blend: CC-PVDZ-JKFIT + DEF2-UNIVERSAL-JKFIT
  @DF-UKS Final Energy:  -237.34431303690232
    Total Energy =                       -237.3443130369023208
  Basis Set: CC-PVDZ
    Blend: CC-PVDZ
  Basis Set: (CC-PVDZ AUX)
    Blend: CC-PVDZ-JKFIT + DEF2-UNIVERSAL-JKFIT
  Charge       = -1
  Multiplicity = 5
  Basis Set: CC-PVDZ
    Blend: CC-PVDZ
  Basis Set: (CC-PVDZ AUX)
    Blend: CC-PVDZ-JKFIT + DEF2-UNIVERSAL-JKFIT

    Orbital Energies [Eh]
    ---------------------

    Alpha Occupied:

       1A1   -38.341468     2A1   -19.175514     3A1    -2.086344
       4A1    -1.017734     1B2    -1.017644     1B1    -1.016489
       5A1    -0.905650     6A1    -0.343892     2B1    -0.343500
       2B2    -0.267192     7A1    -0.000197     3B1     0.053962

    Alpha Virtual:

       3B2     0.088942     8A1     0.091181     9A1     0.158681
       4B1     0.185112    10A1     0.192007     4B2     0.192909
       5B1     0.287634     1A2     0.287903    11A1     0.289869
       5B2     0.292825    12A1     0.294159     6B1     0.920753
      13A1     0.943330     6B2     0.967506    14A1     1.232333
       7B1     2.540015    15A1     2.541021     2A2     2.598050
       7B2     2.598124    16A1     2.619200

    Beta Occupied:

       1A1   -38.340074     2A1   -19.125490     3A1    -2.083638
       4A1    -1.016077     1B2    -1.015987     1B1    -1.014179
       5A1    -0.747354     2B2    -0.215591

    Beta Virtual:

       6A1    -0.065341     2B1    -0.062294     7A1     0.067457
       3B2     0.110095     8A1     0.113396     3B1     0.117353
       9A1     0.179291     4B2     0.211591    10A1     0.211906
       4B1     0.220581     5B2     0.316967    11A1     0.318485
       1A2     0.326146     5B1     0.326447    12A1     0.330583
       6B2     0.997149     6B1     1.033976    13A1     1.054736
      14A1     1.313581     7B2     2.689083     2A2     2.689188
      15A1     2.696836     7B1     2.713793    16A1     2.714743

    Final Occupation by Irrep:
             A1    A2    B1    B2
    DOCC [     5,    0,    1,    2 ]
    SOCC [     2,    0,    2,    0 ]
    NA   [     7,    0,    3,    2 ]
    NB   [     5,    0,    1,    2 ]

  @DF-UKS Final Energy:  -237.34431345851749

   => Energetics <=

    Nuclear Repulsion Energy =             11.1083758727128110
    One-Electron Energy =                -355.5905414994378475
    Two-Electron Energy =                 125.6972016206680820
    DFT Exchange-Correlation Energy =     -18.5593494524605802
    Empirical Dispersion Energy =           0.0000000000000000
    VV10 Nonlocal Energy =                  0.0000000000000000
    Total Energy =                       -237.3443134585175471

  UHF NO Occupations:
  HONO-2 :    3 B1 1.0000000
  HONO-1 :    6 A1 1.0000000
  HONO-0 :    7 A1 1.0000000
  LUNO+0 :    8 A1 0.0007698
  LUNO+1 :    3 B2 0.0002701
  LUNO+2 :    4 B2 0.0000004
  LUNO+3 :    9 A1 0.0000004

Computation Completed

Properties will be evaluated at   0.000000,   0.000000,   0.000000 [a0]

Properties computed using the SCF density matrix

 Multipole Moments:

 ------------------------------------------------------------------------------------
     Multipole            Electronic (a.u.)      Nuclear  (a.u.)        Total (a.u.)
 ------------------------------------------------------------------------------------

 L = 1.  Multiply by 2.5417464519 to convert [e a0] to [Debye]
 Dipole X            :          0.0000000            0.0000000            0.0000000
 Dipole Y            :          0.0000000            0.0000000            0.0000000
 Dipole Z            :          1.7354717            1.6203895            3.3558612
 Magnitude           :                                                    3.3558612

 ------------------------------------------------------------------------------------

*** tstop() called on Joses-MacBook-Pro-2.local at Thu Jul 17 10:40:42 2025
Module time:
	user time   =       2.45 seconds =       0.04 minutes
	system time =       2.04 seconds =       0.03 minutes
	total time  =          1 seconds =       0.02 minutes
Total time:
	user time   =     111.74 seconds =       1.86 minutes
	system time =     135.14 seconds =       2.25 minutes
	total time  =         26 seconds =       0.43 minutes

*** tstart() called on Joses-MacBook-Pro-2.local
*** at Thu Jul 17 10:40:42 2025

         ------------------------------------------------------------
                                   SCF GRAD
                          Rob Parrish, Justin Turney,
                       Andy Simmonett, and Alex Sokolov
         ------------------------------------------------------------

  ==> Geometry <==

    Molecular point group: c2v
    Full point group: C_inf_v

    Geometry (in Angstrom), charge = -1, multiplicity = 5:

       Center              X                  Y                   Z               Mass
    ------------   -----------------  -----------------  -----------------  -----------------
         O            0.000000000000     0.000000000000     2.472144396722    15.994914619570
         NA           0.000000000000     0.000000000000    -1.719971090957    22.989769282000

  Nuclear repulsion =   11.108375872712811

  ==> Basis Set <==

  Basis Set: CC-PVDZ
    Blend: CC-PVDZ
    Number of shells: 14
    Number of basis functions: 32
    Number of Cartesian functions: 34
    Spherical Harmonics?: true
    Max angular momentum: 2

  ==> DFJKGrad: Density-Fitted SCF Gradients <==

    Gradient:                    1
    J tasked:                  Yes
    K tasked:                  Yes
    wK tasked:                  No
    OpenMP threads:              1
    Integrals threads:           1
    Memory [MiB]:              375
    Schwarz Cutoff:          1E-12
    Fitting Condition:       1E-10

   => Auxiliary Basis Set <=

  Basis Set: (CC-PVDZ AUX)
    Blend: CC-PVDZ-JKFIT + DEF2-UNIVERSAL-JKFIT
    Number of shells: 58
    Number of basis functions: 182
    Number of Cartesian functions: 218
    Spherical Harmonics?: true
    Max angular momentum: 4

  ==> DFT Potential <==

   => LibXC <=

    Version 6.2.2
    S. Lehtola, C. Steigemann, M. J.T. Oliveira, and M. A.L. Marques.,  SoftwareX 7, 1â€“5 (2018) (10.1016/j.softx.2017.11.002)

   => Composite Functional: B3LYP <=

    B3LYP Hyb-GGA Exchange-Correlation Functional

    P. J. Stephens, F. J. Devlin, C. F. Chabalowski, and M. J. Frisch.,  J. Phys. Chem. 98, 11623 (1994) (10.1021/j100096a001)

    Deriv               =              1
    GGA                 =           TRUE
    Meta                =          FALSE

    Exchange Hybrid     =           TRUE
    MP2 Hybrid          =          FALSE

   => Exchange Functionals <=

    0.0800   Slater exchange
    0.7200         Becke 88

   => Exact (HF) Exchange <=

    0.2000               HF

   => Correlation Functionals <=

    0.1900   Vosko, Wilk & Nusair (VWN5_RPA)
    0.8100   Lee, Yang & Parr

   => LibXC Density Thresholds  <==

    XC_HYB_GGA_XC_B3LYP:  1.00E-15

   => Molecular Quadrature <=

    Radial Scheme          =       TREUTLER
    Pruning Scheme         =           NONE
    Nuclear Scheme         =       TREUTLER

    Blocking Scheme        =         OCTREE
    BS radius alpha        =              1
    Pruning alpha          =              1
    Radial Points          =             75
    Spherical Points       =            302
    Total Points           =          43909
    Total Blocks           =            444
    Max Points             =            255
    Max Functions          =             32
    Weights Tolerance      =       1.00E-15

  -Total Gradient:
     Atom            X                  Y                   Z
    ------   -----------------  -----------------  -----------------
       1        0.000000000000    -0.000000000000    -0.000250676326
       2        0.000000000000     0.000000000000     0.000286031554

*** tstop() called on Joses-MacBook-Pro-2.local at Thu Jul 17 10:40:42 2025
Module time:
	user time   =       1.48 seconds =       0.02 minutes
	system time =       1.20 seconds =       0.02 minutes
	total time  =          0 seconds =       0.00 minutes
Total time:
	user time   =     113.23 seconds =       1.89 minutes
	system time =     136.34 seconds =       2.27 minutes
	total time  =         26 seconds =       0.43 minutes

    			-----------------------------------------

    			 OPTKING 3.0: for geometry optimizations

    			     By R.A. King, Bethel University

    			        with contributions from

    			    A.V. Copan, J. Cayton, A. Heide

    			-----------------------------------------

	                            ===> Fragment 1 <==

	 Z (Atomic Numbers)          Masses                          Geom
	       8.000000            15.994915          0.00000000  0.00000000  4.67167585
	      11.000000            22.989769          0.00000000  0.00000000 -3.25027431

	 - Coordinate -           - BOHR/RAD -       - ANG/DEG -
	 R(1,2)           =         7.921950           4.192115

	        --- Internal Coordinate Step in ANG or DEG, aJ/ANG or AJ/DEG ---
	-------------------------------------------------------------------------------
	           Coordinate      Previous         Force          Change          New
	           ----------      --------        ------          ------        ------
	               R(1,2)       4.19212        0.00221        0.00073       4.19285
	-------------------------------------------------------------------------------

	                                 ==> Convergence Check <==

	Measures of convergence in internal coordinates in au.

	Criteria marked as inactive (o), active & met (*), and active & unmet ( ).

	----------------------------------------------------------------------------------------------
	   Step    Total Energy     Delta E     Max Force     RMS Force      Max Disp      RMS Disp
	----------------------------------------------------------------------------------------------
	  Convergence Criteria     1.00e-06 *    3.00e-04 *             o    1.20e-03 *             o
	----------------------------------------------------------------------------------------------
	    27    -237.34431346   -4.22e-07 *    2.68e-04 *    2.68e-04 o    1.38e-03      1.38e-03 o  ~
	----------------------------------------------------------------------------------------------

Next Geometry in Ang
	Fragment 1 (Ang)

	    O   0.0000000000   0.0000000000   2.4725092394
	   Na   0.0000000000   0.0000000000  -1.7203359336

    Final optimized geometry and variables:
    Molecular point group: c2v
    Full point group: C_inf_v

    Geometry (in Angstrom), charge = -1, multiplicity = 5:

    O            0.000000000000     0.000000000000     2.472144396722
    NA           0.000000000000     0.000000000000    -1.719971090957

    Psi4 stopped on: Thursday, 17 July 2025 10:40AM
    Psi4 wall time for execution: 0:00:26.49

*** Psi4 exiting successfully. Buy a developer a beer!
