                               Psi4 1.9.1 release

  ==> Input File <==

--------------------------------------------------------------------------
molecule {
-1 5
P   0.00000        0.60000        0.00000
Ar   0.00000       -0.60000        0.00000
}

set {
basis              cc-pvdz
reference          uks
maxiter            500
geom_maxiter       500
DAMPING_PERCENTAGE 1
guess              SAP
}

optimize('b3lyp')
--------------------------------------------------------------------------

    Molecular point group: c2v
  Charge       = -1
  Multiplicity = 5
  Basis Set: CC-PVDZ
    Blend: CC-PVDZ
  Basis Set: (CC-PVDZ AUX)
    Blend: CC-PVDZ-JKFIT
  @DF-UKS Final Energy:  -866.94287278639206
    Total Energy =                       -866.9428727863920585
 Dipole X            :          0.0000000            0.0000000            0.0000000
 Dipole Y            :          0.0000000            0.0000000            0.0000000
 Dipole Z            :         -3.5482809            1.3397069           -2.2085741
 Magnitude           :                                                    2.2085741
    Molecular point group: c2v
  Basis Set: CC-PVDZ
    Blend: CC-PVDZ
  Basis Set: (CC-PVDZ AUX)
    Blend: CC-PVDZ-JKFIT
  Basis Set: CC-PVDZ
    Blend: CC-PVDZ
  Basis Set: (CC-PVDZ AUX)
    Blend: CC-PVDZ-JKFIT
  @DF-UKS Final Energy:  -866.98238773519915
    Total Energy =                       -866.9823877351992678
  Basis Set: CC-PVDZ
    Blend: CC-PVDZ
  Basis Set: (CC-PVDZ AUX)
    Blend: CC-PVDZ-JKFIT
  Basis Set: CC-PVDZ
    Blend: CC-PVDZ
  @DF-UKS Final Energy:  -867.05517341313634
    Total Energy =                       -867.0551734131363446
  @DF-UKS Final Energy:  -867.28803021610338
    Total Energy =                       -867.2880302161034933
  @DF-UKS Final Energy:  -867.74348665331161
    Total Energy =                       -867.7434866533116065
  @DF-UKS Final Energy:  -867.98537100645137
    Total Energy =                       -867.9853710064513734
  @DF-UKS Final Energy:  -868.16351967809373
    Total Energy =                       -868.1635196780937349
  @DF-UKS Final Energy:  -868.25510759035376
    Total Energy =                       -868.2551075903537594
  @DF-UKS Final Energy:  -868.29695340501121
    Total Energy =                       -868.2969534050112088
  @DF-UKS Final Energy:  -868.31434161916809
    Total Energy =                       -868.3143416191680899
  @DF-UKS Final Energy:  -868.32216716974335
    Total Energy =                       -868.3221671697433521
  @DF-UKS Final Energy:  -868.32742105142677
    Total Energy =                       -868.3274210514267679
  @DF-UKS Final Energy:  -868.35844756801976
    Total Energy =                       -868.3584475680197556
  @DF-UKS Final Energy:  -868.36098362969676
    Total Energy =                       -868.3609836296967615
  @DF-UKS Final Energy:  -868.38684445167314
    Total Energy =                       -868.3868444516731415
  @DF-UKS Final Energy:  -868.38779166294444
    Total Energy =                       -868.3877916629444371
  @DF-UKS Final Energy:  -868.40023091946500
    Total Energy =                       -868.4002309194650024
  @DF-UKS Final Energy:  -868.40042274580742
    Total Energy =                       -868.4004227458074183
  @DF-UKS Final Energy:  -868.40308368266142
    Total Energy =                       -868.4030836826613040
  @DF-UKS Final Energy:  -868.40323413971055
    Total Energy =                       -868.4032341397105483
  Basis Set: (CC-PVDZ AUX)
    Blend: CC-PVDZ-JKFIT
  Basis Set: CC-PVDZ
    Blend: CC-PVDZ
  Basis Set: (CC-PVDZ AUX)
    Blend: CC-PVDZ-JKFIT
  @DF-UKS Final Energy:  -868.40323828887608
    Total Energy =                       -868.4032382888760822
  Basis Set: CC-PVDZ
    Blend: CC-PVDZ
  Basis Set: (CC-PVDZ AUX)
    Blend: CC-PVDZ-JKFIT
  Charge       = -1
  Multiplicity = 5
  Basis Set: CC-PVDZ
    Blend: CC-PVDZ
  Basis Set: (CC-PVDZ AUX)
    Blend: CC-PVDZ-JKFIT

    Orbital Energies [Eh]
    ---------------------

    Alpha Occupied:

       1A1  -114.924503     2A1   -76.776596     3A1   -10.962599
       1B1    -8.512563     1B2    -8.512563     4A1    -8.512020
       5A1    -6.256105     6A1    -4.416597     2B1    -4.415980
       2B2    -4.415980     7A1    -0.796699     8A1    -0.310204
       3B1    -0.256885     3B2    -0.256885     9A1    -0.252118
       4B1     0.017287     4B2     0.017287    10A1     0.019836
      11A1     0.506941

    Alpha Virtual:

      12A1     0.622403     5B2     0.638869     5B1     0.638869
      13A1     0.709576     6B1     0.719924     6B2     0.719924
       1A2     0.721594    14A1     0.721601     7B1     0.748851
       7B2     0.748851    15A1     0.801438    16A1     0.947306
      17A1     1.001734     2A2     1.001754     8B2     1.005696
       8B1     1.005696    18A1     1.019645

    Beta Occupied:

       1A1  -114.923634     2A1   -76.760274     3A1   -10.961734
       1B1    -8.511991     1B2    -8.511991     4A1    -8.509775
       5A1    -6.237182     6A1    -4.394851     2B1    -4.394431
       2B2    -4.394431     7A1    -0.794155     3B2    -0.255913
       3B1    -0.255913     8A1    -0.248450     9A1    -0.184144

    Beta Virtual:

       4B1     0.165628     4B2     0.165628    10A1     0.169325
      11A1     0.624584    12A1     0.685059     5B2     0.707850
       5B1     0.707850     6B1     0.752579     6B2     0.752579
      13A1     0.781943     1A2     0.817314    14A1     0.817319
       7B2     0.819591     7B1     0.819591    15A1     0.833899
      16A1     0.962391    17A1     1.002440     2A2     1.002460
       8B2     1.007808     8B1     1.007808    18A1     1.027655

    Final Occupation by Irrep:
             A1    A2    B1    B2
    DOCC [     9,    0,    3,    3 ]
    SOCC [     2,    0,    1,    1 ]
    NA   [    11,    0,    4,    4 ]
    NB   [     9,    0,    3,    3 ]

  @DF-UKS Final Energy:  -868.40323829406270

   => Energetics <=

    Nuclear Repulsion Energy =             38.3281239952935735
    One-Electron Energy =               -1283.9806725515647940
    Two-Electron Energy =                 421.0461174464051055
    DFT Exchange-Correlation Energy =     -43.7968071841964459
    Empirical Dispersion Energy =           0.0000000000000000
    VV10 Nonlocal Energy =                  0.0000000000000000
    Total Energy =                       -868.4032382940627031

  UHF NO Occupations:
  HONO-2 :   11 A1 1.0000000
  HONO-1 :    4 B1 1.0000000
  HONO-0 :    4 B2 1.0000000
  LUNO+0 :   12 A1 0.0000141
  LUNO+1 :   13 A1 0.0000011
  LUNO+2 :   14 A1 0.0000009
  LUNO+3 :    5 B2 0.0000009

Computation Completed

Properties will be evaluated at   0.000000,   0.000000,   0.000000 [a0]

Properties computed using the SCF density matrix

 Multipole Moments:

 ------------------------------------------------------------------------------------
     Multipole            Electronic (a.u.)      Nuclear  (a.u.)        Total (a.u.)
 ------------------------------------------------------------------------------------

 L = 1.  Multiply by 2.5417464519 to convert [e a0] to [Debye]
 Dipole X            :          0.0000000            0.0000000            0.0000000
 Dipole Y            :          0.0000000            0.0000000            0.0000000
 Dipole Z            :         -7.3362913            4.1617489           -3.1745424
 Magnitude           :                                                    3.1745424

 ------------------------------------------------------------------------------------

*** tstop() called on Joses-MacBook-Pro-2.local at Thu Jul 17 12:05:05 2025
Module time:
	user time   =       6.79 seconds =       0.11 minutes
	system time =       1.79 seconds =       0.03 minutes
	total time  =          1 seconds =       0.02 minutes
Total time:
	user time   =     259.85 seconds =       4.33 minutes
	system time =      60.44 seconds =       1.01 minutes
	total time  =         30 seconds =       0.50 minutes

*** tstart() called on Joses-MacBook-Pro-2.local
*** at Thu Jul 17 12:05:05 2025

         ------------------------------------------------------------
                                   SCF GRAD
                          Rob Parrish, Justin Turney,
                       Andy Simmonett, and Alex Sokolov
         ------------------------------------------------------------

  ==> Geometry <==

    Molecular point group: c2v
    Full point group: C_inf_v

    Geometry (in Angstrom), charge = -1, multiplicity = 5:

       Center              X                  Y                   Z               Mass
    ------------   -----------------  -----------------  -----------------  -----------------
         P            0.000000000000     0.000000000000     2.100057225814    30.973761998420
         AR           0.000000000000     0.000000000000    -1.627697539811    39.962383123700

  Nuclear repulsion =   38.328123995293574

  ==> Basis Set <==

  Basis Set: CC-PVDZ
    Blend: CC-PVDZ
    Number of shells: 16
    Number of basis functions: 36
    Number of Cartesian functions: 38
    Spherical Harmonics?: true
    Max angular momentum: 2

  ==> DFJKGrad: Density-Fitted SCF Gradients <==

    Gradient:                    1
    J tasked:                  Yes
    K tasked:                  Yes
    wK tasked:                  No
    OpenMP threads:              1
    Integrals threads:           1
    Memory [MiB]:              375
    Schwarz Cutoff:          1E-12
    Fitting Condition:       1E-10

   => Auxiliary Basis Set <=

  Basis Set: (CC-PVDZ AUX)
    Blend: CC-PVDZ-JKFIT
    Number of shells: 72
    Number of basis functions: 224
    Number of Cartesian functions: 260
    Spherical Harmonics?: true
    Max angular momentum: 3

  ==> DFT Potential <==

   => LibXC <=

    Version 6.2.2
    S. Lehtola, C. Steigemann, M. J.T. Oliveira, and M. A.L. Marques.,  SoftwareX 7, 1â€“5 (2018) (10.1016/j.softx.2017.11.002)

   => Composite Functional: B3LYP <=

    B3LYP Hyb-GGA Exchange-Correlation Functional

    P. J. Stephens, F. J. Devlin, C. F. Chabalowski, and M. J. Frisch.,  J. Phys. Chem. 98, 11623 (1994) (10.1021/j100096a001)

    Deriv               =              1
    GGA                 =           TRUE
    Meta                =          FALSE

    Exchange Hybrid     =           TRUE
    MP2 Hybrid          =          FALSE

   => Exchange Functionals <=

    0.0800   Slater exchange
    0.7200         Becke 88

   => Exact (HF) Exchange <=

    0.2000               HF

   => Correlation Functionals <=

    0.1900   Vosko, Wilk & Nusair (VWN5_RPA)
    0.8100   Lee, Yang & Parr

   => LibXC Density Thresholds  <==

    XC_HYB_GGA_XC_B3LYP:  1.00E-15

   => Molecular Quadrature <=

    Radial Scheme          =       TREUTLER
    Pruning Scheme         =           NONE
    Nuclear Scheme         =       TREUTLER

    Blocking Scheme        =         OCTREE
    BS radius alpha        =              1
    Pruning alpha          =              1
    Radial Points          =             75
    Spherical Points       =            302
    Total Points           =          40972
    Total Blocks           =            388
    Max Points             =            249
    Max Functions          =             36
    Weights Tolerance      =       1.00E-15

  -Total Gradient:
     Atom            X                  Y                   Z
    ------   -----------------  -----------------  -----------------
       1       -0.000000000000    -0.000000000000    -0.000005006979
       2        0.000000000000     0.000000000000    -0.000002051220

*** tstop() called on Joses-MacBook-Pro-2.local at Thu Jul 17 12:05:05 2025
Module time:
	user time   =       1.77 seconds =       0.03 minutes
	system time =       1.10 seconds =       0.02 minutes
	total time  =          0 seconds =       0.00 minutes
Total time:
	user time   =     261.64 seconds =       4.36 minutes
	system time =      61.54 seconds =       1.03 minutes
	total time  =         30 seconds =       0.50 minutes

    			-----------------------------------------

    			 OPTKING 3.0: for geometry optimizations

    			     By R.A. King, Bethel University

    			        with contributions from

    			    A.V. Copan, J. Cayton, A. Heide

    			-----------------------------------------

	                            ===> Fragment 1 <==

	 Z (Atomic Numbers)          Masses                          Geom
	      15.000000            30.973762          0.00000000  0.00000000  3.96853300
	      18.000000            39.962383          0.00000000  0.00000000 -3.07590257

	 - Coordinate -           - BOHR/RAD -       - ANG/DEG -
	 R(1,2)           =         7.044436           3.727755

	        --- Internal Coordinate Step in ANG or DEG, aJ/ANG or AJ/DEG ---
	-------------------------------------------------------------------------------
	           Coordinate      Previous         Force          Change          New
	           ----------      --------        ------          ------        ------
	               R(1,2)       3.72775        0.00001        0.00004       3.72780
	-------------------------------------------------------------------------------

	                                 ==> Convergence Check <==

	Measures of convergence in internal coordinates in au.

	Criteria marked as inactive (o), active & met (*), and active & unmet ( ).

	----------------------------------------------------------------------------------------------
	   Step    Total Energy     Delta E     Max Force     RMS Force      Max Disp      RMS Disp
	----------------------------------------------------------------------------------------------
	  Convergence Criteria     1.00e-06 *    3.00e-04 *             o    1.20e-03 *             o
	----------------------------------------------------------------------------------------------
	    22    -868.40323829   -5.19e-09 *    1.48e-06 *    1.48e-06 o    7.88e-05 *    7.88e-05 o  ~
	----------------------------------------------------------------------------------------------

Next Geometry in Ang
	Fragment 1 (Ang)

	    P   0.0000000000   0.0000000000   2.1000780698
	   Ar   0.0000000000   0.0000000000  -1.6277183838

    Final optimized geometry and variables:
    Molecular point group: c2v
    Full point group: C_inf_v

    Geometry (in Angstrom), charge = -1, multiplicity = 5:

    P            0.000000000000     0.000000000000     2.100057225814
    AR           0.000000000000     0.000000000000    -1.627697539811

    Psi4 stopped on: Thursday, 17 July 2025 12:05PM
    Psi4 wall time for execution: 0:00:31.12

*** Psi4 exiting successfully. Buy a developer a beer!
