                               Psi4 1.9.1 release

  ==> Input File <==

--------------------------------------------------------------------------
molecule {
-1 5
Si   0.00000        0.60000        0.00000
P   0.00000       -0.60000        0.00000
}

set {
basis              cc-pvdz
reference          uks
maxiter            500
geom_maxiter       500
DAMPING_PERCENTAGE 1
guess              SAP
}

optimize('b3lyp')
--------------------------------------------------------------------------

    Molecular point group: c2v
  Charge       = -1
  Multiplicity = 5
  Basis Set: CC-PVDZ
    Blend: CC-PVDZ
  Basis Set: (CC-PVDZ AUX)
    Blend: CC-PVDZ-JKFIT
  @DF-UKS Final Energy:  -629.37544702078230
    Total Energy =                       -629.3754470207823033
 Dipole X            :          0.0000000            0.0000000            0.0000000
 Dipole Y            :          0.0000000            0.0000000            0.0000000
 Dipole Z            :         -1.7257537            0.5377250           -1.1880288
 Magnitude           :                                                    1.1880288
    Molecular point group: c2v
  Basis Set: CC-PVDZ
    Blend: CC-PVDZ
  Basis Set: (CC-PVDZ AUX)
    Blend: CC-PVDZ-JKFIT
  Basis Set: CC-PVDZ
    Blend: CC-PVDZ
  Basis Set: (CC-PVDZ AUX)
    Blend: CC-PVDZ-JKFIT
  @DF-UKS Final Energy:  -629.40358049921940
    Total Energy =                       -629.4035804992192880
  Basis Set: CC-PVDZ
    Blend: CC-PVDZ
  Basis Set: (CC-PVDZ AUX)
    Blend: CC-PVDZ-JKFIT
  Basis Set: CC-PVDZ
    Blend: CC-PVDZ
  @DF-UKS Final Energy:  -629.45718055524742
    Total Energy =                       -629.4571805552474189
  @DF-UKS Final Energy:  -629.64406700938002
    Total Energy =                       -629.6440670093799099
  @DF-UKS Final Energy:  -630.24057432815016
    Total Energy =                       -630.2405743281500463
  @DF-UKS Final Energy:  -630.50858999794502
    Total Energy =                       -630.5085899979450232
  @DF-UKS Final Energy:  -630.64878174376020
    Total Energy =                       -630.6487817437601962
  @DF-UKS Final Energy:  -630.70102586590178
    Total Energy =                       -630.7010258659017836
  @DF-UKS Final Energy:  -630.72566864442160
    Total Energy =                       -630.7256686444216029
  @DF-UKS Final Energy:  -630.73526318080280
    Total Energy =                       -630.7352631808028036
  @DF-UKS Final Energy:  -630.73787331475808
    Total Energy =                       -630.7378733147580760
  @DF-UKS Final Energy:  -630.73895432831671
    Total Energy =                       -630.7389543283168223
  @DF-UKS Final Energy:  -630.73919353683289
    Total Energy =                       -630.7391935368328859
  @DF-UKS Final Energy:  -630.73926444511653
    Total Energy =                       -630.7392644451165324
  @DF-UKS Final Energy:  -630.73927303645519
    Total Energy =                       -630.7392730364553017
  Basis Set: (CC-PVDZ AUX)
    Blend: CC-PVDZ-JKFIT
  Basis Set: CC-PVDZ
    Blend: CC-PVDZ
  Basis Set: (CC-PVDZ AUX)
    Blend: CC-PVDZ-JKFIT
  @DF-UKS Final Energy:  -630.73927419902986
    Total Energy =                       -630.7392741990298646
  Basis Set: CC-PVDZ
    Blend: CC-PVDZ
  Basis Set: (CC-PVDZ AUX)
    Blend: CC-PVDZ-JKFIT
  Charge       = -1
  Multiplicity = 5
  Basis Set: CC-PVDZ
    Blend: CC-PVDZ
  Basis Set: (CC-PVDZ AUX)
    Blend: CC-PVDZ-JKFIT

    Orbital Energies [Eh]
    ---------------------

    Alpha Occupied:

       1A1   -76.868132     2A1   -65.926050     3A1    -6.335480
       4A1    -5.068952     5A1    -4.501592     1B1    -4.501543
       1B2    -4.490254     6A1    -3.430017     2B1    -3.428517
       2B2    -3.426318     7A1    -0.371789     8A1    -0.224952
       9A1    -0.056915     3B1    -0.047570     3B2    -0.020577
       4B1     0.041009     4B2     0.056352

    Alpha Virtual:

      10A1     0.191868    11A1     0.431136    12A1     0.459664
       5B1     0.498315     5B2     0.508162     6B1     0.515224
       6B2     0.527453    13A1     0.542582     1A2     0.558056
      14A1     0.558481     7B1     0.621894     7B2     0.645677
      15A1     0.674196     2A2     0.694619    16A1     0.698584
      17A1     0.772073     8B1     0.804227     8B2     0.825160
      18A1     1.087000

    Beta Occupied:

       1A1   -76.861111     2A1   -65.919841     3A1    -6.328016
       4A1    -5.061860     5A1    -4.490662     1B1    -4.486348
       1B2    -4.483218     6A1    -3.422454     2B1    -3.416672
       2B2    -3.415857     7A1    -0.303790     8A1    -0.145538
       3B2     0.019572

    Beta Virtual:

       9A1     0.051196     3B1     0.078997     4B2     0.154197
       4B1     0.162973    10A1     0.237188    11A1     0.464694
      12A1     0.496646     5B2     0.540371     5B1     0.541785
       6B2     0.580680    13A1     0.581044     6B1     0.584158
       1A2     0.628252    14A1     0.628783     7B2     0.664596
       7B1     0.669386    15A1     0.713745     2A2     0.753040
      16A1     0.756292    17A1     0.812721     8B2     0.867681
       8B1     0.871561    18A1     1.128426

    Final Occupation by Irrep:
             A1    A2    B1    B2
    DOCC [     8,    0,    2,    3 ]
    SOCC [     1,    0,    2,    1 ]
    NA   [     9,    0,    4,    4 ]
    NB   [     8,    0,    2,    3 ]

  @DF-UKS Final Energy:  -630.73927426144382

   => Energetics <=

    Nuclear Repulsion Energy =             45.5855603089959942
    One-Electron Energy =                -970.3292546866000521
    Two-Electron Energy =                 329.6765297211887287
    DFT Exchange-Correlation Energy =     -35.6721096050285524
    Empirical Dispersion Energy =           0.0000000000000000
    VV10 Nonlocal Energy =                  0.0000000000000000
    Total Energy =                       -630.7392742614439385

  UHF NO Occupations:
  HONO-2 :    3 B1 1.0000000
  HONO-1 :    4 B2 1.0000000
  HONO-0 :    4 B1 1.0000000
  LUNO+0 :    5 B2 0.0008133
  LUNO+1 :   10 A1 0.0007929
  LUNO+2 :   11 A1 0.0004586
  LUNO+3 :   12 A1 0.0000001

Computation Completed

Properties will be evaluated at   0.000000,   0.000000,   0.000000 [a0]

Properties computed using the SCF density matrix

 Multipole Moments:

 ------------------------------------------------------------------------------------
     Multipole            Electronic (a.u.)      Nuclear  (a.u.)        Total (a.u.)
 ------------------------------------------------------------------------------------

 L = 1.  Multiply by 2.5417464519 to convert [e a0] to [Debye]
 Dipole X            :          0.0000000            0.0000000            0.0000000
 Dipole Y            :          0.0000000            0.0000000            0.0000000
 Dipole Z            :         -1.4277399            1.0923758           -0.3353641
 Magnitude           :                                                    0.3353641

 ------------------------------------------------------------------------------------

*** tstop() called on Joses-MacBook-Pro-2.local at Thu Jul 17 11:49:11 2025
Module time:
	user time   =       7.07 seconds =       0.12 minutes
	system time =       1.59 seconds =       0.03 minutes
	total time  =          1 seconds =       0.02 minutes
Total time:
	user time   =     203.84 seconds =       3.40 minutes
	system time =      48.40 seconds =       0.81 minutes
	total time  =         24 seconds =       0.40 minutes

*** tstart() called on Joses-MacBook-Pro-2.local
*** at Thu Jul 17 11:49:11 2025

         ------------------------------------------------------------
                                   SCF GRAD
                          Rob Parrish, Justin Turney,
                       Andy Simmonett, and Alex Sokolov
         ------------------------------------------------------------

  ==> Geometry <==

    Molecular point group: c2v
    Full point group: C_inf_v

    Geometry (in Angstrom), charge = -1, multiplicity = 5:

       Center              X                  Y                   Z               Mass
    ------------   -----------------  -----------------  -----------------  -----------------
         SI           0.000000000000     0.000000000000     1.280849801306    27.976926534650
         P            0.000000000000     0.000000000000    -1.156922455686    30.973761998420

  Nuclear repulsion =   45.585560308995994

  ==> Basis Set <==

  Basis Set: CC-PVDZ
    Blend: CC-PVDZ
    Number of shells: 16
    Number of basis functions: 36
    Number of Cartesian functions: 38
    Spherical Harmonics?: true
    Max angular momentum: 2

  ==> DFJKGrad: Density-Fitted SCF Gradients <==

    Gradient:                    1
    J tasked:                  Yes
    K tasked:                  Yes
    wK tasked:                  No
    OpenMP threads:              1
    Integrals threads:           1
    Memory [MiB]:              375
    Schwarz Cutoff:          1E-12
    Fitting Condition:       1E-10

   => Auxiliary Basis Set <=

  Basis Set: (CC-PVDZ AUX)
    Blend: CC-PVDZ-JKFIT
    Number of shells: 72
    Number of basis functions: 224
    Number of Cartesian functions: 260
    Spherical Harmonics?: true
    Max angular momentum: 3

  ==> DFT Potential <==

   => LibXC <=

    Version 6.2.2
    S. Lehtola, C. Steigemann, M. J.T. Oliveira, and M. A.L. Marques.,  SoftwareX 7, 1â€“5 (2018) (10.1016/j.softx.2017.11.002)

   => Composite Functional: B3LYP <=

    B3LYP Hyb-GGA Exchange-Correlation Functional

    P. J. Stephens, F. J. Devlin, C. F. Chabalowski, and M. J. Frisch.,  J. Phys. Chem. 98, 11623 (1994) (10.1021/j100096a001)

    Deriv               =              1
    GGA                 =           TRUE
    Meta                =          FALSE

    Exchange Hybrid     =           TRUE
    MP2 Hybrid          =          FALSE

   => Exchange Functionals <=

    0.0800   Slater exchange
    0.7200         Becke 88

   => Exact (HF) Exchange <=

    0.2000               HF

   => Correlation Functionals <=

    0.1900   Vosko, Wilk & Nusair (VWN5_RPA)
    0.8100   Lee, Yang & Parr

   => LibXC Density Thresholds  <==

    XC_HYB_GGA_XC_B3LYP:  1.00E-15

   => Molecular Quadrature <=

    Radial Scheme          =       TREUTLER
    Pruning Scheme         =           NONE
    Nuclear Scheme         =       TREUTLER

    Blocking Scheme        =         OCTREE
    BS radius alpha        =              1
    Pruning alpha          =              1
    Radial Points          =             75
    Spherical Points       =            302
    Total Points           =          41628
    Total Blocks           =            384
    Max Points             =            256
    Max Functions          =             36
    Weights Tolerance      =       1.00E-15

  -Total Gradient:
     Atom            X                  Y                   Z
    ------   -----------------  -----------------  -----------------
       1        0.000000000000     0.000000000000    -0.000005915782
       2        0.000000000000     0.000000000000     0.000016479289

*** tstop() called on Joses-MacBook-Pro-2.local at Thu Jul 17 11:49:11 2025
Module time:
	user time   =       2.52 seconds =       0.04 minutes
	system time =       0.84 seconds =       0.01 minutes
	total time  =          0 seconds =       0.00 minutes
Total time:
	user time   =     206.36 seconds =       3.44 minutes
	system time =      49.24 seconds =       0.82 minutes
	total time  =         24 seconds =       0.40 minutes

    			-----------------------------------------

    			 OPTKING 3.0: for geometry optimizations

    			     By R.A. King, Bethel University

    			        with contributions from

    			    A.V. Copan, J. Cayton, A. Heide

    			-----------------------------------------

	                            ===> Fragment 1 <==

	 Z (Atomic Numbers)          Masses                          Geom
	      14.000000            27.976927          0.00000000  0.00000000  2.42045533
	      15.000000            30.973762          0.00000000  0.00000000 -2.18626659

	 - Coordinate -           - BOHR/RAD -       - ANG/DEG -
	 R(1,2)           =         4.606722           2.437772

	        --- Internal Coordinate Step in ANG or DEG, aJ/ANG or AJ/DEG ---
	-------------------------------------------------------------------------------
	           Coordinate      Previous         Force          Change          New
	           ----------      --------        ------          ------        ------
	               R(1,2)       2.43777        0.00009        0.00011       2.43788
	-------------------------------------------------------------------------------

	                                 ==> Convergence Check <==

	Measures of convergence in internal coordinates in au.

	Criteria marked as inactive (o), active & met (*), and active & unmet ( ).

	----------------------------------------------------------------------------------------------
	   Step    Total Energy     Delta E     Max Force     RMS Force      Max Disp      RMS Disp
	----------------------------------------------------------------------------------------------
	  Convergence Criteria     1.00e-06 *    3.00e-04 *             o    1.20e-03 *             o
	----------------------------------------------------------------------------------------------
	    17    -630.73927426   -6.24e-08 *    1.12e-05 *    1.12e-05 o    2.10e-04 *    2.10e-04 o  ~
	----------------------------------------------------------------------------------------------

Next Geometry in Ang
	Fragment 1 (Ang)

	   Si   0.0000000000   0.0000000000   1.2809054635
	    P   0.0000000000   0.0000000000  -1.1569781179

    Final optimized geometry and variables:
    Molecular point group: c2v
    Full point group: C_inf_v

    Geometry (in Angstrom), charge = -1, multiplicity = 5:

    SI           0.000000000000     0.000000000000     1.280849801306
    P            0.000000000000     0.000000000000    -1.156922455686

    Psi4 stopped on: Thursday, 17 July 2025 11:49AM
    Psi4 wall time for execution: 0:00:24.81

*** Psi4 exiting successfully. Buy a developer a beer!
