                               Psi4 1.9.1 release

  ==> Input File <==

--------------------------------------------------------------------------
molecule {
-1 5
He   0.00000        0.60000        0.00000
P   0.00000       -0.60000        0.00000
}

set {
basis              cc-pvdz
reference          uks
maxiter            500
geom_maxiter       500
DAMPING_PERCENTAGE 1
guess              SAP
}

optimize('b3lyp')
--------------------------------------------------------------------------

    Molecular point group: c2v
  Charge       = -1
  Multiplicity = 5
  Basis Set: CC-PVDZ
    Blend: CC-PVDZ
  Basis Set: (CC-PVDZ AUX)
    Blend: CC-PVDZ-JKFIT + DEF2-UNIVERSAL-JKFIT
  @DF-UKS Final Energy:  -343.51415579450816
    Total Energy =                       -343.5141557945081559
 Dipole X            :          0.0000000            0.0000000            0.0000000
 Dipole Y            :          0.0000000            0.0000000            0.0000000
 Dipole Z            :          0.2523737            0.1237348            0.3761085
 Magnitude           :                                                    0.3761085
    Molecular point group: c2v
  Basis Set: CC-PVDZ
    Blend: CC-PVDZ
  Basis Set: (CC-PVDZ AUX)
    Blend: CC-PVDZ-JKFIT + DEF2-UNIVERSAL-JKFIT
  Basis Set: CC-PVDZ
    Blend: CC-PVDZ
  Basis Set: (CC-PVDZ AUX)
    Blend: CC-PVDZ-JKFIT + DEF2-UNIVERSAL-JKFIT
  @DF-UKS Final Energy:  -343.63306379066773
    Total Energy =                       -343.6330637906677339
  Basis Set: CC-PVDZ
    Blend: CC-PVDZ
  Basis Set: (CC-PVDZ AUX)
    Blend: CC-PVDZ-JKFIT + DEF2-UNIVERSAL-JKFIT
  Basis Set: CC-PVDZ
    Blend: CC-PVDZ
  @DF-UKS Final Energy:  -343.65909254170100
    Total Energy =                       -343.6590925417009998
  @DF-UKS Final Energy:  -343.68233628310071
    Total Energy =                       -343.6823362831006534
  @DF-UKS Final Energy:  -343.71346481063080
    Total Energy =                       -343.7134648106307964
  @DF-UKS Final Energy:  -343.72362062372804
    Total Energy =                       -343.7236206237280385
  @DF-UKS Final Energy:  -343.74241686056155
    Total Energy =                       -343.7424168605615478
  @DF-UKS Final Energy:  -343.74523869908660
    Total Energy =                       -343.7452386990865989
  @DF-UKS Final Energy:  -343.75271118554184
    Total Energy =                       -343.7527111855418411
  @DF-UKS Final Energy:  -343.75331022042104
    Total Energy =                       -343.7533102204210422
  @DF-UKS Final Energy:  -343.75569186033005
    Total Energy =                       -343.7556918603299891
  @DF-UKS Final Energy:  -343.75629519763703
    Total Energy =                       -343.7562951976370300
  @DF-UKS Final Energy:  -343.75650698173740
    Total Energy =                       -343.7565069817374024
  @DF-UKS Final Energy:  -343.75656905015626
    Total Energy =                       -343.7565690501562017
  @DF-UKS Final Energy:  -343.75658090344666
    Total Energy =                       -343.7565809034466042
  Basis Set: (CC-PVDZ AUX)
    Blend: CC-PVDZ-JKFIT + DEF2-UNIVERSAL-JKFIT
  Basis Set: CC-PVDZ
    Blend: CC-PVDZ
  Basis Set: (CC-PVDZ AUX)
    Blend: CC-PVDZ-JKFIT + DEF2-UNIVERSAL-JKFIT
  @DF-UKS Final Energy:  -343.75658375868574
    Total Energy =                       -343.7565837586857356
  Basis Set: CC-PVDZ
    Blend: CC-PVDZ
  Basis Set: (CC-PVDZ AUX)
    Blend: CC-PVDZ-JKFIT + DEF2-UNIVERSAL-JKFIT
  Charge       = -1
  Multiplicity = 5
  Basis Set: CC-PVDZ
    Blend: CC-PVDZ
  Basis Set: (CC-PVDZ AUX)
    Blend: CC-PVDZ-JKFIT + DEF2-UNIVERSAL-JKFIT

    Orbital Energies [Eh]
    ---------------------

    Alpha Occupied:

       1A1   -76.760171     2A1    -6.240696     3A1    -4.400417
       1B1    -4.400402     1B2    -4.400402     4A1    -0.502787
       5A1    -0.297794     2B2     0.028659     2B1     0.028659
       6A1     0.028865     7A1     0.523911

    Alpha Virtual:

       8A1     0.650453     3B2     0.651615     3B1     0.651615
       9A1     0.734834    10A1     0.734975     1A2     0.734975
       4B2     0.734984     4B1     0.734984    11A1     1.279177
       5B1     2.335993     5B2     2.335993    12A1     2.339665

    Beta Occupied:

       1A1   -76.743426     2A1    -6.221115     3A1    -4.378604
       1B1    -4.378603     1B2    -4.378603     4A1    -0.502270
       5A1    -0.171754

    Beta Virtual:

       2B2     0.177398     2B1     0.177398     6A1     0.177757
       7A1     0.651266     8A1     0.728090     3B2     0.729826
       3B1     0.729826     9A1     0.829965    10A1     0.830115
       1A2     0.830115     4B2     0.830133     4B1     0.830133
      11A1     1.280036     5B1     2.336213     5B2     2.336213
      12A1     2.340039

    Final Occupation by Irrep:
             A1    A2    B1    B2
    DOCC [     5,    0,    1,    1 ]
    SOCC [     2,    0,    1,    1 ]
    NA   [     7,    0,    2,    2 ]
    NB   [     5,    0,    1,    1 ]

  @DF-UKS Final Energy:  -343.75658453626488

   => Energetics <=

    Nuclear Repulsion Energy =              4.3936207622348062
    One-Electron Energy =                -489.0502638878202788
    Two-Electron Energy =                 160.6745298630258389
    DFT Exchange-Correlation Energy =     -19.7744712737052772
    Empirical Dispersion Energy =           0.0000000000000000
    VV10 Nonlocal Energy =                  0.0000000000000000
    Total Energy =                       -343.7565845362648815

  UHF NO Occupations:
  HONO-2 :    2 B2 1.0000000
  HONO-1 :    6 A1 1.0000000
  HONO-0 :    7 A1 1.0000000
  LUNO+0 :    8 A1 0.0000003
  LUNO+1 :    3 B1 0.0000002
  LUNO+2 :    3 B2 0.0000002
  LUNO+3 :    9 A1 0.0000002

Computation Completed

Properties will be evaluated at   0.000000,   0.000000,   0.000000 [a0]

Properties computed using the SCF density matrix

 Multipole Moments:

 ------------------------------------------------------------------------------------
     Multipole            Electronic (a.u.)      Nuclear  (a.u.)        Total (a.u.)
 ------------------------------------------------------------------------------------

 L = 1.  Multiply by 2.5417464519 to convert [e a0] to [Debye]
 Dipole X            :          0.0000000            0.0000000            0.0000000
 Dipole Y            :          0.0000000            0.0000000            0.0000000
 Dipole Z            :          0.3808324            0.3725723            0.7534046
 Magnitude           :                                                    0.7534046

 ------------------------------------------------------------------------------------

*** tstop() called on Joses-MacBook-Pro-2.local at Thu Jul 17 09:24:45 2025
Module time:
	user time   =       3.16 seconds =       0.05 minutes
	system time =       2.14 seconds =       0.04 minutes
	total time  =          0 seconds =       0.00 minutes
Total time:
	user time   =      77.39 seconds =       1.29 minutes
	system time =      75.09 seconds =       1.25 minutes
	total time  =         15 seconds =       0.25 minutes

*** tstart() called on Joses-MacBook-Pro-2.local
*** at Thu Jul 17 09:24:45 2025

         ------------------------------------------------------------
                                   SCF GRAD
                          Rob Parrish, Justin Turney,
                       Andy Simmonett, and Alex Sokolov
         ------------------------------------------------------------

  ==> Geometry <==

    Molecular point group: c2v
    Full point group: C_inf_v

    Geometry (in Angstrom), charge = -1, multiplicity = 5:

       Center              X                  Y                   Z               Mass
    ------------   -----------------  -----------------  -----------------  -----------------
         HE           0.000000000000     0.000000000000     3.199772495667     4.002603254130
         P            0.000000000000     0.000000000000    -0.413492549090    30.973761998420

  Nuclear repulsion =    4.393620762234806

  ==> Basis Set <==

  Basis Set: CC-PVDZ
    Blend: CC-PVDZ
    Number of shells: 11
    Number of basis functions: 23
    Number of Cartesian functions: 24
    Spherical Harmonics?: true
    Max angular momentum: 2

  ==> DFJKGrad: Density-Fitted SCF Gradients <==

    Gradient:                    1
    J tasked:                  Yes
    K tasked:                  Yes
    wK tasked:                  No
    OpenMP threads:              1
    Integrals threads:           1
    Memory [MiB]:              375
    Schwarz Cutoff:          1E-12
    Fitting Condition:       1E-10

   => Auxiliary Basis Set <=

  Basis Set: (CC-PVDZ AUX)
    Blend: CC-PVDZ-JKFIT + DEF2-UNIVERSAL-JKFIT
    Number of shells: 45
    Number of basis functions: 135
    Number of Cartesian functions: 155
    Spherical Harmonics?: true
    Max angular momentum: 3

  ==> DFT Potential <==

   => LibXC <=

    Version 6.2.2
    S. Lehtola, C. Steigemann, M. J.T. Oliveira, and M. A.L. Marques.,  SoftwareX 7, 1â€“5 (2018) (10.1016/j.softx.2017.11.002)

   => Composite Functional: B3LYP <=

    B3LYP Hyb-GGA Exchange-Correlation Functional

    P. J. Stephens, F. J. Devlin, C. F. Chabalowski, and M. J. Frisch.,  J. Phys. Chem. 98, 11623 (1994) (10.1021/j100096a001)

    Deriv               =              1
    GGA                 =           TRUE
    Meta                =          FALSE

    Exchange Hybrid     =           TRUE
    MP2 Hybrid          =          FALSE

   => Exchange Functionals <=

    0.0800   Slater exchange
    0.7200         Becke 88

   => Exact (HF) Exchange <=

    0.2000               HF

   => Correlation Functionals <=

    0.1900   Vosko, Wilk & Nusair (VWN5_RPA)
    0.8100   Lee, Yang & Parr

   => LibXC Density Thresholds  <==

    XC_HYB_GGA_XC_B3LYP:  1.00E-15

   => Molecular Quadrature <=

    Radial Scheme          =       TREUTLER
    Pruning Scheme         =           NONE
    Nuclear Scheme         =       TREUTLER

    Blocking Scheme        =         OCTREE
    BS radius alpha        =              1
    Pruning alpha          =              1
    Radial Points          =             75
    Spherical Points       =            302
    Total Points           =          42826
    Total Blocks           =            393
    Max Points             =            255
    Max Functions          =             23
    Weights Tolerance      =       1.00E-15

  -Total Gradient:
     Atom            X                  Y                   Z
    ------   -----------------  -----------------  -----------------
       1        0.000000000000     0.000000000000    -0.000022241618
       2        0.000000000000    -0.000000000000     0.000034144966

*** tstop() called on Joses-MacBook-Pro-2.local at Thu Jul 17 09:24:45 2025
Module time:
	user time   =       0.45 seconds =       0.01 minutes
	system time =       1.23 seconds =       0.02 minutes
	total time  =          0 seconds =       0.00 minutes
Total time:
	user time   =      77.84 seconds =       1.30 minutes
	system time =      76.32 seconds =       1.27 minutes
	total time  =         15 seconds =       0.25 minutes

    			-----------------------------------------

    			 OPTKING 3.0: for geometry optimizations

    			     By R.A. King, Bethel University

    			        with contributions from

    			    A.V. Copan, J. Cayton, A. Heide

    			-----------------------------------------

	                            ===> Fragment 1 <==

	 Z (Atomic Numbers)          Masses                          Geom
	       2.000000             4.002603          0.00000000  0.00000000  6.04669368
	      15.000000            30.973762          0.00000000  0.00000000 -0.78138767

	 - Coordinate -           - BOHR/RAD -       - ANG/DEG -
	 R(1,2)           =         6.828081           3.613265

	        --- Internal Coordinate Step in ANG or DEG, aJ/ANG or AJ/DEG ---
	-------------------------------------------------------------------------------
	           Coordinate      Previous         Force          Change          New
	           ----------      --------        ------          ------        ------
	               R(1,2)       3.61327        0.00023        0.00768       3.62095
	-------------------------------------------------------------------------------

	                                 ==> Convergence Check <==

	Measures of convergence in internal coordinates in au.

	Criteria marked as inactive (o), active & met (*), and active & unmet ( ).

	----------------------------------------------------------------------------------------------
	   Step    Total Energy     Delta E     Max Force     RMS Force      Max Disp      RMS Disp
	----------------------------------------------------------------------------------------------
	  Convergence Criteria     1.00e-06 *    3.00e-04 *             o    1.20e-03 *             o
	----------------------------------------------------------------------------------------------
	    17    -343.75658454   -7.78e-07 *    2.82e-05 *    2.82e-05 o    1.45e-02      1.45e-02 o  ~
	----------------------------------------------------------------------------------------------

Next Geometry in Ang
	Fragment 1 (Ang)

	   He   0.0000000000   0.0000000000   3.2036148780
	    P   0.0000000000   0.0000000000  -0.4173349314

    Final optimized geometry and variables:
    Molecular point group: c2v
    Full point group: C_inf_v

    Geometry (in Angstrom), charge = -1, multiplicity = 5:

    HE           0.000000000000     0.000000000000     3.199772495667
    P            0.000000000000     0.000000000000    -0.413492549090

    Psi4 stopped on: Thursday, 17 July 2025 09:24AM
    Psi4 wall time for execution: 0:00:15.46

*** Psi4 exiting successfully. Buy a developer a beer!
