                               Psi4 1.9.1 release

  ==> Input File <==

--------------------------------------------------------------------------
molecule {
-1 5
Al   0.00000        0.60000        0.00000
S   0.00000       -0.60000        0.00000
}

set {
basis              cc-pvdz
reference          uks
maxiter            500
geom_maxiter       500
DAMPING_PERCENTAGE 1
guess              SAP
}

optimize('b3lyp')
--------------------------------------------------------------------------

    Molecular point group: c2v
  Charge       = -1
  Multiplicity = 5
  Basis Set: CC-PVDZ
    Blend: CC-PVDZ
  Basis Set: (CC-PVDZ AUX)
    Blend: CC-PVDZ-JKFIT
  @DF-UKS Final Energy:  -639.24421518495501
    Total Energy =                       -639.2442151849548964
 Dipole X            :          0.0000000            0.0000000            0.0000000
 Dipole Y            :          0.0000000            0.0000000            0.0000000
 Dipole Z            :         -2.0123617           -0.6180494           -2.6304111
 Magnitude           :                                                    2.6304111
    Molecular point group: c2v
  Basis Set: CC-PVDZ
    Blend: CC-PVDZ
  Basis Set: (CC-PVDZ AUX)
    Blend: CC-PVDZ-JKFIT
  Basis Set: CC-PVDZ
    Blend: CC-PVDZ
  Basis Set: (CC-PVDZ AUX)
    Blend: CC-PVDZ-JKFIT
  @DF-UKS Final Energy:  -639.26945177486050
    Total Energy =                       -639.2694517748604994
  Basis Set: CC-PVDZ
    Blend: CC-PVDZ
  Basis Set: (CC-PVDZ AUX)
    Blend: CC-PVDZ-JKFIT
  Basis Set: CC-PVDZ
    Blend: CC-PVDZ
  @DF-UKS Final Energy:  -639.31764669788424
    Total Energy =                       -639.3176466978842427
  @DF-UKS Final Energy:  -639.48690707135745
    Total Energy =                       -639.4869070713574501
  @DF-UKS Final Energy:  -640.06427835255465
    Total Energy =                       -640.0642783525546520
  @DF-UKS Final Energy:  -640.27164071786785
    Total Energy =                       -640.2716407178678537
  @DF-UKS Final Energy:  -640.38203322192794
    Total Energy =                       -640.3820332219278271
  @DF-UKS Final Energy:  -640.50985452054567
    Total Energy =                       -640.5098545205456730
  @DF-UKS Final Energy:  -640.54075647253626
    Total Energy =                       -640.5407564725362590
  @DF-UKS Final Energy:  -640.54819990896613
    Total Energy =                       -640.5481999089661258
  @DF-UKS Final Energy:  -640.55069089142000
    Total Energy =                       -640.5506908914198902
  @DF-UKS Final Energy:  -640.55106001072329
    Total Energy =                       -640.5510600107231767
  @DF-UKS Final Energy:  -640.55112285951463
    Total Energy =                       -640.5511228595146349
  @DF-UKS Final Energy:  -640.55113438980652
    Total Energy =                       -640.5511343898067480
  Basis Set: (CC-PVDZ AUX)
    Blend: CC-PVDZ-JKFIT
  Basis Set: CC-PVDZ
    Blend: CC-PVDZ
  Basis Set: (CC-PVDZ AUX)
    Blend: CC-PVDZ-JKFIT
  @DF-UKS Final Energy:  -640.55113687876405
    Total Energy =                       -640.5511368787640549
  Basis Set: CC-PVDZ
    Blend: CC-PVDZ
  Basis Set: (CC-PVDZ AUX)
    Blend: CC-PVDZ-JKFIT
  Charge       = -1
  Multiplicity = 5
  Basis Set: CC-PVDZ
    Blend: CC-PVDZ
  Basis Set: (CC-PVDZ AUX)
    Blend: CC-PVDZ-JKFIT

    Orbital Energies [Eh]
    ---------------------

    Alpha Occupied:

       1A1   -88.701277     2A1   -55.864625     3A1    -7.760483
       1B2    -5.731493     4A1    -5.721279     1B1    -5.713718
       5A1    -3.945086     6A1    -2.498675     2B2    -2.498085
       2B1    -2.497586     7A1    -0.505869     8A1    -0.175498
       3B2    -0.127652     3B1    -0.084208     9A1    -0.072691
       4B2     0.056701     4B1     0.063049

    Alpha Virtual:

      10A1     0.176020    11A1     0.328002    12A1     0.382093
       5B2     0.384328     5B1     0.388358     6B2     0.437196
       1A2     0.438917    13A1     0.438932     6B1     0.447147
      14A1     0.497568     7B2     0.669667     7B1     0.700690
      15A1     0.731251    16A1     0.768086     2A2     0.771916
      17A1     0.805073     8B2     0.850430     8B1     0.882120
      18A1     1.151506

    Beta Occupied:

       1A1   -88.694132     2A1   -55.858830     3A1    -7.753148
       4A1    -5.712836     1B2    -5.712804     1B1    -5.708334
       5A1    -3.936957     6A1    -2.492838     2B2    -2.488143
       2B1    -2.487830     7A1    -0.447017     8A1    -0.124593
       3B1    -0.061051

    Beta Virtual:

       3B2     0.014784     9A1     0.044792     4B1     0.166647
       4B2     0.167993    10A1     0.211099    11A1     0.358643
      12A1     0.415312     5B2     0.427536     5B1     0.428467
       6B1     0.499711     6B2     0.499828     1A2     0.516358
      13A1     0.516473    14A1     0.536691     7B1     0.714067
       7B2     0.719600    15A1     0.760125     2A2     0.828419
      16A1     0.830352    17A1     0.835359     8B1     0.909276
       8B2     0.913446    18A1     1.182112

    Final Occupation by Irrep:
             A1    A2    B1    B2
    DOCC [     8,    0,    3,    2 ]
    SOCC [     1,    0,    1,    2 ]
    NA   [     9,    0,    4,    4 ]
    NB   [     8,    0,    3,    2 ]

  @DF-UKS Final Energy:  -640.55113703900690

   => Energetics <=

    Nuclear Repulsion Energy =             45.2391510337294847
    One-Electron Energy =                -982.8109989561858129
    Two-Electron Energy =                 332.8528399093770531
    DFT Exchange-Correlation Energy =     -35.8321290259276992
    Empirical Dispersion Energy =           0.0000000000000000
    VV10 Nonlocal Energy =                  0.0000000000000000
    Total Energy =                       -640.5511370390069033

  UHF NO Occupations:
  HONO-2 :    3 B2 1.0000000
  HONO-1 :    4 B1 1.0000000
  HONO-0 :    4 B2 1.0000000
  LUNO+0 :   10 A1 0.0011992
  LUNO+1 :   11 A1 0.0006243
  LUNO+2 :    5 B1 0.0002069
  LUNO+3 :   12 A1 0.0000002

Computation Completed

Properties will be evaluated at   0.000000,   0.000000,   0.000000 [a0]

Properties computed using the SCF density matrix

 Multipole Moments:

 ------------------------------------------------------------------------------------
     Multipole            Electronic (a.u.)      Nuclear  (a.u.)        Total (a.u.)
 ------------------------------------------------------------------------------------

 L = 1.  Multiply by 2.5417464519 to convert [e a0] to [Debye]
 Dipole X            :          0.0000000            0.0000000            0.0000000
 Dipole Y            :          0.0000000            0.0000000            0.0000000
 Dipole Z            :         -0.0436699           -1.2531180           -1.2967879
 Magnitude           :                                                    1.2967879

 ------------------------------------------------------------------------------------

*** tstop() called on Joses-MacBook-Pro-2.local at Thu Jul 17 11:40:52 2025
Module time:
	user time   =      12.92 seconds =       0.22 minutes
	system time =       2.21 seconds =       0.04 minutes
	total time  =          1 seconds =       0.02 minutes
Total time:
	user time   =     312.66 seconds =       5.21 minutes
	system time =      60.62 seconds =       1.01 minutes
	total time  =         39 seconds =       0.65 minutes

*** tstart() called on Joses-MacBook-Pro-2.local
*** at Thu Jul 17 11:40:52 2025

         ------------------------------------------------------------
                                   SCF GRAD
                          Rob Parrish, Justin Turney,
                       Andy Simmonett, and Alex Sokolov
         ------------------------------------------------------------

  ==> Geometry <==

    Molecular point group: c2v
    Full point group: C_inf_v

    Geometry (in Angstrom), charge = -1, multiplicity = 5:

       Center              X                  Y                   Z               Mass
    ------------   -----------------  -----------------  -----------------  -----------------
         AL           0.000000000000     0.000000000000     1.319503026372    26.981538530000
         S            0.000000000000     0.000000000000    -1.113541301478    31.972071174400

  Nuclear repulsion =   45.239151033729485

  ==> Basis Set <==

  Basis Set: CC-PVDZ
    Blend: CC-PVDZ
    Number of shells: 16
    Number of basis functions: 36
    Number of Cartesian functions: 38
    Spherical Harmonics?: true
    Max angular momentum: 2

  ==> DFJKGrad: Density-Fitted SCF Gradients <==

    Gradient:                    1
    J tasked:                  Yes
    K tasked:                  Yes
    wK tasked:                  No
    OpenMP threads:              1
    Integrals threads:           1
    Memory [MiB]:              375
    Schwarz Cutoff:          1E-12
    Fitting Condition:       1E-10

   => Auxiliary Basis Set <=

  Basis Set: (CC-PVDZ AUX)
    Blend: CC-PVDZ-JKFIT
    Number of shells: 72
    Number of basis functions: 224
    Number of Cartesian functions: 260
    Spherical Harmonics?: true
    Max angular momentum: 3

  ==> DFT Potential <==

   => LibXC <=

    Version 6.2.2
    S. Lehtola, C. Steigemann, M. J.T. Oliveira, and M. A.L. Marques.,  SoftwareX 7, 1â€“5 (2018) (10.1016/j.softx.2017.11.002)

   => Composite Functional: B3LYP <=

    B3LYP Hyb-GGA Exchange-Correlation Functional

    P. J. Stephens, F. J. Devlin, C. F. Chabalowski, and M. J. Frisch.,  J. Phys. Chem. 98, 11623 (1994) (10.1021/j100096a001)

    Deriv               =              1
    GGA                 =           TRUE
    Meta                =          FALSE

    Exchange Hybrid     =           TRUE
    MP2 Hybrid          =          FALSE

   => Exchange Functionals <=

    0.0800   Slater exchange
    0.7200         Becke 88

   => Exact (HF) Exchange <=

    0.2000               HF

   => Correlation Functionals <=

    0.1900   Vosko, Wilk & Nusair (VWN5_RPA)
    0.8100   Lee, Yang & Parr

   => LibXC Density Thresholds  <==

    XC_HYB_GGA_XC_B3LYP:  1.00E-15

   => Molecular Quadrature <=

    Radial Scheme          =       TREUTLER
    Pruning Scheme         =           NONE
    Nuclear Scheme         =       TREUTLER

    Blocking Scheme        =         OCTREE
    BS radius alpha        =              1
    Pruning alpha          =              1
    Radial Points          =             75
    Spherical Points       =            302
    Total Points           =          42669
    Total Blocks           =            402
    Max Points             =            255
    Max Functions          =             36
    Weights Tolerance      =       1.00E-15

  -Total Gradient:
     Atom            X                  Y                   Z
    ------   -----------------  -----------------  -----------------
       1        0.000000000000    -0.000000000000    -0.000008863434
       2        0.000000000000    -0.000000000000     0.000035147803

*** tstop() called on Joses-MacBook-Pro-2.local at Thu Jul 17 11:40:53 2025
Module time:
	user time   =       3.07 seconds =       0.05 minutes
	system time =       1.31 seconds =       0.02 minutes
	total time  =          1 seconds =       0.02 minutes
Total time:
	user time   =     315.74 seconds =       5.26 minutes
	system time =      61.94 seconds =       1.03 minutes
	total time  =         40 seconds =       0.67 minutes

    			-----------------------------------------

    			 OPTKING 3.0: for geometry optimizations

    			     By R.A. King, Bethel University

    			        with contributions from

    			    A.V. Copan, J. Cayton, A. Heide

    			-----------------------------------------

	                            ===> Fragment 1 <==

	 Z (Atomic Numbers)          Masses                          Geom
	      13.000000            26.981539          0.00000000  0.00000000  2.49349934
	      16.000000            31.972071          0.00000000  0.00000000 -2.10428809

	 - Coordinate -           - BOHR/RAD -       - ANG/DEG -
	 R(1,2)           =         4.597787           2.433044

	        --- Internal Coordinate Step in ANG or DEG, aJ/ANG or AJ/DEG ---
	-------------------------------------------------------------------------------
	           Coordinate      Previous         Force          Change          New
	           ----------      --------        ------          ------        ------
	               R(1,2)       2.43304        0.00018        0.00019       2.43323
	-------------------------------------------------------------------------------

	                                 ==> Convergence Check <==

	Measures of convergence in internal coordinates in au.

	Criteria marked as inactive (o), active & met (*), and active & unmet ( ).

	----------------------------------------------------------------------------------------------
	   Step    Total Energy     Delta E     Max Force     RMS Force      Max Disp      RMS Disp
	----------------------------------------------------------------------------------------------
	  Convergence Criteria     1.00e-06 *    3.00e-04 *             o    1.20e-03 *             o
	----------------------------------------------------------------------------------------------
	    16    -640.55113704   -1.60e-07 *    2.20e-05 *    2.20e-05 o    3.56e-04 *    3.56e-04 o  ~
	----------------------------------------------------------------------------------------------

Next Geometry in Ang
	Fragment 1 (Ang)

	   Al   0.0000000000   0.0000000000   1.3195972513
	    S   0.0000000000   0.0000000000  -1.1136355264

    Final optimized geometry and variables:
    Molecular point group: c2v
    Full point group: C_inf_v

    Geometry (in Angstrom), charge = -1, multiplicity = 5:

    AL           0.000000000000     0.000000000000     1.319503026372
    S            0.000000000000     0.000000000000    -1.113541301478

    Psi4 stopped on: Thursday, 17 July 2025 11:40AM
    Psi4 wall time for execution: 0:00:40.21

*** Psi4 exiting successfully. Buy a developer a beer!
