                               Psi4 1.9.1 release

  ==> Input File <==

--------------------------------------------------------------------------
molecule {
-1 5
C   0.00000        0.60000        0.00000
Na   0.00000       -0.60000        0.00000
}

set {
basis              cc-pvdz
reference          uks
maxiter            500
geom_maxiter       500
DAMPING_PERCENTAGE 1
guess              SAP
}

optimize('b3lyp')
--------------------------------------------------------------------------

    Molecular point group: c2v
  Charge       = -1
  Multiplicity = 5
  Basis Set: CC-PVDZ
    Blend: CC-PVDZ
  Basis Set: (CC-PVDZ AUX)
    Blend: CC-PVDZ-JKFIT + DEF2-UNIVERSAL-JKFIT
  @DF-UKS Final Energy:  -199.71371786137075
    Total Energy =                       -199.7137178613707533
 Dipole X            :          0.0000000            0.0000000            0.0000000
 Dipole Y            :          0.0000000            0.0000000            0.0000000
 Dipole Z            :         -1.7473436            0.3848790           -1.3624645
 Magnitude           :                                                    1.3624645
    Molecular point group: c2v
  Basis Set: CC-PVDZ
    Blend: CC-PVDZ
  Basis Set: (CC-PVDZ AUX)
    Blend: CC-PVDZ-JKFIT + DEF2-UNIVERSAL-JKFIT
  Basis Set: CC-PVDZ
    Blend: CC-PVDZ
  Basis Set: (CC-PVDZ AUX)
    Blend: CC-PVDZ-JKFIT + DEF2-UNIVERSAL-JKFIT
  @DF-UKS Final Energy:  -199.85766432958224
    Total Energy =                       -199.8576643295822350
  Basis Set: CC-PVDZ
    Blend: CC-PVDZ
  Basis Set: (CC-PVDZ AUX)
    Blend: CC-PVDZ-JKFIT + DEF2-UNIVERSAL-JKFIT
  Basis Set: CC-PVDZ
    Blend: CC-PVDZ
  @DF-UKS Final Energy:  -200.01853737862254
    Total Energy =                       -200.0185373786225114
  @DF-UKS Final Energy:  -200.14751200835536
    Total Energy =                       -200.1475120083553634
  @DF-UKS Final Energy:  -200.19392525816895
    Total Energy =                       -200.1939252581689175
  @DF-UKS Final Energy:  -200.21561013933430
    Total Energy =                       -200.2156101393343306
  @DF-UKS Final Energy:  -200.22430351310987
    Total Energy =                       -200.2243035131098736
  @DF-UKS Final Energy:  -200.22730283692624
    Total Energy =                       -200.2273028369262420
  @DF-UKS Final Energy:  -200.22791900976750
    Total Energy =                       -200.2279190097675041
  @DF-UKS Final Energy:  -200.22808767415708
    Total Energy =                       -200.2280876741570808
  @DF-UKS Final Energy:  -200.22810677817932
    Total Energy =                       -200.2281067781793240
  Basis Set: (CC-PVDZ AUX)
    Blend: CC-PVDZ-JKFIT + DEF2-UNIVERSAL-JKFIT
  Basis Set: CC-PVDZ
    Blend: CC-PVDZ
  Basis Set: (CC-PVDZ AUX)
    Blend: CC-PVDZ-JKFIT + DEF2-UNIVERSAL-JKFIT
  @DF-UKS Final Energy:  -200.22810894070321
    Total Energy =                       -200.2281089407032084
  Basis Set: CC-PVDZ
    Blend: CC-PVDZ
  Basis Set: (CC-PVDZ AUX)
    Blend: CC-PVDZ-JKFIT + DEF2-UNIVERSAL-JKFIT
  Charge       = -1
  Multiplicity = 5
  Basis Set: CC-PVDZ
    Blend: CC-PVDZ
  Basis Set: (CC-PVDZ AUX)
    Blend: CC-PVDZ-JKFIT + DEF2-UNIVERSAL-JKFIT

    Orbital Energies [Eh]
    ---------------------

    Alpha Occupied:

       1A1   -38.297363     2A1    -9.999808     3A1    -2.046407
       1B1    -0.978339     1B2    -0.978339     4A1    -0.976291
       5A1    -0.340393     6A1    -0.024551     2B1    -0.006315
       2B2    -0.006315     7A1     0.034499

    Alpha Virtual:

       3B1     0.107031     3B2     0.107031     8A1     0.127634
       9A1     0.180806     4B1     0.215442     4B2     0.215442
      10A1     0.268020    11A1     0.315109     1A2     0.315109
       5B2     0.349081     5B1     0.349081    12A1     0.414968
      13A1     0.746096     6B1     0.748843     6B2     0.748843
      14A1     1.178582    15A1     1.375679     2A2     1.375712
      16A1     1.386134     7B1     1.409194     7B2     1.409194

    Beta Occupied:

       1A1   -38.295894     2A1    -9.967108     3A1    -2.043752
       1B1    -0.976627     1B2    -0.976627     4A1    -0.973193
       5A1    -0.201991

    Beta Virtual:

       6A1     0.087186     2B1     0.109926     2B2     0.109926
       7A1     0.138553     8A1     0.151631     3B1     0.174619
       3B2     0.174619     9A1     0.208929     4B1     0.240196
       4B2     0.240196    10A1     0.307525    11A1     0.335263
       1A2     0.335265     5B2     0.387400     5B1     0.387400
      12A1     0.452123     6B1     0.824734     6B2     0.824734
      13A1     0.827052    14A1     1.248215    15A1     1.481023
       2A2     1.481072    16A1     1.490062     7B1     1.514357
       7B2     1.514357

    Final Occupation by Irrep:
             A1    A2    B1    B2
    DOCC [     5,    0,    1,    1 ]
    SOCC [     2,    0,    1,    1 ]
    NA   [     7,    0,    2,    2 ]
    NB   [     5,    0,    1,    1 ]

  @DF-UKS Final Energy:  -200.22810914272927

   => Energetics <=

    Nuclear Repulsion Energy =             14.7631774404713916
    One-Electron Energy =                -311.4182115770978498
    Two-Electron Energy =                 112.4943447172106517
    DFT Exchange-Correlation Energy =     -16.0674197233134706
    Empirical Dispersion Energy =           0.0000000000000000
    VV10 Nonlocal Energy =                  0.0000000000000000
    Total Energy =                       -200.2281091427292665

  UHF NO Occupations:
  HONO-2 :    2 B1 1.0000000
  HONO-1 :    2 B2 1.0000000
  HONO-0 :    7 A1 1.0000000
  LUNO+0 :    8 A1 0.0019912
  LUNO+1 :    9 A1 0.0000006
  LUNO+2 :   10 A1 0.0000004
  LUNO+3 :    3 B1 0.0000001

Computation Completed

Properties will be evaluated at   0.000000,   0.000000,   0.000000 [a0]

Properties computed using the SCF density matrix

 Multipole Moments:

 ------------------------------------------------------------------------------------
     Multipole            Electronic (a.u.)      Nuclear  (a.u.)        Total (a.u.)
 ------------------------------------------------------------------------------------

 L = 1.  Multiply by 2.5417464519 to convert [e a0] to [Debye]
 Dipole X            :          0.0000000            0.0000000            0.0000000
 Dipole Y            :          0.0000000            0.0000000            0.0000000
 Dipole Z            :         -0.1149302            0.7587667            0.6438365
 Magnitude           :                                                    0.6438365

 ------------------------------------------------------------------------------------

*** tstop() called on Joses-MacBook-Pro-2.local at Thu Jul 17 10:18:07 2025
Module time:
	user time   =       2.83 seconds =       0.05 minutes
	system time =       3.40 seconds =       0.06 minutes
	total time  =          1 seconds =       0.02 minutes
Total time:
	user time   =      60.18 seconds =       1.00 minutes
	system time =      76.46 seconds =       1.27 minutes
	total time  =         13 seconds =       0.22 minutes

*** tstart() called on Joses-MacBook-Pro-2.local
*** at Thu Jul 17 10:18:07 2025

         ------------------------------------------------------------
                                   SCF GRAD
                          Rob Parrish, Justin Turney,
                       Andy Simmonett, and Alex Sokolov
         ------------------------------------------------------------

  ==> Geometry <==

    Molecular point group: c2v
    Full point group: C_inf_v

    Geometry (in Angstrom), charge = -1, multiplicity = 5:

       Center              X                  Y                   Z               Mass
    ------------   -----------------  -----------------  -----------------  -----------------
         C            0.000000000000     0.000000000000     1.554385594514    12.000000000000
         NA           0.000000000000     0.000000000000    -0.811344685776    22.989769282000

  Nuclear repulsion =   14.763177440471392

  ==> Basis Set <==

  Basis Set: CC-PVDZ
    Blend: CC-PVDZ
    Number of shells: 14
    Number of basis functions: 32
    Number of Cartesian functions: 34
    Spherical Harmonics?: true
    Max angular momentum: 2

  ==> DFJKGrad: Density-Fitted SCF Gradients <==

    Gradient:                    1
    J tasked:                  Yes
    K tasked:                  Yes
    wK tasked:                  No
    OpenMP threads:              1
    Integrals threads:           1
    Memory [MiB]:              375
    Schwarz Cutoff:          1E-12
    Fitting Condition:       1E-10

   => Auxiliary Basis Set <=

  Basis Set: (CC-PVDZ AUX)
    Blend: CC-PVDZ-JKFIT + DEF2-UNIVERSAL-JKFIT
    Number of shells: 58
    Number of basis functions: 182
    Number of Cartesian functions: 218
    Spherical Harmonics?: true
    Max angular momentum: 4

  ==> DFT Potential <==

   => LibXC <=

    Version 6.2.2
    S. Lehtola, C. Steigemann, M. J.T. Oliveira, and M. A.L. Marques.,  SoftwareX 7, 1â€“5 (2018) (10.1016/j.softx.2017.11.002)

   => Composite Functional: B3LYP <=

    B3LYP Hyb-GGA Exchange-Correlation Functional

    P. J. Stephens, F. J. Devlin, C. F. Chabalowski, and M. J. Frisch.,  J. Phys. Chem. 98, 11623 (1994) (10.1021/j100096a001)

    Deriv               =              1
    GGA                 =           TRUE
    Meta                =          FALSE

    Exchange Hybrid     =           TRUE
    MP2 Hybrid          =          FALSE

   => Exchange Functionals <=

    0.0800   Slater exchange
    0.7200         Becke 88

   => Exact (HF) Exchange <=

    0.2000               HF

   => Correlation Functionals <=

    0.1900   Vosko, Wilk & Nusair (VWN5_RPA)
    0.8100   Lee, Yang & Parr

   => LibXC Density Thresholds  <==

    XC_HYB_GGA_XC_B3LYP:  1.00E-15

   => Molecular Quadrature <=

    Radial Scheme          =       TREUTLER
    Pruning Scheme         =           NONE
    Nuclear Scheme         =       TREUTLER

    Blocking Scheme        =         OCTREE
    BS radius alpha        =              1
    Pruning alpha          =              1
    Radial Points          =             75
    Spherical Points       =            302
    Total Points           =          43797
    Total Blocks           =            428
    Max Points             =            254
    Max Functions          =             32
    Weights Tolerance      =       1.00E-15

  -Total Gradient:
     Atom            X                  Y                   Z
    ------   -----------------  -----------------  -----------------
       1        0.000000000000     0.000000000000    -0.000034019674
       2        0.000000000000     0.000000000000     0.000027359211

*** tstop() called on Joses-MacBook-Pro-2.local at Thu Jul 17 10:18:07 2025
Module time:
	user time   =       0.75 seconds =       0.01 minutes
	system time =       2.05 seconds =       0.03 minutes
	total time  =          0 seconds =       0.00 minutes
Total time:
	user time   =      60.93 seconds =       1.02 minutes
	system time =      78.52 seconds =       1.31 minutes
	total time  =         13 seconds =       0.22 minutes

    			-----------------------------------------

    			 OPTKING 3.0: for geometry optimizations

    			     By R.A. King, Bethel University

    			        with contributions from

    			    A.V. Copan, J. Cayton, A. Heide

    			-----------------------------------------

	                            ===> Fragment 1 <==

	 Z (Atomic Numbers)          Masses                          Geom
	       6.000000            12.000000          0.00000000  0.00000000  2.93736307
	      11.000000            22.989769          0.00000000  0.00000000 -1.53321925

	 - Coordinate -           - BOHR/RAD -       - ANG/DEG -
	 R(1,2)           =         4.470582           2.365730

	        --- Internal Coordinate Step in ANG or DEG, aJ/ANG or AJ/DEG ---
	-------------------------------------------------------------------------------
	           Coordinate      Previous         Force          Change          New
	           ----------      --------        ------          ------        ------
	               R(1,2)       2.36573        0.00025        0.00043       2.36616
	-------------------------------------------------------------------------------

	                                 ==> Convergence Check <==

	Measures of convergence in internal coordinates in au.

	Criteria marked as inactive (o), active & met (*), and active & unmet ( ).

	----------------------------------------------------------------------------------------------
	   Step    Total Energy     Delta E     Max Force     RMS Force      Max Disp      RMS Disp
	----------------------------------------------------------------------------------------------
	  Convergence Criteria     1.00e-06 *    3.00e-04 *             o    1.20e-03 *             o
	----------------------------------------------------------------------------------------------
	    13    -200.22810914   -2.02e-07 *    3.07e-05 *    3.07e-05 o    8.09e-04 *    8.09e-04 o  ~
	----------------------------------------------------------------------------------------------

Next Geometry in Ang
	Fragment 1 (Ang)

	    C   0.0000000000   0.0000000000   1.5545996624
	   Na   0.0000000000   0.0000000000  -0.8115587536

    Final optimized geometry and variables:
    Molecular point group: c2v
    Full point group: C_inf_v

    Geometry (in Angstrom), charge = -1, multiplicity = 5:

    C            0.000000000000     0.000000000000     1.554385594514
    NA           0.000000000000     0.000000000000    -0.811344685776

    Psi4 stopped on: Thursday, 17 July 2025 10:18AM
    Psi4 wall time for execution: 0:00:14.25

*** Psi4 exiting successfully. Buy a developer a beer!
