                               Psi4 1.9.1 release

  ==> Input File <==

--------------------------------------------------------------------------
molecule {
-1 5
O   0.00000        0.60000        0.00000
P   0.00000       -0.60000        0.00000
}

set {
basis              cc-pvdz
reference          uks
maxiter            500
geom_maxiter       500
DAMPING_PERCENTAGE 1
guess              SAP
}

optimize('b3lyp')
--------------------------------------------------------------------------

    Molecular point group: c2v
  Charge       = -1
  Multiplicity = 5
  Basis Set: CC-PVDZ
    Blend: CC-PVDZ
  Basis Set: (CC-PVDZ AUX)
    Blend: CC-PVDZ-JKFIT
  @DF-UKS Final Energy:  -415.99302834765297
    Total Energy =                       -415.9930283476529667
 Dipole X            :          0.0000000            0.0000000            0.0000000
 Dipole Y            :          0.0000000            0.0000000            0.0000000
 Dipole Z            :         -0.2877665            0.3797926            0.0920261
 Magnitude           :                                                    0.0920261
    Molecular point group: c2v
  Basis Set: CC-PVDZ
    Blend: CC-PVDZ
  Basis Set: (CC-PVDZ AUX)
    Blend: CC-PVDZ-JKFIT
  Basis Set: CC-PVDZ
    Blend: CC-PVDZ
  Basis Set: (CC-PVDZ AUX)
    Blend: CC-PVDZ-JKFIT
  @DF-UKS Final Energy:  -416.15594312624262
    Total Energy =                       -416.1559431262426187
  Basis Set: CC-PVDZ
    Blend: CC-PVDZ
  Basis Set: (CC-PVDZ AUX)
    Blend: CC-PVDZ-JKFIT
  Basis Set: CC-PVDZ
    Blend: CC-PVDZ
  @DF-UKS Final Energy:  -416.24051850549540
    Total Energy =                       -416.2405185054954018
  @DF-UKS Final Energy:  -416.27565823011321
    Total Energy =                       -416.2756582301132084
  @DF-UKS Final Energy:  -416.30439533455791
    Total Energy =                       -416.3043953345579098
  @DF-UKS Final Energy:  -416.33159542251371
    Total Energy =                       -416.3315954225137148
  @DF-UKS Final Energy:  -416.35621045932641
    Total Energy =                       -416.3562104593264053
  @DF-UKS Final Energy:  -416.37429751952658
    Total Energy =                       -416.3742975195265217
  @DF-UKS Final Energy:  -416.37986610683345
    Total Energy =                       -416.3798661068333899
  @DF-UKS Final Energy:  -416.38173045355398
    Total Energy =                       -416.3817304535539847
  @DF-UKS Final Energy:  -416.38223534043897
    Total Energy =                       -416.3822353404390242
  @DF-UKS Final Energy:  -416.38231342822235
    Total Energy =                       -416.3823134282222895
  @DF-UKS Final Energy:  -416.38232992892557
    Total Energy =                       -416.3823299289255715
  Basis Set: (CC-PVDZ AUX)
    Blend: CC-PVDZ-JKFIT
  Basis Set: CC-PVDZ
    Blend: CC-PVDZ
  Basis Set: (CC-PVDZ AUX)
    Blend: CC-PVDZ-JKFIT
  @DF-UKS Final Energy:  -416.38233131550601
    Total Energy =                       -416.3823313155060077
  Basis Set: CC-PVDZ
    Blend: CC-PVDZ
  Basis Set: (CC-PVDZ AUX)
    Blend: CC-PVDZ-JKFIT
  Charge       = -1
  Multiplicity = 5
  Basis Set: CC-PVDZ
    Blend: CC-PVDZ
  Basis Set: (CC-PVDZ AUX)
    Blend: CC-PVDZ-JKFIT

    Orbital Energies [Eh]
    ---------------------

    Alpha Occupied:

       1A1   -76.859164     2A1   -18.871178     3A1    -6.325929
       4A1    -4.490613     1B1    -4.488121     1B2    -4.488121
       5A1    -0.621501     6A1    -0.341200     7A1    -0.094450
       2B2    -0.029724     2B1    -0.029724     3B1    -0.003113
       3B2    -0.003113     8A1     0.017280

    Alpha Virtual:

       9A1     0.560335     4B1     0.628566     4B2     0.628566
      10A1     0.643170     5B1     0.682438     5B2     0.682438
      11A1     0.686443     1A2     0.686443    12A1     0.709855
       6B2     1.191703     6B1     1.191703    13A1     1.219783
      14A1     1.596641     7B2     2.849502     7B1     2.849502
      15A1     2.849606    16A1     2.891721     2A2     2.891816

    Beta Occupied:

       1A1   -76.849000     2A1   -18.835574     3A1    -6.315121
       1B1    -4.473168     1B2    -4.473168     4A1    -4.473064
       5A1    -0.510297     6A1    -0.242118     2B1     0.048071
       2B2     0.048071

    Beta Virtual:

       7A1     0.105704     3B2     0.118633     3B1     0.118633
       8A1     0.213828     9A1     0.602334     4B2     0.671690
       4B1     0.671690    10A1     0.706747     1A2     0.761937
      11A1     0.761937     5B2     0.766728     5B1     0.766728
      12A1     0.788525     6B1     1.233771     6B2     1.233771
      13A1     1.317792    14A1     1.660350    15A1     2.940432
       2A2     2.940520     7B1     2.951612     7B2     2.951612
      16A1     2.977614

    Final Occupation by Irrep:
             A1    A2    B1    B2
    DOCC [     6,    0,    2,    2 ]
    SOCC [     2,    0,    1,    1 ]
    NA   [     8,    0,    3,    3 ]
    NB   [     6,    0,    2,    2 ]

  @DF-UKS Final Energy:  -416.38233145496554

   => Energetics <=

    Nuclear Repulsion Energy =             23.5006519858444420
    One-Electron Energy =                -628.6672074248162971
    Two-Electron Energy =                 214.5578149739554306
    DFT Exchange-Correlation Energy =     -25.7735909899491418
    Empirical Dispersion Energy =           0.0000000000000000
    VV10 Nonlocal Energy =                  0.0000000000000000
    Total Energy =                       -416.3823314549655379

  UHF NO Occupations:
  HONO-2 :    3 B1 1.0000000
  HONO-1 :    3 B2 1.0000000
  HONO-0 :    8 A1 1.0000000
  LUNO+0 :    4 B2 0.0009391
  LUNO+1 :    4 B1 0.0009391
  LUNO+2 :    9 A1 0.0004233
  LUNO+3 :   10 A1 0.0001265

Computation Completed

Properties will be evaluated at   0.000000,   0.000000,   0.000000 [a0]

Properties computed using the SCF density matrix

 Multipole Moments:

 ------------------------------------------------------------------------------------
     Multipole            Electronic (a.u.)      Nuclear  (a.u.)        Total (a.u.)
 ------------------------------------------------------------------------------------

 L = 1.  Multiply by 2.5417464519 to convert [e a0] to [Debye]
 Dipole X            :          0.0000000            0.0000000            0.0000000
 Dipole Y            :          0.0000000            0.0000000            0.0000000
 Dipole Z            :         -1.6398308            0.8552001           -0.7846306
 Magnitude           :                                                    0.7846306

 ------------------------------------------------------------------------------------

*** tstop() called on Joses-MacBook-Pro-2.local at Thu Jul 17 10:44:06 2025
Module time:
	user time   =       2.63 seconds =       0.04 minutes
	system time =       4.24 seconds =       0.07 minutes
	total time  =          0 seconds =       0.00 minutes
Total time:
	user time   =      78.96 seconds =       1.32 minutes
	system time =      89.71 seconds =       1.50 minutes
	total time  =         17 seconds =       0.28 minutes

*** tstart() called on Joses-MacBook-Pro-2.local
*** at Thu Jul 17 10:44:06 2025

         ------------------------------------------------------------
                                   SCF GRAD
                          Rob Parrish, Justin Turney,
                       Andy Simmonett, and Alex Sokolov
         ------------------------------------------------------------

  ==> Geometry <==

    Molecular point group: c2v
    Full point group: C_inf_v

    Geometry (in Angstrom), charge = -1, multiplicity = 5:

       Center              X                  Y                   Z               Mass
    ------------   -----------------  -----------------  -----------------  -----------------
         O            0.000000000000     0.000000000000     1.781919583432    15.994914619570
         P            0.000000000000     0.000000000000    -0.920186950406    30.973761998420

  Nuclear repulsion =   23.500651985844442

  ==> Basis Set <==

  Basis Set: CC-PVDZ
    Blend: CC-PVDZ
    Number of shells: 14
    Number of basis functions: 32
    Number of Cartesian functions: 34
    Spherical Harmonics?: true
    Max angular momentum: 2

  ==> DFJKGrad: Density-Fitted SCF Gradients <==

    Gradient:                    1
    J tasked:                  Yes
    K tasked:                  Yes
    wK tasked:                  No
    OpenMP threads:              1
    Integrals threads:           1
    Memory [MiB]:              375
    Schwarz Cutoff:          1E-12
    Fitting Condition:       1E-10

   => Auxiliary Basis Set <=

  Basis Set: (CC-PVDZ AUX)
    Blend: CC-PVDZ-JKFIT
    Number of shells: 60
    Number of basis functions: 182
    Number of Cartesian functions: 211
    Spherical Harmonics?: true
    Max angular momentum: 3

  ==> DFT Potential <==

   => LibXC <=

    Version 6.2.2
    S. Lehtola, C. Steigemann, M. J.T. Oliveira, and M. A.L. Marques.,  SoftwareX 7, 1â€“5 (2018) (10.1016/j.softx.2017.11.002)

   => Composite Functional: B3LYP <=

    B3LYP Hyb-GGA Exchange-Correlation Functional

    P. J. Stephens, F. J. Devlin, C. F. Chabalowski, and M. J. Frisch.,  J. Phys. Chem. 98, 11623 (1994) (10.1021/j100096a001)

    Deriv               =              1
    GGA                 =           TRUE
    Meta                =          FALSE

    Exchange Hybrid     =           TRUE
    MP2 Hybrid          =          FALSE

   => Exchange Functionals <=

    0.0800   Slater exchange
    0.7200         Becke 88

   => Exact (HF) Exchange <=

    0.2000               HF

   => Correlation Functionals <=

    0.1900   Vosko, Wilk & Nusair (VWN5_RPA)
    0.8100   Lee, Yang & Parr

   => LibXC Density Thresholds  <==

    XC_HYB_GGA_XC_B3LYP:  1.00E-15

   => Molecular Quadrature <=

    Radial Scheme          =       TREUTLER
    Pruning Scheme         =           NONE
    Nuclear Scheme         =       TREUTLER

    Blocking Scheme        =         OCTREE
    BS radius alpha        =              1
    Pruning alpha          =              1
    Radial Points          =             75
    Spherical Points       =            302
    Total Points           =          42319
    Total Blocks           =            383
    Max Points             =            256
    Max Functions          =             32
    Weights Tolerance      =       1.00E-15

  -Total Gradient:
     Atom            X                  Y                   Z
    ------   -----------------  -----------------  -----------------
       1        0.000000000000    -0.000000000000    -0.000003439140
       2        0.000000000000    -0.000000000000     0.000024842678

*** tstop() called on Joses-MacBook-Pro-2.local at Thu Jul 17 10:44:07 2025
Module time:
	user time   =       0.57 seconds =       0.01 minutes
	system time =       1.60 seconds =       0.03 minutes
	total time  =          1 seconds =       0.02 minutes
Total time:
	user time   =      79.54 seconds =       1.33 minutes
	system time =      91.31 seconds =       1.52 minutes
	total time  =         18 seconds =       0.30 minutes

    			-----------------------------------------

    			 OPTKING 3.0: for geometry optimizations

    			     By R.A. King, Bethel University

    			        with contributions from

    			    A.V. Copan, J. Cayton, A. Heide

    			-----------------------------------------

	                            ===> Fragment 1 <==

	 Z (Atomic Numbers)          Masses                          Geom
	       8.000000            15.994915          0.00000000  0.00000000  3.36733999
	      15.000000            30.973762          0.00000000  0.00000000 -1.73890132

	 - Coordinate -           - BOHR/RAD -       - ANG/DEG -
	 R(1,2)           =         5.106241           2.702107

	        --- Internal Coordinate Step in ANG or DEG, aJ/ANG or AJ/DEG ---
	-------------------------------------------------------------------------------
	           Coordinate      Previous         Force          Change          New
	           ----------      --------        ------          ------        ------
	               R(1,2)       2.70211        0.00012        0.00064       2.70275
	-------------------------------------------------------------------------------

	                                 ==> Convergence Check <==

	Measures of convergence in internal coordinates in au.

	Criteria marked as inactive (o), active & met (*), and active & unmet ( ).

	----------------------------------------------------------------------------------------------
	   Step    Total Energy     Delta E     Max Force     RMS Force      Max Disp      RMS Disp
	----------------------------------------------------------------------------------------------
	  Convergence Criteria     1.00e-06 *    3.00e-04 *             o    1.20e-03 *             o
	----------------------------------------------------------------------------------------------
	    15    -416.38233145   -1.39e-07 *    1.41e-05 *    1.41e-05 o    1.22e-03      1.22e-03 o  ~
	----------------------------------------------------------------------------------------------

Next Geometry in Ang
	Fragment 1 (Ang)

	    O   0.0000000000   0.0000000000   1.7822415925
	    P   0.0000000000   0.0000000000  -0.9205089594

    Final optimized geometry and variables:
    Molecular point group: c2v
    Full point group: C_inf_v

    Geometry (in Angstrom), charge = -1, multiplicity = 5:

    O            0.000000000000     0.000000000000     1.781919583432
    P            0.000000000000     0.000000000000    -0.920186950406

    Psi4 stopped on: Thursday, 17 July 2025 10:44AM
    Psi4 wall time for execution: 0:00:18.35

*** Psi4 exiting successfully. Buy a developer a beer!
