                               Psi4 1.9.1 release

  ==> Input File <==

--------------------------------------------------------------------------
molecule {
-1 5
He   0.00000        0.60000        0.00000
N   0.00000       -0.60000        0.00000
}

set {
basis              cc-pvdz
reference          uks
maxiter            500
geom_maxiter       500
DAMPING_PERCENTAGE 1
guess              SAP
}

optimize('b3lyp')
--------------------------------------------------------------------------

    Molecular point group: c2v
  Charge       = -1
  Multiplicity = 5
  Basis Set: CC-PVDZ
    Blend: CC-PVDZ
  Basis Set: (CC-PVDZ AUX)
    Blend: CC-PVDZ-JKFIT + DEF2-UNIVERSAL-JKFIT
  @DF-UKS Final Energy:   -56.52478036657978
    Total Energy =                        -56.5247803665797832
 Dipole X            :          0.0000000            0.0000000            0.0000000
 Dipole Y            :          0.0000000            0.0000000            0.0000000
 Dipole Z            :          0.9404472           -0.0015207            0.9389265
 Magnitude           :                                                    0.9389265
    Molecular point group: c2v
  Basis Set: CC-PVDZ
    Blend: CC-PVDZ
  Basis Set: (CC-PVDZ AUX)
    Blend: CC-PVDZ-JKFIT + DEF2-UNIVERSAL-JKFIT
  Basis Set: CC-PVDZ
    Blend: CC-PVDZ
  Basis Set: (CC-PVDZ AUX)
    Blend: CC-PVDZ-JKFIT + DEF2-UNIVERSAL-JKFIT
  @DF-UKS Final Energy:   -56.63195290728749
    Total Energy =                        -56.6319529072874914
  Basis Set: CC-PVDZ
    Blend: CC-PVDZ
  Basis Set: (CC-PVDZ AUX)
    Blend: CC-PVDZ-JKFIT + DEF2-UNIVERSAL-JKFIT
  Basis Set: CC-PVDZ
    Blend: CC-PVDZ
  @DF-UKS Final Energy:   -56.66606848181924
    Total Energy =                        -56.6660684818192379
  @DF-UKS Final Energy:   -56.68505578689179
    Total Energy =                        -56.6850557868917875
  @DF-UKS Final Energy:   -56.69426034758666
    Total Energy =                        -56.6942603475866633
  @DF-UKS Final Energy:   -56.69904583455891
    Total Energy =                        -56.6990458345589090
  @DF-UKS Final Energy:   -56.70156163977951
    Total Energy =                        -56.7015616397795128
  @DF-UKS Final Energy:   -56.70284690433196
    Total Energy =                        -56.7028469043319561
  @DF-UKS Final Energy:   -56.70344408130828
    Total Energy =                        -56.7034440813082767
  @DF-UKS Final Energy:   -56.70369186325409
    Total Energy =                        -56.7036918632540861
  @DF-UKS Final Energy:   -56.70378369703281
    Total Energy =                        -56.7037836970328115
  @DF-UKS Final Energy:   -56.70380760623772
    Total Energy =                        -56.7038076062377243
  @DF-UKS Final Energy:   -56.70381796197309
    Total Energy =                        -56.7038179619730869
  Basis Set: (CC-PVDZ AUX)
    Blend: CC-PVDZ-JKFIT + DEF2-UNIVERSAL-JKFIT
  Basis Set: CC-PVDZ
    Blend: CC-PVDZ
  Basis Set: (CC-PVDZ AUX)
    Blend: CC-PVDZ-JKFIT + DEF2-UNIVERSAL-JKFIT
  @DF-UKS Final Energy:   -56.70382060345474
    Total Energy =                        -56.7038206034547372
  Basis Set: CC-PVDZ
    Blend: CC-PVDZ
  Basis Set: (CC-PVDZ AUX)
    Blend: CC-PVDZ-JKFIT + DEF2-UNIVERSAL-JKFIT
  Charge       = -1
  Multiplicity = 5
  Basis Set: CC-PVDZ
    Blend: CC-PVDZ
  Basis Set: (CC-PVDZ AUX)
    Blend: CC-PVDZ-JKFIT + DEF2-UNIVERSAL-JKFIT

    Orbital Energies [Eh]
    ---------------------

    Alpha Occupied:

       1A1   -13.856798     2A1    -0.483135     3A1    -0.360075
       1B2     0.075332     1B1     0.086156     4A1     0.086180
       2B2     0.933745

    Alpha Virtual:

       5A1     1.030579     2B1     1.041962     6A1     1.135683
       7A1     1.311490     3B1     2.101738     8A1     2.101846
       3B2     2.120393     1A2     2.120404     9A1     2.128221
       4B1     2.355164     4B2     2.355279    10A1     2.358899

    Beta Occupied:

       1A1   -13.785074     2A1    -0.483040     3A1    -0.159545

    Beta Virtual:

       4A1     0.320717     1B1     0.320894     1B2     0.360841
       5A1     1.147596     2B1     1.170579     2B2     1.216261
       6A1     1.264502     7A1     1.335300     3B1     2.241462
       8A1     2.241546     3B2     2.269241     1A2     2.269277
       9A1     2.279201     4B1     2.355238     4B2     2.355355
      10A1     2.359074

    Final Occupation by Irrep:
             A1    A2    B1    B2
    DOCC [     3,    0,    0,    0 ]
    SOCC [     1,    0,    1,    2 ]
    NA   [     4,    0,    1,    2 ]
    NB   [     3,    0,    0,    0 ]

  @DF-UKS Final Energy:   -56.70382138206642

   => Energetics <=

    Nuclear Repulsion Energy =              2.4026038412171489
    One-Electron Energy =                 -85.4582184072787641
    Two-Electron Energy =                  33.0400282137006087
    DFT Exchange-Correlation Energy =      -6.6882350297054005
    Empirical Dispersion Energy =           0.0000000000000000
    VV10 Nonlocal Energy =                  0.0000000000000000
    Total Energy =                        -56.7038213820664154

  UHF NO Occupations:
  HONO-2 :    1 B1 1.0000000
  HONO-1 :    4 A1 1.0000000
  HONO-0 :    2 B2 1.0000000
  LUNO+0 :    5 A1 0.0011039
  LUNO+1 :    6 A1 0.0000001
  LUNO+2 :    7 A1 0.0000000
  LUNO+3 :    2 B1 0.0000000

Computation Completed

Properties will be evaluated at   0.000000,   0.000000,   0.000000 [a0]

Properties computed using the SCF density matrix

 Multipole Moments:

 ------------------------------------------------------------------------------------
     Multipole            Electronic (a.u.)      Nuclear  (a.u.)        Total (a.u.)
 ------------------------------------------------------------------------------------

 L = 1.  Multiply by 2.5417464519 to convert [e a0] to [Debye]
 Dipole X            :          0.0000000            0.0000000            0.0000000
 Dipole Y            :          0.0000000            0.0000000            0.0000000
 Dipole Z            :          1.2896427           -0.0039076            1.2857351
 Magnitude           :                                                    1.2857351

 ------------------------------------------------------------------------------------

*** tstop() called on Joses-MacBook-Pro-2.local at Thu Jul 17 09:19:42 2025
Module time:
	user time   =       0.59 seconds =       0.01 minutes
	system time =       2.97 seconds =       0.05 minutes
	total time  =          0 seconds =       0.00 minutes
Total time:
	user time   =      17.51 seconds =       0.29 minutes
	system time =      59.30 seconds =       0.99 minutes
	total time  =          8 seconds =       0.13 minutes

*** tstart() called on Joses-MacBook-Pro-2.local
*** at Thu Jul 17 09:19:42 2025

         ------------------------------------------------------------
                                   SCF GRAD
                          Rob Parrish, Justin Turney,
                       Andy Simmonett, and Alex Sokolov
         ------------------------------------------------------------

  ==> Geometry <==

    Molecular point group: c2v
    Full point group: C_inf_v

    Geometry (in Angstrom), charge = -1, multiplicity = 5:

       Center              X                  Y                   Z               Mass
    ------------   -----------------  -----------------  -----------------  -----------------
         HE           0.000000000000     0.000000000000     2.398064853257     4.002603254130
         N            0.000000000000     0.000000000000    -0.685456792003    14.003074004430

  Nuclear repulsion =    2.402603841217149

  ==> Basis Set <==

  Basis Set: CC-PVDZ
    Blend: CC-PVDZ
    Number of shells: 9
    Number of basis functions: 19
    Number of Cartesian functions: 20
    Spherical Harmonics?: true
    Max angular momentum: 2

  ==> DFJKGrad: Density-Fitted SCF Gradients <==

    Gradient:                    1
    J tasked:                  Yes
    K tasked:                  Yes
    wK tasked:                  No
    OpenMP threads:              1
    Integrals threads:           1
    Memory [MiB]:              375
    Schwarz Cutoff:          1E-12
    Fitting Condition:       1E-10

   => Auxiliary Basis Set <=

  Basis Set: (CC-PVDZ AUX)
    Blend: CC-PVDZ-JKFIT + DEF2-UNIVERSAL-JKFIT
    Number of shells: 33
    Number of basis functions: 93
    Number of Cartesian functions: 106
    Spherical Harmonics?: true
    Max angular momentum: 3

  ==> DFT Potential <==

   => LibXC <=

    Version 6.2.2
    S. Lehtola, C. Steigemann, M. J.T. Oliveira, and M. A.L. Marques.,  SoftwareX 7, 1â€“5 (2018) (10.1016/j.softx.2017.11.002)

   => Composite Functional: B3LYP <=

    B3LYP Hyb-GGA Exchange-Correlation Functional

    P. J. Stephens, F. J. Devlin, C. F. Chabalowski, and M. J. Frisch.,  J. Phys. Chem. 98, 11623 (1994) (10.1021/j100096a001)

    Deriv               =              1
    GGA                 =           TRUE
    Meta                =          FALSE

    Exchange Hybrid     =           TRUE
    MP2 Hybrid          =          FALSE

   => Exchange Functionals <=

    0.0800   Slater exchange
    0.7200         Becke 88

   => Exact (HF) Exchange <=

    0.2000               HF

   => Correlation Functionals <=

    0.1900   Vosko, Wilk & Nusair (VWN5_RPA)
    0.8100   Lee, Yang & Parr

   => LibXC Density Thresholds  <==

    XC_HYB_GGA_XC_B3LYP:  1.00E-15

   => Molecular Quadrature <=

    Radial Scheme          =       TREUTLER
    Pruning Scheme         =           NONE
    Nuclear Scheme         =       TREUTLER

    Blocking Scheme        =         OCTREE
    BS radius alpha        =              1
    Pruning alpha          =              1
    Radial Points          =             75
    Spherical Points       =            302
    Total Points           =          43378
    Total Blocks           =            385
    Max Points             =            255
    Max Functions          =             19
    Weights Tolerance      =       1.00E-15

  -Total Gradient:
     Atom            X                  Y                   Z
    ------   -----------------  -----------------  -----------------
       1        0.000000000000     0.000000000000    -0.000020925222
       2        0.000000000000     0.000000000000     0.000017628780

*** tstop() called on Joses-MacBook-Pro-2.local at Thu Jul 17 09:19:42 2025
Module time:
	user time   =       0.30 seconds =       0.01 minutes
	system time =       0.69 seconds =       0.01 minutes
	total time  =          0 seconds =       0.00 minutes
Total time:
	user time   =      17.82 seconds =       0.30 minutes
	system time =      59.99 seconds =       1.00 minutes
	total time  =          8 seconds =       0.13 minutes

    			-----------------------------------------

    			 OPTKING 3.0: for geometry optimizations

    			     By R.A. King, Bethel University

    			        with contributions from

    			    A.V. Copan, J. Cayton, A. Heide

    			-----------------------------------------

	                            ===> Fragment 1 <==

	 Z (Atomic Numbers)          Masses                          Geom
	       2.000000             4.002603          0.00000000  0.00000000  4.53168580
	       7.000000            14.003074          0.00000000  0.00000000 -1.29532561

	 - Coordinate -           - BOHR/RAD -       - ANG/DEG -
	 R(1,2)           =         5.827011           3.083522

	        --- Internal Coordinate Step in ANG or DEG, aJ/ANG or AJ/DEG ---
	-------------------------------------------------------------------------------
	           Coordinate      Previous         Force          Change          New
	           ----------      --------        ------          ------        ------
	               R(1,2)       3.08352        0.00016        0.01208       3.09560
	-------------------------------------------------------------------------------

	                                 ==> Convergence Check <==

	Measures of convergence in internal coordinates in au.

	Criteria marked as inactive (o), active & met (*), and active & unmet ( ).

	----------------------------------------------------------------------------------------------
	   Step    Total Energy     Delta E     Max Force     RMS Force      Max Disp      RMS Disp
	----------------------------------------------------------------------------------------------
	  Convergence Criteria     1.00e-06 *    3.00e-04 *             o    1.20e-03 *             o
	----------------------------------------------------------------------------------------------
	    15     -56.70382138   -7.79e-07 *    1.93e-05 *    1.93e-05 o    2.28e-02      2.28e-02 o  ~
	----------------------------------------------------------------------------------------------

Next Geometry in Ang
	Fragment 1 (Ang)

	   He   0.0000000000   0.0000000000   2.4041056566
	    N   0.0000000000   0.0000000000  -0.6914975953

    Final optimized geometry and variables:
    Molecular point group: c2v
    Full point group: C_inf_v

    Geometry (in Angstrom), charge = -1, multiplicity = 5:

    HE           0.000000000000     0.000000000000     2.398064853257
    N            0.000000000000     0.000000000000    -0.685456792003

    Psi4 stopped on: Thursday, 17 July 2025 09:19AM
    Psi4 wall time for execution: 0:00:08.81

*** Psi4 exiting successfully. Buy a developer a beer!
