                               Psi4 1.9.1 release

  ==> Input File <==

--------------------------------------------------------------------------
molecule {
-1 5
Be   0.00000        0.60000        0.00000
N   0.00000       -0.60000        0.00000
}

set {
basis              cc-pvdz
reference          uks
maxiter            500
geom_maxiter       500
DAMPING_PERCENTAGE 1
guess              SAP
}

optimize('b3lyp')
--------------------------------------------------------------------------

    Molecular point group: c2v
  Charge       = -1
  Multiplicity = 5
  Basis Set: CC-PVDZ
    Blend: CC-PVDZ
  Basis Set: (CC-PVDZ AUX)
    Blend: CC-PVDZ-JKFIT + DEF2-UNIVERSAL-JKFIT
  @DF-UKS Final Energy:   -69.11753330568585
    Total Energy =                        -69.1175333056858534
 Dipole X            :          0.0000000            0.0000000            0.0000000
 Dipole Y            :          0.0000000            0.0000000            0.0000000
 Dipole Z            :         -1.2594675           -0.6968945           -1.9563620
 Magnitude           :                                                    1.9563620
    Molecular point group: c2v
  Basis Set: CC-PVDZ
    Blend: CC-PVDZ
  Basis Set: (CC-PVDZ AUX)
    Blend: CC-PVDZ-JKFIT + DEF2-UNIVERSAL-JKFIT
  Basis Set: CC-PVDZ
    Blend: CC-PVDZ
  Basis Set: (CC-PVDZ AUX)
    Blend: CC-PVDZ-JKFIT + DEF2-UNIVERSAL-JKFIT
  @DF-UKS Final Energy:   -69.19987402323181
    Total Energy =                        -69.1998740232318141
  Basis Set: CC-PVDZ
    Blend: CC-PVDZ
  Basis Set: (CC-PVDZ AUX)
    Blend: CC-PVDZ-JKFIT + DEF2-UNIVERSAL-JKFIT
  Basis Set: CC-PVDZ
    Blend: CC-PVDZ
  @DF-UKS Final Energy:   -69.21872764288462
    Total Energy =                        -69.2187276428846161
  @DF-UKS Final Energy:   -69.22741873124301
    Total Energy =                        -69.2274187312430058
  @DF-UKS Final Energy:   -69.22927198995809
    Total Energy =                        -69.2292719899580931
  @DF-UKS Final Energy:   -69.22974602868688
    Total Energy =                        -69.2297460286868755
  @DF-UKS Final Energy:   -69.22988021405853
    Total Energy =                        -69.2298802140585252
  @DF-UKS Final Energy:   -69.22992839498477
    Total Energy =                        -69.2299283949847677
  Basis Set: (CC-PVDZ AUX)
    Blend: CC-PVDZ-JKFIT + DEF2-UNIVERSAL-JKFIT
  Basis Set: CC-PVDZ
    Blend: CC-PVDZ
  Basis Set: (CC-PVDZ AUX)
    Blend: CC-PVDZ-JKFIT + DEF2-UNIVERSAL-JKFIT
  @DF-UKS Final Energy:   -69.22993774475579
    Total Energy =                        -69.2299377447557873
  Basis Set: CC-PVDZ
    Blend: CC-PVDZ
  Basis Set: (CC-PVDZ AUX)
    Blend: CC-PVDZ-JKFIT + DEF2-UNIVERSAL-JKFIT
  Charge       = -1
  Multiplicity = 5
  Basis Set: CC-PVDZ
    Blend: CC-PVDZ
  Basis Set: (CC-PVDZ AUX)
    Blend: CC-PVDZ-JKFIT + DEF2-UNIVERSAL-JKFIT

    Orbital Energies [Eh]
    ---------------------

    Alpha Occupied:

       1A1   -14.137748     2A1    -3.849957     3A1    -0.545981
       4A1    -0.152925     1B1    -0.097317     1B2    -0.053424
       5A1     0.005444     2B2     0.133986

    Alpha Virtual:

       2B1     0.175765     6A1     0.251888     7A1     0.375607
       3B2     0.380820     3B1     0.388700     8A1     0.534199
       1A2     0.682042     9A1     0.687041     4B1     0.745914
       4B2     0.757556    10A1     0.826745     5B1     0.976895
       5B2     1.011667    11A1     1.095439    12A1     1.421361
       2A2     1.985216    13A1     1.985519     6B1     2.099311
       6B2     2.139518    14A1     2.454653

    Beta Occupied:

       1A1   -14.099792     2A1    -3.835734     3A1    -0.415951
       1B2     0.009338

    Beta Virtual:

       4A1     0.056683     1B1     0.098453     5A1     0.153566
       2B2     0.238606     2B1     0.245959     6A1     0.278421
       3B1     0.421799     3B2     0.432172     7A1     0.435811
       8A1     0.617273     1A2     0.744109     9A1     0.751138
       4B1     0.829479     4B2     0.831006    10A1     0.893819
       5B2     1.051038     5B1     1.066133    11A1     1.193019
      12A1     1.490302     2A2     2.068098    13A1     2.076118
       6B2     2.220668     6B1     2.229475    14A1     2.553825

    Final Occupation by Irrep:
             A1    A2    B1    B2
    DOCC [     3,    0,    0,    1 ]
    SOCC [     2,    0,    1,    1 ]
    NA   [     5,    0,    1,    2 ]
    NB   [     3,    0,    0,    1 ]

  @DF-UKS Final Energy:   -69.22993830355013

   => Energetics <=

    Nuclear Repulsion Energy =              8.8733071583432892
    One-Electron Energy =                -113.4304666158203787
    Two-Electron Energy =                  43.2894581310531592
    DFT Exchange-Correlation Energy =      -7.9622369771262065
    Empirical Dispersion Energy =           0.0000000000000000
    VV10 Nonlocal Energy =                  0.0000000000000000
    Total Energy =                        -69.2299383035501279

  UHF NO Occupations:
  HONO-2 :    2 B2 1.0000000
  HONO-1 :    4 A1 1.0000000
  HONO-0 :    5 A1 1.0000000
  LUNO+0 :    3 B2 0.0012351
  LUNO+1 :    6 A1 0.0010542
  LUNO+2 :    7 A1 0.0000002
  LUNO+3 :    8 A1 0.0000002

Computation Completed

Properties will be evaluated at   0.000000,   0.000000,   0.000000 [a0]

Properties computed using the SCF density matrix

 Multipole Moments:

 ------------------------------------------------------------------------------------
     Multipole            Electronic (a.u.)      Nuclear  (a.u.)        Total (a.u.)
 ------------------------------------------------------------------------------------

 L = 1.  Multiply by 2.5417464519 to convert [e a0] to [Debye]
 Dipole X            :          0.0000000            0.0000000            0.0000000
 Dipole Y            :          0.0000000            0.0000000            0.0000000
 Dipole Z            :         -0.6014216           -0.9697492           -1.5711708
 Magnitude           :                                                    1.5711708

 ------------------------------------------------------------------------------------

*** tstop() called on Joses-MacBook-Pro-2.local at Thu Jul 17 09:40:29 2025
Module time:
	user time   =       3.09 seconds =       0.05 minutes
	system time =       3.76 seconds =       0.06 minutes
	total time  =          0 seconds =       0.00 minutes
Total time:
	user time   =      41.40 seconds =       0.69 minutes
	system time =      47.87 seconds =       0.80 minutes
	total time  =          8 seconds =       0.13 minutes

*** tstart() called on Joses-MacBook-Pro-2.local
*** at Thu Jul 17 09:40:29 2025

         ------------------------------------------------------------
                                   SCF GRAD
                          Rob Parrish, Justin Turney,
                       Andy Simmonett, and Alex Sokolov
         ------------------------------------------------------------

  ==> Geometry <==

    Molecular point group: c2v
    Full point group: C_inf_v

    Geometry (in Angstrom), charge = -1, multiplicity = 5:

       Center              X                  Y                   Z               Mass
    ------------   -----------------  -----------------  -----------------  -----------------
         BE           0.000000000000     0.000000000000     1.015970745281     9.012183065000
         N            0.000000000000     0.000000000000    -0.653864597321    14.003074004430

  Nuclear repulsion =    8.873307158343289

  ==> Basis Set <==

  Basis Set: CC-PVDZ
    Blend: CC-PVDZ
    Number of shells: 12
    Number of basis functions: 28
    Number of Cartesian functions: 30
    Spherical Harmonics?: true
    Max angular momentum: 2

  ==> DFJKGrad: Density-Fitted SCF Gradients <==

    Gradient:                    1
    J tasked:                  Yes
    K tasked:                  Yes
    wK tasked:                  No
    OpenMP threads:              1
    Integrals threads:           1
    Memory [MiB]:              375
    Schwarz Cutoff:          1E-12
    Fitting Condition:       1E-10

   => Auxiliary Basis Set <=

  Basis Set: (CC-PVDZ AUX)
    Blend: CC-PVDZ-JKFIT + DEF2-UNIVERSAL-JKFIT
    Number of shells: 41
    Number of basis functions: 121
    Number of Cartesian functions: 141
    Spherical Harmonics?: true
    Max angular momentum: 3

  ==> DFT Potential <==

   => LibXC <=

    Version 6.2.2
    S. Lehtola, C. Steigemann, M. J.T. Oliveira, and M. A.L. Marques.,  SoftwareX 7, 1â€“5 (2018) (10.1016/j.softx.2017.11.002)

   => Composite Functional: B3LYP <=

    B3LYP Hyb-GGA Exchange-Correlation Functional

    P. J. Stephens, F. J. Devlin, C. F. Chabalowski, and M. J. Frisch.,  J. Phys. Chem. 98, 11623 (1994) (10.1021/j100096a001)

    Deriv               =              1
    GGA                 =           TRUE
    Meta                =          FALSE

    Exchange Hybrid     =           TRUE
    MP2 Hybrid          =          FALSE

   => Exchange Functionals <=

    0.0800   Slater exchange
    0.7200         Becke 88

   => Exact (HF) Exchange <=

    0.2000               HF

   => Correlation Functionals <=

    0.1900   Vosko, Wilk & Nusair (VWN5_RPA)
    0.8100   Lee, Yang & Parr

   => LibXC Density Thresholds  <==

    XC_HYB_GGA_XC_B3LYP:  1.00E-15

   => Molecular Quadrature <=

    Radial Scheme          =       TREUTLER
    Pruning Scheme         =           NONE
    Nuclear Scheme         =       TREUTLER

    Blocking Scheme        =         OCTREE
    BS radius alpha        =              1
    Pruning alpha          =              1
    Radial Points          =             75
    Spherical Points       =            302
    Total Points           =          43581
    Total Blocks           =            406
    Max Points             =            255
    Max Functions          =             28
    Weights Tolerance      =       1.00E-15

  -Total Gradient:
     Atom            X                  Y                   Z
    ------   -----------------  -----------------  -----------------
       1        0.000000000000    -0.000000000000    -0.000036217388
       2        0.000000000000    -0.000000000000     0.000060077362

*** tstop() called on Joses-MacBook-Pro-2.local at Thu Jul 17 09:40:29 2025
Module time:
	user time   =       0.36 seconds =       0.01 minutes
	system time =       1.27 seconds =       0.02 minutes
	total time  =          0 seconds =       0.00 minutes
Total time:
	user time   =      41.76 seconds =       0.70 minutes
	system time =      49.14 seconds =       0.82 minutes
	total time  =          8 seconds =       0.13 minutes

    			-----------------------------------------

    			 OPTKING 3.0: for geometry optimizations

    			     By R.A. King, Bethel University

    			        with contributions from

    			    A.V. Copan, J. Cayton, A. Heide

    			-----------------------------------------

	                            ===> Fragment 1 <==

	 Z (Atomic Numbers)          Masses                          Geom
	       4.000000             9.012183          0.00000000  0.00000000  1.91990646
	       7.000000            14.003074          0.00000000  0.00000000 -1.23562501

	 - Coordinate -           - BOHR/RAD -       - ANG/DEG -
	 R(1,2)           =         3.155531           1.669835

	        --- Internal Coordinate Step in ANG or DEG, aJ/ANG or AJ/DEG ---
	-------------------------------------------------------------------------------
	           Coordinate      Previous         Force          Change          New
	           ----------      --------        ------          ------        ------
	               R(1,2)       1.66984        0.00040        0.00021       1.67005
	-------------------------------------------------------------------------------

	                                 ==> Convergence Check <==

	Measures of convergence in internal coordinates in au.

	Criteria marked as inactive (o), active & met (*), and active & unmet ( ).

	----------------------------------------------------------------------------------------------
	   Step    Total Energy     Delta E     Max Force     RMS Force      Max Disp      RMS Disp
	----------------------------------------------------------------------------------------------
	  Convergence Criteria     1.00e-06 *    3.00e-04 *             o    1.20e-03 *             o
	----------------------------------------------------------------------------------------------
	    10     -69.22993830   -5.59e-07 *    4.81e-05 *    4.81e-05 o    4.03e-04 *    4.03e-04 o  ~
	----------------------------------------------------------------------------------------------

Next Geometry in Ang
	Fragment 1 (Ang)

	   Be   0.0000000000   0.0000000000   1.0160773147
	    N   0.0000000000   0.0000000000  -0.6539711667

    Final optimized geometry and variables:
    Molecular point group: c2v
    Full point group: C_inf_v

    Geometry (in Angstrom), charge = -1, multiplicity = 5:

    BE           0.000000000000     0.000000000000     1.015970745281
    N            0.000000000000     0.000000000000    -0.653864597321

    Psi4 stopped on: Thursday, 17 July 2025 09:40AM
    Psi4 wall time for execution: 0:00:09.13

*** Psi4 exiting successfully. Buy a developer a beer!
