                               Psi4 1.9.1 release

  ==> Input File <==

--------------------------------------------------------------------------
molecule {
-1 5
Be   0.00000        0.60000        0.00000
Al   0.00000       -0.60000        0.00000
}

set {
basis              cc-pvdz
reference          uks
maxiter            500
geom_maxiter       500
DAMPING_PERCENTAGE 1
guess              SAP
}

optimize('b3lyp')
--------------------------------------------------------------------------

    Molecular point group: c2v
  Charge       = -1
  Multiplicity = 5
  Basis Set: CC-PVDZ
    Blend: CC-PVDZ
  Basis Set: (CC-PVDZ AUX)
    Blend: CC-PVDZ-JKFIT + DEF2-UNIVERSAL-JKFIT
  @DF-UKS Final Energy:  -256.55877946439654
    Total Energy =                       -256.5587794643965367
 Dipole X            :          0.0000000            0.0000000            0.0000000
 Dipole Y            :          0.0000000            0.0000000            0.0000000
 Dipole Z            :          0.0772017           -0.5816474           -0.5044457
 Magnitude           :                                                    0.5044457
    Molecular point group: c2v
  Basis Set: CC-PVDZ
    Blend: CC-PVDZ
  Basis Set: (CC-PVDZ AUX)
    Blend: CC-PVDZ-JKFIT + DEF2-UNIVERSAL-JKFIT
  Basis Set: CC-PVDZ
    Blend: CC-PVDZ
  Basis Set: (CC-PVDZ AUX)
    Blend: CC-PVDZ-JKFIT + DEF2-UNIVERSAL-JKFIT
  @DF-UKS Final Energy:  -256.71455265153958
    Total Energy =                       -256.7145526515395773
  Basis Set: CC-PVDZ
    Blend: CC-PVDZ
  Basis Set: (CC-PVDZ AUX)
    Blend: CC-PVDZ-JKFIT + DEF2-UNIVERSAL-JKFIT
  Basis Set: CC-PVDZ
    Blend: CC-PVDZ
  @DF-UKS Final Energy:  -256.87276428809071
    Total Energy =                       -256.8727642880907069
  @DF-UKS Final Energy:  -256.99579176255071
    Total Energy =                       -256.9957917625507093
  @DF-UKS Final Energy:  -257.04816845268920
    Total Energy =                       -257.0481684526891968
  @DF-UKS Final Energy:  -257.06835647709704
    Total Energy =                       -257.0683564770970406
  @DF-UKS Final Energy:  -257.07456872100539
    Total Energy =                       -257.0745687210053916
  @DF-UKS Final Energy:  -257.07564348508168
    Total Energy =                       -257.0756434850816845
  @DF-UKS Final Energy:  -257.07588163240536
    Total Energy =                       -257.0758816324053555
  @DF-UKS Final Energy:  -257.07590227035132
    Total Energy =                       -257.0759022703513210
  Basis Set: (CC-PVDZ AUX)
    Blend: CC-PVDZ-JKFIT + DEF2-UNIVERSAL-JKFIT
  Basis Set: CC-PVDZ
    Blend: CC-PVDZ
  Basis Set: (CC-PVDZ AUX)
    Blend: CC-PVDZ-JKFIT + DEF2-UNIVERSAL-JKFIT
  @DF-UKS Final Energy:  -257.07590415442723
    Total Energy =                       -257.0759041544272350
  Basis Set: CC-PVDZ
    Blend: CC-PVDZ
  Basis Set: (CC-PVDZ AUX)
    Blend: CC-PVDZ-JKFIT + DEF2-UNIVERSAL-JKFIT
  Charge       = -1
  Multiplicity = 5
  Basis Set: CC-PVDZ
    Blend: CC-PVDZ
  Basis Set: (CC-PVDZ AUX)
    Blend: CC-PVDZ-JKFIT + DEF2-UNIVERSAL-JKFIT

    Orbital Energies [Eh]
    ---------------------

    Alpha Occupied:

       1A1   -55.843646     2A1    -3.927594     3A1    -3.863719
       1B1    -2.480788     1B2    -2.480788     4A1    -2.480005
       5A1    -0.176957     6A1    -0.049924     2B2     0.029110
       2B1     0.029110     7A1     0.029689

    Alpha Virtual:

       3B1     0.149752     3B2     0.149752     8A1     0.222700
       9A1     0.300397    10A1     0.337926     4B1     0.347996
       4B2     0.347996     5B2     0.410941     5B1     0.410941
      11A1     0.414040    12A1     0.439041     1A2     0.439041
       6B2     0.481315     6B1     0.481315    13A1     0.524998
       2A2     0.679558    14A1     0.679558    15A1     0.738211
       7B1     0.826069     7B2     0.826069    16A1     0.993586

    Beta Occupied:

       1A1   -55.839567     2A1    -3.922324     3A1    -3.850187
       1B1    -2.474697     1B2    -2.474697     4A1    -2.472338
       5A1    -0.109451

    Beta Virtual:

       6A1     0.065411     2B2     0.114098     2B1     0.114098
       7A1     0.148391     3B1     0.201206     3B2     0.201206
       8A1     0.255157     9A1     0.337941     4B1     0.379937
       4B2     0.379937    10A1     0.390412     5B1     0.442195
       5B2     0.442195    11A1     0.466619     1A2     0.486779
      12A1     0.486779     6B2     0.538875     6B1     0.538875
      13A1     0.555439    14A1     0.736322     2A2     0.736323
      15A1     0.792122     7B1     0.894429     7B2     0.894429
      16A1     1.048483

    Final Occupation by Irrep:
             A1    A2    B1    B2
    DOCC [     5,    0,    1,    1 ]
    SOCC [     2,    0,    1,    1 ]
    NA   [     7,    0,    2,    2 ]
    NB   [     5,    0,    1,    1 ]

  @DF-UKS Final Energy:  -257.07590434804797

   => Energetics <=

    Nuclear Repulsion Energy =             12.4674110374717539
    One-Electron Energy =                -384.2844318621799857
    Two-Electron Energy =                 132.1608198063774182
    DFT Exchange-Correlation Energy =     -17.4197033297172013
    Empirical Dispersion Energy =           0.0000000000000000
    VV10 Nonlocal Energy =                  0.0000000000000000
    Total Energy =                       -257.0759043480479704

  UHF NO Occupations:
  HONO-2 :    2 B2 1.0000000
  HONO-1 :    7 A1 1.0000000
  HONO-0 :    2 B1 1.0000000
  LUNO+0 :    8 A1 0.0003808
  LUNO+1 :    9 A1 0.0000001
  LUNO+2 :    3 B2 0.0000001
  LUNO+3 :    3 B1 0.0000001

Computation Completed

Properties will be evaluated at   0.000000,   0.000000,   0.000000 [a0]

Properties computed using the SCF density matrix

 Multipole Moments:

 ------------------------------------------------------------------------------------
     Multipole            Electronic (a.u.)      Nuclear  (a.u.)        Total (a.u.)
 ------------------------------------------------------------------------------------

 L = 1.  Multiply by 2.5417464519 to convert [e a0] to [Debye]
 Dipole X            :          0.0000000            0.0000000            0.0000000
 Dipole Y            :          0.0000000            0.0000000            0.0000000
 Dipole Z            :          0.0212055           -1.0698102           -1.0486047
 Magnitude           :                                                    1.0486047

 ------------------------------------------------------------------------------------

*** tstop() called on Joses-MacBook-Pro-2.local at Thu Jul 17 09:44:22 2025
Module time:
	user time   =       3.14 seconds =       0.05 minutes
	system time =       2.63 seconds =       0.04 minutes
	total time  =          1 seconds =       0.02 minutes
Total time:
	user time   =      57.13 seconds =       0.95 minutes
	system time =      64.71 seconds =       1.08 minutes
	total time  =         12 seconds =       0.20 minutes

*** tstart() called on Joses-MacBook-Pro-2.local
*** at Thu Jul 17 09:44:22 2025

         ------------------------------------------------------------
                                   SCF GRAD
                          Rob Parrish, Justin Turney,
                       Andy Simmonett, and Alex Sokolov
         ------------------------------------------------------------

  ==> Geometry <==

    Molecular point group: c2v
    Full point group: C_inf_v

    Geometry (in Angstrom), charge = -1, multiplicity = 5:

       Center              X                  Y                   Z               Mass
    ------------   -----------------  -----------------  -----------------  -----------------
         BE           0.000000000000     0.000000000000     1.654505272597     9.012183065000
         AL           0.000000000000     0.000000000000    -0.552626173710    26.981538530000

  Nuclear repulsion =   12.467411037471754

  ==> Basis Set <==

  Basis Set: CC-PVDZ
    Blend: CC-PVDZ
    Number of shells: 14
    Number of basis functions: 32
    Number of Cartesian functions: 34
    Spherical Harmonics?: true
    Max angular momentum: 2

  ==> DFJKGrad: Density-Fitted SCF Gradients <==

    Gradient:                    1
    J tasked:                  Yes
    K tasked:                  Yes
    wK tasked:                  No
    OpenMP threads:              1
    Integrals threads:           1
    Memory [MiB]:              375
    Schwarz Cutoff:          1E-12
    Fitting Condition:       1E-10

   => Auxiliary Basis Set <=

  Basis Set: (CC-PVDZ AUX)
    Blend: CC-PVDZ-JKFIT + DEF2-UNIVERSAL-JKFIT
    Number of shells: 53
    Number of basis functions: 163
    Number of Cartesian functions: 190
    Spherical Harmonics?: true
    Max angular momentum: 3

  ==> DFT Potential <==

   => LibXC <=

    Version 6.2.2
    S. Lehtola, C. Steigemann, M. J.T. Oliveira, and M. A.L. Marques.,  SoftwareX 7, 1â€“5 (2018) (10.1016/j.softx.2017.11.002)

   => Composite Functional: B3LYP <=

    B3LYP Hyb-GGA Exchange-Correlation Functional

    P. J. Stephens, F. J. Devlin, C. F. Chabalowski, and M. J. Frisch.,  J. Phys. Chem. 98, 11623 (1994) (10.1021/j100096a001)

    Deriv               =              1
    GGA                 =           TRUE
    Meta                =          FALSE

    Exchange Hybrid     =           TRUE
    MP2 Hybrid          =          FALSE

   => Exchange Functionals <=

    0.0800   Slater exchange
    0.7200         Becke 88

   => Exact (HF) Exchange <=

    0.2000               HF

   => Correlation Functionals <=

    0.1900   Vosko, Wilk & Nusair (VWN5_RPA)
    0.8100   Lee, Yang & Parr

   => LibXC Density Thresholds  <==

    XC_HYB_GGA_XC_B3LYP:  1.00E-15

   => Molecular Quadrature <=

    Radial Scheme          =       TREUTLER
    Pruning Scheme         =           NONE
    Nuclear Scheme         =       TREUTLER

    Blocking Scheme        =         OCTREE
    BS radius alpha        =              1
    Pruning alpha          =              1
    Radial Points          =             75
    Spherical Points       =            302
    Total Points           =          42453
    Total Blocks           =            397
    Max Points             =            256
    Max Functions          =             32
    Weights Tolerance      =       1.00E-15

  -Total Gradient:
     Atom            X                  Y                   Z
    ------   -----------------  -----------------  -----------------
       1        0.000000000000    -0.000000000000    -0.000029994803
       2       -0.000000000000     0.000000000000     0.000023033475

*** tstop() called on Joses-MacBook-Pro-2.local at Thu Jul 17 09:44:22 2025
Module time:
	user time   =       0.95 seconds =       0.02 minutes
	system time =       1.58 seconds =       0.03 minutes
	total time  =          0 seconds =       0.00 minutes
Total time:
	user time   =      58.08 seconds =       0.97 minutes
	system time =      66.29 seconds =       1.10 minutes
	total time  =         12 seconds =       0.20 minutes

    			-----------------------------------------

    			 OPTKING 3.0: for geometry optimizations

    			     By R.A. King, Bethel University

    			        with contributions from

    			    A.V. Copan, J. Cayton, A. Heide

    			-----------------------------------------

	                            ===> Fragment 1 <==

	 Z (Atomic Numbers)          Masses                          Geom
	       4.000000             9.012183          0.00000000  0.00000000  3.12656184
	      13.000000            26.981539          0.00000000  0.00000000 -1.04431212

	 - Coordinate -           - BOHR/RAD -       - ANG/DEG -
	 R(1,2)           =         4.170874           2.207131

	        --- Internal Coordinate Step in ANG or DEG, aJ/ANG or AJ/DEG ---
	-------------------------------------------------------------------------------
	           Coordinate      Previous         Force          Change          New
	           ----------      --------        ------          ------        ------
	               R(1,2)       2.20713        0.00022        0.00016       2.20729
	-------------------------------------------------------------------------------

	                                 ==> Convergence Check <==

	Measures of convergence in internal coordinates in au.

	Criteria marked as inactive (o), active & met (*), and active & unmet ( ).

	----------------------------------------------------------------------------------------------
	   Step    Total Energy     Delta E     Max Force     RMS Force      Max Disp      RMS Disp
	----------------------------------------------------------------------------------------------
	  Convergence Criteria     1.00e-06 *    3.00e-04 *             o    1.20e-03 *             o
	----------------------------------------------------------------------------------------------
	    12    -257.07590435   -1.94e-07 *    2.65e-05 *    2.65e-05 o    3.09e-04 *    3.09e-04 o  ~
	----------------------------------------------------------------------------------------------

Next Geometry in Ang
	Fragment 1 (Ang)

	   Be   0.0000000000   0.0000000000   1.6545869718
	   Al   0.0000000000   0.0000000000  -0.5527078730

    Final optimized geometry and variables:
    Molecular point group: c2v
    Full point group: C_inf_v

    Geometry (in Angstrom), charge = -1, multiplicity = 5:

    BE           0.000000000000     0.000000000000     1.654505272597
    AL           0.000000000000     0.000000000000    -0.552626173710

    Psi4 stopped on: Thursday, 17 July 2025 09:44AM
    Psi4 wall time for execution: 0:00:12.73

*** Psi4 exiting successfully. Buy a developer a beer!
