                               Psi4 1.9.1 release

  ==> Input File <==

--------------------------------------------------------------------------
molecule {
-1 5
Li   0.00000        0.60000        0.00000
Si   0.00000       -0.60000        0.00000
}

set {
basis              cc-pvdz
reference          uks
maxiter            500
geom_maxiter       500
DAMPING_PERCENTAGE 1
guess              SAP
}

optimize('b3lyp')
--------------------------------------------------------------------------

    Molecular point group: c2v
  Charge       = -1
  Multiplicity = 5
  Basis Set: CC-PVDZ
    Blend: CC-PVDZ
  Basis Set: (CC-PVDZ AUX)
    Blend: CC-PVDZ-JKFIT + DEF2-UNIVERSAL-JKFIT
  @DF-UKS Final Energy:  -296.49303107333753
    Total Energy =                       -296.4930310733375336
 Dipole X            :          0.0000000            0.0000000            0.0000000
 Dipole Y            :          0.0000000            0.0000000            0.0000000
 Dipole Z            :         -0.9765423           -0.9262567           -1.9027990
 Magnitude           :                                                    1.9027990
    Molecular point group: c2v
  Basis Set: CC-PVDZ
    Blend: CC-PVDZ
  Basis Set: (CC-PVDZ AUX)
    Blend: CC-PVDZ-JKFIT + DEF2-UNIVERSAL-JKFIT
  Basis Set: CC-PVDZ
    Blend: CC-PVDZ
  Basis Set: (CC-PVDZ AUX)
    Blend: CC-PVDZ-JKFIT + DEF2-UNIVERSAL-JKFIT
  @DF-UKS Final Energy:  -296.59780001338095
    Total Energy =                       -296.5978000133810042
  Basis Set: CC-PVDZ
    Blend: CC-PVDZ
  Basis Set: (CC-PVDZ AUX)
    Blend: CC-PVDZ-JKFIT + DEF2-UNIVERSAL-JKFIT
  Basis Set: CC-PVDZ
    Blend: CC-PVDZ
  @DF-UKS Final Energy:  -296.71934760364485
    Total Energy =                       -296.7193476036448487
  @DF-UKS Final Energy:  -296.84917618251143
    Total Energy =                       -296.8491761825114850
  @DF-UKS Final Energy:  -296.91040118102063
    Total Energy =                       -296.9104011810206316
  @DF-UKS Final Energy:  -296.93889298133212
    Total Energy =                       -296.9388929813321738
  @DF-UKS Final Energy:  -296.95179144757259
    Total Energy =                       -296.9517914475725888
  @DF-UKS Final Energy:  -296.95702790029975
    Total Energy =                       -296.9570279002998063
  @DF-UKS Final Energy:  -296.95871288574659
    Total Energy =                       -296.9587128857465927
  @DF-UKS Final Energy:  -296.95905906438929
    Total Energy =                       -296.9590590643892938
  @DF-UKS Final Energy:  -296.95908849316345
    Total Energy =                       -296.9590884931634491
  Basis Set: (CC-PVDZ AUX)
    Blend: CC-PVDZ-JKFIT + DEF2-UNIVERSAL-JKFIT
  Basis Set: CC-PVDZ
    Blend: CC-PVDZ
  Basis Set: (CC-PVDZ AUX)
    Blend: CC-PVDZ-JKFIT + DEF2-UNIVERSAL-JKFIT
  @DF-UKS Final Energy:  -296.95909108853670
    Total Energy =                       -296.9590910885366952
  Basis Set: CC-PVDZ
    Blend: CC-PVDZ
  Basis Set: (CC-PVDZ AUX)
    Blend: CC-PVDZ-JKFIT + DEF2-UNIVERSAL-JKFIT
  Charge       = -1
  Multiplicity = 5
  Basis Set: CC-PVDZ
    Blend: CC-PVDZ
  Basis Set: (CC-PVDZ AUX)
    Blend: CC-PVDZ-JKFIT + DEF2-UNIVERSAL-JKFIT

    Orbital Energies [Eh]
    ---------------------

    Alpha Occupied:

       1A1   -65.947607     2A1    -5.092130     3A1    -3.451676
       1B1    -3.451531     1B2    -3.451531     4A1    -1.847918
       5A1    -0.272279     6A1    -0.036016     2B2    -0.011649
       2B1    -0.011649     7A1     0.036703

    Alpha Virtual:

       3B2     0.116126     3B1     0.116126     8A1     0.135407
       4B1     0.210106     4B2     0.210106     9A1     0.210324
      10A1     0.291426     5B1     0.370043     5B2     0.370043
       1A2     0.371449    11A1     0.371450    12A1     0.384993
       6B2     0.496574     6B1     0.496574    13A1     0.516820
       2A2     0.546961    14A1     0.546964    15A1     0.605652
       7B2     0.657374     7B1     0.657374    16A1     0.885994

    Beta Occupied:

       1A1   -65.940596     2A1    -5.084210     1B1    -3.440270
       1B2    -3.440270     3A1    -3.439997     4A1    -1.842160
       5A1    -0.187459

    Beta Virtual:

       6A1     0.071278     2B1     0.088161     2B2     0.088161
       7A1     0.122874     3B1     0.149121     3B2     0.149121
       8A1     0.150629     4B1     0.232606     4B2     0.232606
       9A1     0.243218    10A1     0.333890    11A1     0.405739
       1A2     0.405745     5B2     0.428177     5B1     0.428177
      12A1     0.432142     6B2     0.536701     6B1     0.536701
      13A1     0.560643     2A2     0.615184    14A1     0.615185
      15A1     0.648692     7B2     0.716987     7B1     0.716987
      16A1     0.928429

    Final Occupation by Irrep:
             A1    A2    B1    B2
    DOCC [     5,    0,    1,    1 ]
    SOCC [     2,    0,    1,    1 ]
    NA   [     7,    0,    2,    2 ]
    NB   [     5,    0,    1,    1 ]

  @DF-UKS Final Energy:  -296.95909131347605

   => Energetics <=

    Nuclear Repulsion Energy =              8.5583496105811960
    One-Electron Energy =                -430.9773202310389024
    Two-Electron Energy =                 143.8872717782211907
    DFT Exchange-Correlation Energy =     -18.4273924712395640
    Empirical Dispersion Energy =           0.0000000000000000
    VV10 Nonlocal Energy =                  0.0000000000000000
    Total Energy =                       -296.9590913134760513

  UHF NO Occupations:
  HONO-2 :    7 A1 1.0000000
  HONO-1 :    2 B1 1.0000000
  HONO-0 :    2 B2 1.0000000
  LUNO+0 :    8 A1 0.0001671
  LUNO+1 :    9 A1 0.0000005
  LUNO+2 :    3 B1 0.0000000
  LUNO+3 :    3 B2 0.0000000

Computation Completed

Properties will be evaluated at   0.000000,   0.000000,   0.000000 [a0]

Properties computed using the SCF density matrix

 Multipole Moments:

 ------------------------------------------------------------------------------------
     Multipole            Electronic (a.u.)      Nuclear  (a.u.)        Total (a.u.)
 ------------------------------------------------------------------------------------

 L = 1.  Multiply by 2.5417464519 to convert [e a0] to [Debye]
 Dipole X            :          0.0000000            0.0000000            0.0000000
 Dipole Y            :          0.0000000            0.0000000            0.0000000
 Dipole Z            :         -0.8396896           -2.0045205           -2.8442101
 Magnitude           :                                                    2.8442101

 ------------------------------------------------------------------------------------

*** tstop() called on Joses-MacBook-Pro-2.local at Thu Jul 17 09:34:38 2025
Module time:
	user time   =       2.81 seconds =       0.05 minutes
	system time =       3.24 seconds =       0.05 minutes
	total time  =          1 seconds =       0.02 minutes
Total time:
	user time   =      61.47 seconds =       1.02 minutes
	system time =      74.22 seconds =       1.24 minutes
	total time  =         13 seconds =       0.22 minutes

*** tstart() called on Joses-MacBook-Pro-2.local
*** at Thu Jul 17 09:34:38 2025

         ------------------------------------------------------------
                                   SCF GRAD
                          Rob Parrish, Justin Turney,
                       Andy Simmonett, and Alex Sokolov
         ------------------------------------------------------------

  ==> Geometry <==

    Molecular point group: c2v
    Full point group: C_inf_v

    Geometry (in Angstrom), charge = -1, multiplicity = 5:

       Center              X                  Y                   Z               Mass
    ------------   -----------------  -----------------  -----------------  -----------------
         LI           0.000000000000     0.000000000000     2.076252146282     7.016003436600
         SI           0.000000000000     0.000000000000    -0.520678787769    27.976926534650

  Nuclear repulsion =    8.558349610581196

  ==> Basis Set <==

  Basis Set: CC-PVDZ
    Blend: CC-PVDZ
    Number of shells: 14
    Number of basis functions: 32
    Number of Cartesian functions: 34
    Spherical Harmonics?: true
    Max angular momentum: 2

  ==> DFJKGrad: Density-Fitted SCF Gradients <==

    Gradient:                    1
    J tasked:                  Yes
    K tasked:                  Yes
    wK tasked:                  No
    OpenMP threads:              1
    Integrals threads:           1
    Memory [MiB]:              375
    Schwarz Cutoff:          1E-12
    Fitting Condition:       1E-10

   => Auxiliary Basis Set <=

  Basis Set: (CC-PVDZ AUX)
    Blend: CC-PVDZ-JKFIT + DEF2-UNIVERSAL-JKFIT
    Number of shells: 53
    Number of basis functions: 163
    Number of Cartesian functions: 190
    Spherical Harmonics?: true
    Max angular momentum: 3

  ==> DFT Potential <==

   => LibXC <=

    Version 6.2.2
    S. Lehtola, C. Steigemann, M. J.T. Oliveira, and M. A.L. Marques.,  SoftwareX 7, 1â€“5 (2018) (10.1016/j.softx.2017.11.002)

   => Composite Functional: B3LYP <=

    B3LYP Hyb-GGA Exchange-Correlation Functional

    P. J. Stephens, F. J. Devlin, C. F. Chabalowski, and M. J. Frisch.,  J. Phys. Chem. 98, 11623 (1994) (10.1021/j100096a001)

    Deriv               =              1
    GGA                 =           TRUE
    Meta                =          FALSE

    Exchange Hybrid     =           TRUE
    MP2 Hybrid          =          FALSE

   => Exchange Functionals <=

    0.0800   Slater exchange
    0.7200         Becke 88

   => Exact (HF) Exchange <=

    0.2000               HF

   => Correlation Functionals <=

    0.1900   Vosko, Wilk & Nusair (VWN5_RPA)
    0.8100   Lee, Yang & Parr

   => LibXC Density Thresholds  <==

    XC_HYB_GGA_XC_B3LYP:  1.00E-15

   => Molecular Quadrature <=

    Radial Scheme          =       TREUTLER
    Pruning Scheme         =           NONE
    Nuclear Scheme         =       TREUTLER

    Blocking Scheme        =         OCTREE
    BS radius alpha        =              1
    Pruning alpha          =              1
    Radial Points          =             75
    Spherical Points       =            302
    Total Points           =          44117
    Total Blocks           =            439
    Max Points             =            256
    Max Functions          =             32
    Weights Tolerance      =       1.00E-15

  -Total Gradient:
     Atom            X                  Y                   Z
    ------   -----------------  -----------------  -----------------
       1        0.000000000000     0.000000000000    -0.000024034530
       2        0.000000000000    -0.000000000000     0.000039793393

*** tstop() called on Joses-MacBook-Pro-2.local at Thu Jul 17 09:34:38 2025
Module time:
	user time   =       0.77 seconds =       0.01 minutes
	system time =       1.59 seconds =       0.03 minutes
	total time  =          0 seconds =       0.00 minutes
Total time:
	user time   =      62.25 seconds =       1.04 minutes
	system time =      75.82 seconds =       1.26 minutes
	total time  =         13 seconds =       0.22 minutes

    			-----------------------------------------

    			 OPTKING 3.0: for geometry optimizations

    			     By R.A. King, Bethel University

    			        with contributions from

    			    A.V. Copan, J. Cayton, A. Heide

    			-----------------------------------------

	                            ===> Fragment 1 <==

	 Z (Atomic Numbers)          Masses                          Geom
	       3.000000             7.016003          0.00000000  0.00000000  3.92354792
	      14.000000            27.976927          0.00000000  0.00000000 -0.98394031

	 - Coordinate -           - BOHR/RAD -       - ANG/DEG -
	 R(1,2)           =         4.907488           2.596931

	        --- Internal Coordinate Step in ANG or DEG, aJ/ANG or AJ/DEG ---
	-------------------------------------------------------------------------------
	           Coordinate      Previous         Force          Change          New
	           ----------      --------        ------          ------        ------
	               R(1,2)       2.59693        0.00026        0.00071       2.59765
	-------------------------------------------------------------------------------

	                                 ==> Convergence Check <==

	Measures of convergence in internal coordinates in au.

	Criteria marked as inactive (o), active & met (*), and active & unmet ( ).

	----------------------------------------------------------------------------------------------
	   Step    Total Energy     Delta E     Max Force     RMS Force      Max Disp      RMS Disp
	----------------------------------------------------------------------------------------------
	  Convergence Criteria     1.00e-06 *    3.00e-04 *             o    1.20e-03 *             o
	----------------------------------------------------------------------------------------------
	    13    -296.95909131   -2.25e-07 *    3.19e-05 *    3.19e-05 o    1.35e-03      1.35e-03 o  ~
	----------------------------------------------------------------------------------------------

Next Geometry in Ang
	Fragment 1 (Ang)

	   Li   0.0000000000   0.0000000000   2.0766091929
	   Si   0.0000000000   0.0000000000  -0.5210358344

    Final optimized geometry and variables:
    Molecular point group: c2v
    Full point group: C_inf_v

    Geometry (in Angstrom), charge = -1, multiplicity = 5:

    LI           0.000000000000     0.000000000000     2.076252146282
    SI           0.000000000000     0.000000000000    -0.520678787769

    Psi4 stopped on: Thursday, 17 July 2025 09:34AM
    Psi4 wall time for execution: 0:00:13.93

*** Psi4 exiting successfully. Buy a developer a beer!
