                               Psi4 1.9.1 release

  ==> Input File <==

--------------------------------------------------------------------------
molecule {
-1 5
Mg   0.00000        0.60000        0.00000
Al   0.00000       -0.60000        0.00000
}

set {
basis              cc-pvdz
reference          uks
maxiter            500
geom_maxiter       500
DAMPING_PERCENTAGE 1
guess              SAP
}

optimize('b3lyp')
--------------------------------------------------------------------------

    Molecular point group: c2v
  Charge       = -1
  Multiplicity = 5
  Basis Set: CC-PVDZ
    Blend: CC-PVDZ
  Basis Set: (CC-PVDZ AUX)
    Blend: CC-PVDZ-JKFIT + DEF2-UNIVERSAL-JKFIT
  @DF-UKS Final Energy:  -441.56561495891179
    Total Energy =                       -441.5656149589117945
 Dipole X            :          0.0000000            0.0000000            0.0000000
 Dipole Y            :          0.0000000            0.0000000            0.0000000
 Dipole Z            :         -1.2917019            0.5327147           -0.7589872
 Magnitude           :                                                    0.7589872
    Molecular point group: c2v
  Basis Set: CC-PVDZ
    Blend: CC-PVDZ
  Basis Set: (CC-PVDZ AUX)
    Blend: CC-PVDZ-JKFIT + DEF2-UNIVERSAL-JKFIT
  Basis Set: CC-PVDZ
    Blend: CC-PVDZ
  Basis Set: (CC-PVDZ AUX)
    Blend: CC-PVDZ-JKFIT + DEF2-UNIVERSAL-JKFIT
  @DF-UKS Final Energy:  -441.57478415606909
    Total Energy =                       -441.5747841560690858
  Basis Set: CC-PVDZ
    Blend: CC-PVDZ
  Basis Set: (CC-PVDZ AUX)
    Blend: CC-PVDZ-JKFIT + DEF2-UNIVERSAL-JKFIT
  Basis Set: CC-PVDZ
    Blend: CC-PVDZ
  @DF-UKS Final Energy:  -441.59255931368273
    Total Energy =                       -441.5925593136827274
  @DF-UKS Final Energy:  -441.65783084775120
    Total Energy =                       -441.6578308477511996
  @DF-UKS Final Energy:  -441.97199051471324
    Total Energy =                       -441.9719905147132408
  @DF-UKS Final Energy:  -442.19050828376265
    Total Energy =                       -442.1905082837626537
  @DF-UKS Final Energy:  -442.34434537070479
    Total Energy =                       -442.3443453707047865
  @DF-UKS Final Energy:  -442.41703174894189
    Total Energy =                       -442.4170317489418949
  @DF-UKS Final Energy:  -442.44752015346990
    Total Energy =                       -442.4475201534698954
  @DF-UKS Final Energy:  -442.45899140796740
    Total Energy =                       -442.4589914079674031
  @DF-UKS Final Energy:  -442.46230223840070
    Total Energy =                       -442.4623022384006958
  @DF-UKS Final Energy:  -442.46287927509815
    Total Energy =                       -442.4628792750981461
  @DF-UKS Final Energy:  -442.46291763833983
    Total Energy =                       -442.4629176383398317
  Basis Set: (CC-PVDZ AUX)
    Blend: CC-PVDZ-JKFIT + DEF2-UNIVERSAL-JKFIT
  Basis Set: CC-PVDZ
    Blend: CC-PVDZ
  Basis Set: (CC-PVDZ AUX)
    Blend: CC-PVDZ-JKFIT + DEF2-UNIVERSAL-JKFIT
  @DF-UKS Final Energy:  -442.46292034467200
    Total Energy =                       -442.4629203446720567
  Basis Set: CC-PVDZ
    Blend: CC-PVDZ
  Basis Set: (CC-PVDZ AUX)
    Blend: CC-PVDZ-JKFIT + DEF2-UNIVERSAL-JKFIT
  Charge       = -1
  Multiplicity = 5
  Basis Set: CC-PVDZ
    Blend: CC-PVDZ
  Basis Set: (CC-PVDZ AUX)
    Blend: CC-PVDZ-JKFIT + DEF2-UNIVERSAL-JKFIT

    Orbital Energies [Eh]
    ---------------------

    Alpha Occupied:

       1A1   -55.860848     2A1   -46.675122     3A1    -3.943034
       4A1    -2.957650     1B2    -2.496131     1B1    -2.496131
       5A1    -2.495646     2B1    -1.701657     2B2    -1.701657
       6A1    -1.700422     7A1    -0.172176     8A1    -0.059629
       3B2     0.025591     3B1     0.025591     9A1     0.026394

    Alpha Virtual:

       4B2     0.119269     4B1     0.119269    10A1     0.161040
      11A1     0.223632     5B1     0.282219     5B2     0.282219
      12A1     0.284577    13A1     0.360901     6B1     0.383380
       6B2     0.383380     7B2     0.408757     7B1     0.408757
      14A1     0.411369     1A2     0.411369    15A1     0.450285
      16A1     0.491383     2A2     0.491383    17A1     0.574573
       8B1     0.623658     8B2     0.623658    18A1     0.832761

    Beta Occupied:

       1A1   -55.856979     2A1   -46.671658     3A1    -3.938011
       4A1    -2.952073     1B2    -2.490353     1B1    -2.490353
       5A1    -2.488443     2B1    -1.697132     2B2    -1.697132
       6A1    -1.694387     7A1    -0.111795

    Beta Virtual:

       8A1     0.036474     3B2     0.100669     3B1     0.100669
       9A1     0.117741     4B1     0.160891     4B2     0.160891
      10A1     0.187765    11A1     0.253186     5B1     0.310490
       5B2     0.310490    12A1     0.320475    13A1     0.406195
       6B1     0.416723     6B2     0.416723     7B2     0.454300
       7B1     0.454300     1A2     0.456172    14A1     0.456172
      15A1     0.477679     2A2     0.531554    16A1     0.531554
      17A1     0.615389     8B1     0.667325     8B2     0.667325
      18A1     0.865666

    Final Occupation by Irrep:
             A1    A2    B1    B2
    DOCC [     7,    0,    2,    2 ]
    SOCC [     2,    0,    1,    1 ]
    NA   [     9,    0,    3,    3 ]
    NB   [     7,    0,    2,    2 ]

  @DF-UKS Final Energy:  -442.46292053894763

   => Energetics <=

    Nuclear Repulsion Energy =             31.5929697679406907
    One-Electron Energy =                -683.5765476752580980
    Two-Electron Energy =                 237.9218310213778977
    DFT Exchange-Correlation Energy =     -28.4011736530081329
    Empirical Dispersion Energy =           0.0000000000000000
    VV10 Nonlocal Energy =                  0.0000000000000000
    Total Energy =                       -442.4629205389476851

  UHF NO Occupations:
  HONO-2 :    3 B2 1.0000000
  HONO-1 :    8 A1 1.0000000
  HONO-0 :    9 A1 1.0000000
  LUNO+0 :   10 A1 0.0001748
  LUNO+1 :    4 B1 0.0000003
  LUNO+2 :    4 B2 0.0000003
  LUNO+3 :   11 A1 0.0000002

Computation Completed

Properties will be evaluated at   0.000000,   0.000000,   0.000000 [a0]

Properties computed using the SCF density matrix

 Multipole Moments:

 ------------------------------------------------------------------------------------
     Multipole            Electronic (a.u.)      Nuclear  (a.u.)        Total (a.u.)
 ------------------------------------------------------------------------------------

 L = 1.  Multiply by 2.5417464519 to convert [e a0] to [Debye]
 Dipole X            :          0.0000000            0.0000000            0.0000000
 Dipole Y            :          0.0000000            0.0000000            0.0000000
 Dipole Z            :         -1.2164545            1.1599753           -0.0564792
 Magnitude           :                                                    0.0564792

 ------------------------------------------------------------------------------------

*** tstop() called on Joses-MacBook-Pro-2.local at Thu Jul 17 11:24:39 2025
Module time:
	user time   =       5.91 seconds =       0.10 minutes
	system time =       3.26 seconds =       0.05 minutes
	total time  =          1 seconds =       0.02 minutes
Total time:
	user time   =     167.42 seconds =       2.79 minutes
	system time =      83.50 seconds =       1.39 minutes
	total time  =         24 seconds =       0.40 minutes

*** tstart() called on Joses-MacBook-Pro-2.local
*** at Thu Jul 17 11:24:39 2025

         ------------------------------------------------------------
                                   SCF GRAD
                          Rob Parrish, Justin Turney,
                       Andy Simmonett, and Alex Sokolov
         ------------------------------------------------------------

  ==> Geometry <==

    Molecular point group: c2v
    Full point group: C_inf_v

    Geometry (in Angstrom), charge = -1, multiplicity = 5:

       Center              X                  Y                   Z               Mass
    ------------   -----------------  -----------------  -----------------  -----------------
         MG           0.000000000000     0.000000000000     1.383300376986    23.985041697000
         AL           0.000000000000     0.000000000000    -1.229674771311    26.981538530000

  Nuclear repulsion =   31.592969767940691

  ==> Basis Set <==

  Basis Set: CC-PVDZ
    Blend: CC-PVDZ
    Number of shells: 16
    Number of basis functions: 36
    Number of Cartesian functions: 38
    Spherical Harmonics?: true
    Max angular momentum: 2

  ==> DFJKGrad: Density-Fitted SCF Gradients <==

    Gradient:                    1
    J tasked:                  Yes
    K tasked:                  Yes
    wK tasked:                  No
    OpenMP threads:              1
    Integrals threads:           1
    Memory [MiB]:              375
    Schwarz Cutoff:          1E-12
    Fitting Condition:       1E-10

   => Auxiliary Basis Set <=

  Basis Set: (CC-PVDZ AUX)
    Blend: CC-PVDZ-JKFIT + DEF2-UNIVERSAL-JKFIT
    Number of shells: 70
    Number of basis functions: 224
    Number of Cartesian functions: 267
    Spherical Harmonics?: true
    Max angular momentum: 4

  ==> DFT Potential <==

   => LibXC <=

    Version 6.2.2
    S. Lehtola, C. Steigemann, M. J.T. Oliveira, and M. A.L. Marques.,  SoftwareX 7, 1â€“5 (2018) (10.1016/j.softx.2017.11.002)

   => Composite Functional: B3LYP <=

    B3LYP Hyb-GGA Exchange-Correlation Functional

    P. J. Stephens, F. J. Devlin, C. F. Chabalowski, and M. J. Frisch.,  J. Phys. Chem. 98, 11623 (1994) (10.1021/j100096a001)

    Deriv               =              1
    GGA                 =           TRUE
    Meta                =          FALSE

    Exchange Hybrid     =           TRUE
    MP2 Hybrid          =          FALSE

   => Exchange Functionals <=

    0.0800   Slater exchange
    0.7200         Becke 88

   => Exact (HF) Exchange <=

    0.2000               HF

   => Correlation Functionals <=

    0.1900   Vosko, Wilk & Nusair (VWN5_RPA)
    0.8100   Lee, Yang & Parr

   => LibXC Density Thresholds  <==

    XC_HYB_GGA_XC_B3LYP:  1.00E-15

   => Molecular Quadrature <=

    Radial Scheme          =       TREUTLER
    Pruning Scheme         =           NONE
    Nuclear Scheme         =       TREUTLER

    Blocking Scheme        =         OCTREE
    BS radius alpha        =              1
    Pruning alpha          =              1
    Radial Points          =             75
    Spherical Points       =            302
    Total Points           =          42926
    Total Blocks           =            422
    Max Points             =            255
    Max Functions          =             36
    Weights Tolerance      =       1.00E-15

  -Total Gradient:
     Atom            X                  Y                   Z
    ------   -----------------  -----------------  -----------------
       1        0.000000000000     0.000000000000    -0.000036185360
       2        0.000000000000    -0.000000000000     0.000041476560

*** tstop() called on Joses-MacBook-Pro-2.local at Thu Jul 17 11:24:39 2025
Module time:
	user time   =       1.79 seconds =       0.03 minutes
	system time =       2.43 seconds =       0.04 minutes
	total time  =          0 seconds =       0.00 minutes
Total time:
	user time   =     169.21 seconds =       2.82 minutes
	system time =      85.93 seconds =       1.43 minutes
	total time  =         24 seconds =       0.40 minutes

    			-----------------------------------------

    			 OPTKING 3.0: for geometry optimizations

    			     By R.A. King, Bethel University

    			        with contributions from

    			    A.V. Copan, J. Cayton, A. Heide

    			-----------------------------------------

	                            ===> Fragment 1 <==

	 Z (Atomic Numbers)          Masses                          Geom
	      12.000000            23.985042          0.00000000  0.00000000  2.61405886
	      13.000000            26.981539          0.00000000  0.00000000 -2.32374854

	 - Coordinate -           - BOHR/RAD -       - ANG/DEG -
	 R(1,2)           =         4.937807           2.612975

	        --- Internal Coordinate Step in ANG or DEG, aJ/ANG or AJ/DEG ---
	-------------------------------------------------------------------------------
	           Coordinate      Previous         Force          Change          New
	           ----------      --------        ------          ------        ------
	               R(1,2)       2.61298        0.00032        0.00038       2.61335
	-------------------------------------------------------------------------------

	                                 ==> Convergence Check <==

	Measures of convergence in internal coordinates in au.

	Criteria marked as inactive (o), active & met (*), and active & unmet ( ).

	----------------------------------------------------------------------------------------------
	   Step    Total Energy     Delta E     Max Force     RMS Force      Max Disp      RMS Disp
	----------------------------------------------------------------------------------------------
	  Convergence Criteria     1.00e-06 *    3.00e-04 *             o    1.20e-03 *             o
	----------------------------------------------------------------------------------------------
	    15    -442.46292054   -1.94e-07 *    3.88e-05 *    3.88e-05 o    7.12e-04 *    7.12e-04 o  ~
	----------------------------------------------------------------------------------------------

Next Geometry in Ang
	Fragment 1 (Ang)

	   Mg   0.0000000000   0.0000000000   1.3834887714
	   Al   0.0000000000   0.0000000000  -1.2298631658

    Final optimized geometry and variables:
    Molecular point group: c2v
    Full point group: C_inf_v

    Geometry (in Angstrom), charge = -1, multiplicity = 5:

    MG           0.000000000000     0.000000000000     1.383300376986
    AL           0.000000000000     0.000000000000    -1.229674771311

    Psi4 stopped on: Thursday, 17 July 2025 11:24AM
    Psi4 wall time for execution: 0:00:25.63

*** Psi4 exiting successfully. Buy a developer a beer!
