                               Psi4 1.9.1 release

  ==> Input File <==

--------------------------------------------------------------------------
molecule {
-1 5
F   0.00000        0.60000        0.00000
Si   0.00000       -0.60000        0.00000
}

set {
basis              cc-pvdz
reference          uks
maxiter            500
geom_maxiter       500
DAMPING_PERCENTAGE 1
guess              SAP
}

optimize('b3lyp')
--------------------------------------------------------------------------

    Molecular point group: c2v
  Charge       = -1
  Multiplicity = 5
  Basis Set: CC-PVDZ
    Blend: CC-PVDZ
  Basis Set: (CC-PVDZ AUX)
    Blend: CC-PVDZ-JKFIT
  @DF-UKS Final Energy:  -388.77904811038394
    Total Energy =                       -388.7790481103839397
 Dipole X            :          0.0000000            0.0000000            0.0000000
 Dipole Y            :          0.0000000            0.0000000            0.0000000
 Dipole Z            :          1.2737454           -0.6847767            0.5889687
 Magnitude           :                                                    0.5889687
    Molecular point group: c2v
  Basis Set: CC-PVDZ
    Blend: CC-PVDZ
  Basis Set: (CC-PVDZ AUX)
    Blend: CC-PVDZ-JKFIT
  Basis Set: CC-PVDZ
    Blend: CC-PVDZ
  Basis Set: (CC-PVDZ AUX)
    Blend: CC-PVDZ-JKFIT
  @DF-UKS Final Energy:  -388.96002920949587
    Total Energy =                       -388.9600292094958718
  Basis Set: CC-PVDZ
    Blend: CC-PVDZ
  Basis Set: (CC-PVDZ AUX)
    Blend: CC-PVDZ-JKFIT
  Basis Set: CC-PVDZ
    Blend: CC-PVDZ
  @DF-UKS Final Energy:  -389.05036282632187
    Total Energy =                       -389.0503628263218729
  @DF-UKS Final Energy:  -389.08365520647163
    Total Energy =                       -389.0836552064716898
  @DF-UKS Final Energy:  -389.10493226237986
    Total Energy =                       -389.1049322623798616
  @DF-UKS Final Energy:  -389.11775530942771
    Total Energy =                       -389.1177553094278210
  @DF-UKS Final Energy:  -389.12497520367776
    Total Energy =                       -389.1249752036777636
  @DF-UKS Final Energy:  -389.13001460697569
    Total Energy =                       -389.1300146069756920
  @DF-UKS Final Energy:  -389.13475904527075
    Total Energy =                       -389.1347590452706982
  @DF-UKS Final Energy:  -389.14095159364558
    Total Energy =                       -389.1409515936455819
  @DF-UKS Final Energy:  -389.14863786462780
    Total Energy =                       -389.1486378646278013
  @DF-UKS Final Energy:  -389.14874872747657
    Total Energy =                       -389.1487487274765726
  @DF-UKS Final Energy:  -389.15095416243577
    Total Energy =                       -389.1509541624358235
  @DF-UKS Final Energy:  -389.15097482732762
    Total Energy =                       -389.1509748273275591
  @DF-UKS Final Energy:  -389.15160414877874
    Total Energy =                       -389.1516041487787447
  @DF-UKS Final Energy:  -389.15171221501430
    Total Energy =                       -389.1517122150142995
  @DF-UKS Final Energy:  -389.15173508064504
    Total Energy =                       -389.1517350806450963
  Basis Set: (CC-PVDZ AUX)
    Blend: CC-PVDZ-JKFIT
  Basis Set: CC-PVDZ
    Blend: CC-PVDZ
  Basis Set: (CC-PVDZ AUX)
    Blend: CC-PVDZ-JKFIT
  @DF-UKS Final Energy:  -389.15173664928398
    Total Energy =                       -389.1517366492839187
  Basis Set: CC-PVDZ
    Blend: CC-PVDZ
  Basis Set: (CC-PVDZ AUX)
    Blend: CC-PVDZ-JKFIT
  Charge       = -1
  Multiplicity = 5
  Basis Set: CC-PVDZ
    Blend: CC-PVDZ
  Basis Set: (CC-PVDZ AUX)
    Blend: CC-PVDZ-JKFIT

    Orbital Energies [Eh]
    ---------------------

    Alpha Occupied:

       1A1   -65.889565     2A1   -24.548038     3A1    -5.032580
       1B2    -3.392288     1B1    -3.392288     4A1    -3.392049
       5A1    -0.983992     6A1    -0.305260     2B1    -0.229031
       2B2    -0.229031     7A1    -0.206576     3B1     0.046912
       3B2     0.046912     8A1     0.052723

    Alpha Virtual:

       9A1     0.461337     4B1     0.526240     4B2     0.526240
      10A1     0.541200    11A1     0.585922    12A1     0.587686
       1A2     0.587686     5B2     0.588648     5B1     0.588648
       6B1     1.300994     6B2     1.300994    13A1     1.302295
      14A1     1.697855    15A1     3.675701     7B1     3.692672
       7B2     3.692672     2A2     3.751217    16A1     3.751434

    Beta Occupied:

       1A1   -65.881367     2A1   -24.521410     3A1    -5.022943
       1B2    -3.379593     1B1    -3.379593     4A1    -3.379067
       5A1    -0.906701     2B1    -0.202024     2B2    -0.202024
       6A1    -0.112698

    Beta Virtual:

       7A1    -0.048972     3B1     0.165131     3B2     0.165131
       8A1     0.174071     9A1     0.503207     4B1     0.573166
       4B2     0.573166    10A1     0.587795    11A1     0.665583
      12A1     0.667667     1A2     0.667667     5B2     0.668312
       5B1     0.668312     6B1     1.316432     6B2     1.316432
      13A1     1.393121    14A1     1.740143     2A2     3.764708
      15A1     3.764908     7B1     3.774364     7B2     3.774364
      16A1     3.789765

    Final Occupation by Irrep:
             A1    A2    B1    B2
    DOCC [     6,    0,    2,    2 ]
    SOCC [     2,    0,    1,    1 ]
    NA   [     8,    0,    3,    3 ]
    NB   [     6,    0,    2,    2 ]

  @DF-UKS Final Energy:  -389.15173679327512

   => Energetics <=

    Nuclear Repulsion Energy =             20.3026590404719300
    One-Electron Energy =                -586.3490617453251161
    Two-Electron Energy =                 202.2654279357082316
    DFT Exchange-Correlation Energy =     -25.3707620241301726
    Empirical Dispersion Energy =           0.0000000000000000
    VV10 Nonlocal Energy =                  0.0000000000000000
    Total Energy =                       -389.1517367932751768

  UHF NO Occupations:
  HONO-2 :    3 B2 1.0000000
  HONO-1 :    8 A1 1.0000000
  HONO-0 :    3 B1 1.0000000
  LUNO+0 :    9 A1 0.0004545
  LUNO+1 :   10 A1 0.0002192
  LUNO+2 :    4 B2 0.0000481
  LUNO+3 :    4 B1 0.0000481

Computation Completed

Properties will be evaluated at   0.000000,   0.000000,   0.000000 [a0]

Properties computed using the SCF density matrix

 Multipole Moments:

 ------------------------------------------------------------------------------------
     Multipole            Electronic (a.u.)      Nuclear  (a.u.)        Total (a.u.)
 ------------------------------------------------------------------------------------

 L = 1.  Multiply by 2.5417464519 to convert [e a0] to [Debye]
 Dipole X            :          0.0000000            0.0000000            0.0000000
 Dipole Y            :          0.0000000            0.0000000            0.0000000
 Dipole Z            :          3.5319700           -1.8740729            1.6578971
 Magnitude           :                                                    1.6578971

 ------------------------------------------------------------------------------------

*** tstop() called on Joses-MacBook-Pro-2.local at Thu Jul 17 10:54:00 2025
Module time:
	user time   =       2.79 seconds =       0.05 minutes
	system time =       3.51 seconds =       0.06 minutes
	total time  =          0 seconds =       0.00 minutes
Total time:
	user time   =      93.78 seconds =       1.56 minutes
	system time =     107.21 seconds =       1.79 minutes
	total time  =         20 seconds =       0.33 minutes

*** tstart() called on Joses-MacBook-Pro-2.local
*** at Thu Jul 17 10:54:00 2025

         ------------------------------------------------------------
                                   SCF GRAD
                          Rob Parrish, Justin Turney,
                       Andy Simmonett, and Alex Sokolov
         ------------------------------------------------------------

  ==> Geometry <==

    Molecular point group: c2v
    Full point group: C_inf_v

    Geometry (in Angstrom), charge = -1, multiplicity = 5:

       Center              X                  Y                   Z               Mass
    ------------   -----------------  -----------------  -----------------  -----------------
         F            0.000000000000     0.000000000000     1.955910248114    18.998403162730
         SI           0.000000000000     0.000000000000    -1.328207778569    27.976926534650

  Nuclear repulsion =   20.302659040471930

  ==> Basis Set <==

  Basis Set: CC-PVDZ
    Blend: CC-PVDZ
    Number of shells: 14
    Number of basis functions: 32
    Number of Cartesian functions: 34
    Spherical Harmonics?: true
    Max angular momentum: 2

  ==> DFJKGrad: Density-Fitted SCF Gradients <==

    Gradient:                    1
    J tasked:                  Yes
    K tasked:                  Yes
    wK tasked:                  No
    OpenMP threads:              1
    Integrals threads:           1
    Memory [MiB]:              375
    Schwarz Cutoff:          1E-12
    Fitting Condition:       1E-10

   => Auxiliary Basis Set <=

  Basis Set: (CC-PVDZ AUX)
    Blend: CC-PVDZ-JKFIT
    Number of shells: 60
    Number of basis functions: 182
    Number of Cartesian functions: 211
    Spherical Harmonics?: true
    Max angular momentum: 3

  ==> DFT Potential <==

   => LibXC <=

    Version 6.2.2
    S. Lehtola, C. Steigemann, M. J.T. Oliveira, and M. A.L. Marques.,  SoftwareX 7, 1â€“5 (2018) (10.1016/j.softx.2017.11.002)

   => Composite Functional: B3LYP <=

    B3LYP Hyb-GGA Exchange-Correlation Functional

    P. J. Stephens, F. J. Devlin, C. F. Chabalowski, and M. J. Frisch.,  J. Phys. Chem. 98, 11623 (1994) (10.1021/j100096a001)

    Deriv               =              1
    GGA                 =           TRUE
    Meta                =          FALSE

    Exchange Hybrid     =           TRUE
    MP2 Hybrid          =          FALSE

   => Exchange Functionals <=

    0.0800   Slater exchange
    0.7200         Becke 88

   => Exact (HF) Exchange <=

    0.2000               HF

   => Correlation Functionals <=

    0.1900   Vosko, Wilk & Nusair (VWN5_RPA)
    0.8100   Lee, Yang & Parr

   => LibXC Density Thresholds  <==

    XC_HYB_GGA_XC_B3LYP:  1.00E-15

   => Molecular Quadrature <=

    Radial Scheme          =       TREUTLER
    Pruning Scheme         =           NONE
    Nuclear Scheme         =       TREUTLER

    Blocking Scheme        =         OCTREE
    BS radius alpha        =              1
    Pruning alpha          =              1
    Radial Points          =             75
    Spherical Points       =            302
    Total Points           =          43046
    Total Blocks           =            396
    Max Points             =            254
    Max Functions          =             32
    Weights Tolerance      =       1.00E-15

  -Total Gradient:
     Atom            X                  Y                   Z
    ------   -----------------  -----------------  -----------------
       1        0.000000000000    -0.000000000000    -0.000010408292
       2        0.000000000000    -0.000000000000     0.000001115068

*** tstop() called on Joses-MacBook-Pro-2.local at Thu Jul 17 10:54:01 2025
Module time:
	user time   =       0.85 seconds =       0.01 minutes
	system time =       1.80 seconds =       0.03 minutes
	total time  =          1 seconds =       0.02 minutes
Total time:
	user time   =      94.63 seconds =       1.58 minutes
	system time =     109.01 seconds =       1.82 minutes
	total time  =         21 seconds =       0.35 minutes

    			-----------------------------------------

    			 OPTKING 3.0: for geometry optimizations

    			     By R.A. King, Bethel University

    			        with contributions from

    			    A.V. Copan, J. Cayton, A. Heide

    			-----------------------------------------

	                            ===> Fragment 1 <==

	 Z (Atomic Numbers)          Masses                          Geom
	       9.000000            18.998403          0.00000000  0.00000000  3.69613469
	      14.000000            27.976927          0.00000000  0.00000000 -2.50994894

	 - Coordinate -           - BOHR/RAD -       - ANG/DEG -
	 R(1,2)           =         6.206084           3.284118

	        --- Internal Coordinate Step in ANG or DEG, aJ/ANG or AJ/DEG ---
	-------------------------------------------------------------------------------
	           Coordinate      Previous         Force          Change          New
	           ----------      --------        ------          ------        ------
	               R(1,2)       3.28412        0.00005        0.00120       3.28532
	-------------------------------------------------------------------------------

	                                 ==> Convergence Check <==

	Measures of convergence in internal coordinates in au.

	Criteria marked as inactive (o), active & met (*), and active & unmet ( ).

	----------------------------------------------------------------------------------------------
	   Step    Total Energy     Delta E     Max Force     RMS Force      Max Disp      RMS Disp
	----------------------------------------------------------------------------------------------
	  Convergence Criteria     1.00e-06 *    3.00e-04 *             o    1.20e-03 *             o
	----------------------------------------------------------------------------------------------
	    19    -389.15173679   -1.44e-07 *    5.76e-06 *    5.76e-06 o    2.28e-03      2.28e-03 o  ~
	----------------------------------------------------------------------------------------------

Next Geometry in Ang
	Fragment 1 (Ang)

	    F   0.0000000000   0.0000000000   1.9565122539
	   Si   0.0000000000   0.0000000000  -1.3288097843

    Final optimized geometry and variables:
    Molecular point group: c2v
    Full point group: C_inf_v

    Geometry (in Angstrom), charge = -1, multiplicity = 5:

    F            0.000000000000     0.000000000000     1.955910248114
    SI           0.000000000000     0.000000000000    -1.328207778569

    Psi4 stopped on: Thursday, 17 July 2025 10:54AM
    Psi4 wall time for execution: 0:00:20.86

*** Psi4 exiting successfully. Buy a developer a beer!
