                               Psi4 1.9.1 release

  ==> Input File <==

--------------------------------------------------------------------------
molecule {
-1 5
Al   0.00000        0.60000        0.00000
Ar   0.00000       -0.60000        0.00000
}

set {
basis              cc-pvdz
reference          uks
maxiter            500
geom_maxiter       500
DAMPING_PERCENTAGE 1
guess              SAP
}

optimize('b3lyp')
--------------------------------------------------------------------------

    Molecular point group: c2v
  Charge       = -1
  Multiplicity = 5
  Basis Set: CC-PVDZ
    Blend: CC-PVDZ
  Basis Set: (CC-PVDZ AUX)
    Blend: CC-PVDZ-JKFIT
  @DF-UKS Final Energy:  -768.38730611025778
    Total Energy =                       -768.3873061102577822
 Dipole X            :          0.0000000            0.0000000            0.0000000
 Dipole Y            :          0.0000000            0.0000000            0.0000000
 Dipole Z            :         -3.5267862            1.1464141           -2.3803721
 Magnitude           :                                                    2.3803721
    Molecular point group: c2v
  Basis Set: CC-PVDZ
    Blend: CC-PVDZ
  Basis Set: (CC-PVDZ AUX)
    Blend: CC-PVDZ-JKFIT
  Basis Set: CC-PVDZ
    Blend: CC-PVDZ
  Basis Set: (CC-PVDZ AUX)
    Blend: CC-PVDZ-JKFIT
  @DF-UKS Final Energy:  -768.42351191545231
    Total Energy =                       -768.4235119154523090
  Basis Set: CC-PVDZ
    Blend: CC-PVDZ
  Basis Set: (CC-PVDZ AUX)
    Blend: CC-PVDZ-JKFIT
  Basis Set: CC-PVDZ
    Blend: CC-PVDZ
  @DF-UKS Final Energy:  -768.49132162998660
    Total Energy =                       -768.4913216299866008
  @DF-UKS Final Energy:  -768.71722547364914
    Total Energy =                       -768.7172254736491368
  @DF-UKS Final Energy:  -769.26117309927520
    Total Energy =                       -769.2611730992753110
  @DF-UKS Final Energy:  -769.45304510700896
    Total Energy =                       -769.4530451070090749
  @DF-UKS Final Energy:  -769.58110900641202
    Total Energy =                       -769.5811090064119071
  @DF-UKS Final Energy:  -769.66211640389486
    Total Energy =                       -769.6621164038948564
  @DF-UKS Final Energy:  -769.71269691376619
    Total Energy =                       -769.7126969137661945
  @DF-UKS Final Energy:  -769.74997326081336
    Total Energy =                       -769.7499732608133627
  @DF-UKS Final Energy:  -769.77668115438257
    Total Energy =                       -769.7766811543825725
  @DF-UKS Final Energy:  -769.77817828997240
    Total Energy =                       -769.7781782899724021
  @DF-UKS Final Energy:  -769.79523609545527
    Total Energy =                       -769.7952360954551523
  @DF-UKS Final Energy:  -769.79575880123218
    Total Energy =                       -769.7957588012321821
  @DF-UKS Final Energy:  -769.80512120425624
    Total Energy =                       -769.8051212042562383
  @DF-UKS Final Energy:  -769.80528848250390
    Total Energy =                       -769.8052884825040110
  @DF-UKS Final Energy:  -769.81005593071848
    Total Energy =                       -769.8100559307185904
  @DF-UKS Final Energy:  -769.81010702406297
    Total Energy =                       -769.8101070240629724
  @DF-UKS Final Energy:  -769.81250761066985
    Total Energy =                       -769.8125076106698543
  @DF-UKS Final Energy:  -769.81252250327600
    Total Energy =                       -769.8125225032761136
  @DF-UKS Final Energy:  -769.81453873064527
    Total Energy =                       -769.8145387306453813
  @DF-UKS Final Energy:  -769.81453895900825
    Total Energy =                       -769.8145389590082459
  @DF-UKS Final Energy:  -769.81453918959858
    Total Energy =                       -769.8145391895985767
  @DF-UKS Final Energy:  -769.81453942000428
    Total Energy =                       -769.8145394200041665
  @DF-UKS Final Energy:  -769.81453964986633
    Total Energy =                       -769.8145396498663331
  @DF-UKS Final Energy:  -769.81453987917575
    Total Energy =                       -769.8145398791757543
  @DF-UKS Final Energy:  -769.81454010797245
    Total Energy =                       -769.8145401079723342
  @DF-UKS Final Energy:  -769.81454033624289
    Total Energy =                       -769.8145403362428851
  @DF-UKS Final Energy:  -769.81454056397058
    Total Energy =                       -769.8145405639706951
  @DF-UKS Final Energy:  -769.81454079117862
    Total Energy =                       -769.8145407911786151
  @DF-UKS Final Energy:  -769.81454101790018
    Total Energy =                       -769.8145410179002965
  @DF-UKS Final Energy:  -769.81454124404797
    Total Energy =                       -769.8145412440479731
  @DF-UKS Final Energy:  -769.81454146970259
    Total Energy =                       -769.8145414697025899
  @DF-UKS Final Energy:  -769.81454169483129
    Total Energy =                       -769.8145416948312914
  @DF-UKS Final Energy:  -769.81454191949990
    Total Energy =                       -769.8145419195000159
  @DF-UKS Final Energy:  -769.81454214357325
    Total Energy =                       -769.8145421435731350
  @DF-UKS Final Energy:  -769.81454236718719
    Total Energy =                       -769.8145423671871868
  @DF-UKS Final Energy:  -769.81454259025395
    Total Energy =                       -769.8145425902538364
  Basis Set: (CC-PVDZ AUX)
    Blend: CC-PVDZ-JKFIT
  Basis Set: CC-PVDZ
    Blend: CC-PVDZ
  Basis Set: (CC-PVDZ AUX)
    Blend: CC-PVDZ-JKFIT
  @DF-UKS Final Energy:  -769.81454281282640
    Total Energy =                       -769.8145428128264030
  Basis Set: CC-PVDZ
    Blend: CC-PVDZ
  Basis Set: (CC-PVDZ AUX)
    Blend: CC-PVDZ-JKFIT
  Charge       = -1
  Multiplicity = 5
  Basis Set: CC-PVDZ
    Blend: CC-PVDZ
  Basis Set: (CC-PVDZ AUX)
    Blend: CC-PVDZ-JKFIT

    Orbital Energies [Eh]
    ---------------------

    Alpha Occupied:

       1A1  -114.988560     2A1   -55.869384     3A1   -11.024626
       1B2    -8.574550     1B1    -8.574550     4A1    -8.574401
       5A1    -3.949454     2B2    -2.502660     2B1    -2.502660
       6A1    -2.502656     7A1    -0.853035     3B2    -0.311408
       3B1    -0.311408     8A1    -0.309319     9A1    -0.146830
       4B1     0.049541     4B2     0.049541    10A1     0.049765

    Alpha Virtual:

      11A1     0.330859    12A1     0.385836     5B1     0.387309
       5B2     0.387309    13A1     0.441308     6B2     0.442204
       6B1     0.442204     1A2     0.442322    14A1     0.442323
       7B1     0.692090     7B2     0.692090    15A1     0.713351
      16A1     0.851441     2A2     0.946484    17A1     0.946520
       8B2     0.947697     8B1     0.947697    18A1     0.949191

    Beta Occupied:

       1A1  -114.988509     2A1   -55.860394     3A1   -11.024574
       1B2    -8.574507     1B1    -8.574507     4A1    -8.574288
       5A1    -3.936562     2B2    -2.489922     2B1    -2.489922
       6A1    -2.489886     7A1    -0.852843     3B2    -0.311365
       3B1    -0.311365     8A1    -0.309163

    Beta Virtual:

       9A1     0.028152    10A1     0.188328     4B2     0.190231
       4B1     0.190231    11A1     0.394611    12A1     0.448293
       5B2     0.454635     5B1     0.454635    13A1     0.554065
      14A1     0.554269     1A2     0.554279     6B2     0.554717
       6B1     0.554717     7B1     0.691932     7B2     0.691932
      15A1     0.715482    16A1     0.852991     2A2     0.946559
      17A1     0.946595     8B2     0.947868     8B1     0.947868
      18A1     0.949513

    Final Occupation by Irrep:
             A1    A2    B1    B2
    DOCC [     8,    0,    3,    3 ]
    SOCC [     2,    0,    1,    1 ]
    NA   [    10,    0,    4,    4 ]
    NB   [     8,    0,    3,    3 ]

  @DF-UKS Final Energy:  -769.81454303489863

   => Energetics <=

    Nuclear Repulsion Energy =             25.6978255737244865
    One-Electron Energy =               -1120.9429503739841039
    Two-Electron Energy =                 365.4370637309800145
    DFT Exchange-Correlation Energy =     -40.0064819656191162
    Empirical Dispersion Energy =           0.0000000000000000
    VV10 Nonlocal Energy =                  0.0000000000000000
    Total Energy =                       -769.8145430348986338

  UHF NO Occupations:
  HONO-2 :    4 B2 1.0000000
  HONO-1 :    4 B1 1.0000000
  HONO-0 :   10 A1 1.0000000
  LUNO+0 :   11 A1 0.0000008
  LUNO+1 :    5 B1 0.0000002
  LUNO+2 :    5 B2 0.0000002
  LUNO+3 :   12 A1 0.0000001

Computation Completed

Properties will be evaluated at   0.000000,   0.000000,   0.000000 [a0]

Properties computed using the SCF density matrix

 Multipole Moments:

 ------------------------------------------------------------------------------------
     Multipole            Electronic (a.u.)      Nuclear  (a.u.)        Total (a.u.)
 ------------------------------------------------------------------------------------

 L = 1.  Multiply by 2.5417464519 to convert [e a0] to [Debye]
 Dipole X            :          0.0000000            0.0000000            0.0000000
 Dipole Y            :          0.0000000            0.0000000            0.0000000
 Dipole Z            :        -10.0003665            4.6034228           -5.3969437
 Magnitude           :                                                    5.3969437

 ------------------------------------------------------------------------------------

*** tstop() called on Joses-MacBook-Pro-2.local at Thu Jul 17 11:46:25 2025
Module time:
	user time   =       5.09 seconds =       0.08 minutes
	system time =       0.96 seconds =       0.02 minutes
	total time  =          1 seconds =       0.02 minutes
Total time:
	user time   =     620.44 seconds =      10.34 minutes
	system time =     199.89 seconds =       3.33 minutes
	total time  =         87 seconds =       1.45 minutes

*** tstart() called on Joses-MacBook-Pro-2.local
*** at Thu Jul 17 11:46:25 2025

         ------------------------------------------------------------
                                   SCF GRAD
                          Rob Parrish, Justin Turney,
                       Andy Simmonett, and Alex Sokolov
         ------------------------------------------------------------

  ==> Geometry <==

    Molecular point group: c2v
    Full point group: C_inf_v

    Geometry (in Angstrom), charge = -1, multiplicity = 5:

       Center              X                  Y                   Z               Mass
    ------------   -----------------  -----------------  -----------------  -----------------
         AL           0.000000000000     0.000000000000     2.876476577881    26.981538530000
         AR           0.000000000000     0.000000000000    -1.942120503087    39.962383123700

  Nuclear repulsion =   25.697825573724487

  ==> Basis Set <==

  Basis Set: CC-PVDZ
    Blend: CC-PVDZ
    Number of shells: 16
    Number of basis functions: 36
    Number of Cartesian functions: 38
    Spherical Harmonics?: true
    Max angular momentum: 2

  ==> DFJKGrad: Density-Fitted SCF Gradients <==

    Gradient:                    1
    J tasked:                  Yes
    K tasked:                  Yes
    wK tasked:                  No
    OpenMP threads:              1
    Integrals threads:           1
    Memory [MiB]:              375
    Schwarz Cutoff:          1E-12
    Fitting Condition:       1E-10

   => Auxiliary Basis Set <=

  Basis Set: (CC-PVDZ AUX)
    Blend: CC-PVDZ-JKFIT
    Number of shells: 72
    Number of basis functions: 224
    Number of Cartesian functions: 260
    Spherical Harmonics?: true
    Max angular momentum: 3

  ==> DFT Potential <==

   => LibXC <=

    Version 6.2.2
    S. Lehtola, C. Steigemann, M. J.T. Oliveira, and M. A.L. Marques.,  SoftwareX 7, 1â€“5 (2018) (10.1016/j.softx.2017.11.002)

   => Composite Functional: B3LYP <=

    B3LYP Hyb-GGA Exchange-Correlation Functional

    P. J. Stephens, F. J. Devlin, C. F. Chabalowski, and M. J. Frisch.,  J. Phys. Chem. 98, 11623 (1994) (10.1021/j100096a001)

    Deriv               =              1
    GGA                 =           TRUE
    Meta                =          FALSE

    Exchange Hybrid     =           TRUE
    MP2 Hybrid          =          FALSE

   => Exchange Functionals <=

    0.0800   Slater exchange
    0.7200         Becke 88

   => Exact (HF) Exchange <=

    0.2000               HF

   => Correlation Functionals <=

    0.1900   Vosko, Wilk & Nusair (VWN5_RPA)
    0.8100   Lee, Yang & Parr

   => LibXC Density Thresholds  <==

    XC_HYB_GGA_XC_B3LYP:  1.00E-15

   => Molecular Quadrature <=

    Radial Scheme          =       TREUTLER
    Pruning Scheme         =           NONE
    Nuclear Scheme         =       TREUTLER

    Blocking Scheme        =         OCTREE
    BS radius alpha        =              1
    Pruning alpha          =              1
    Radial Points          =             75
    Spherical Points       =            302
    Total Points           =          42838
    Total Blocks           =            446
    Max Points             =            255
    Max Functions          =             36
    Weights Tolerance      =       1.00E-15

  -Total Gradient:
     Atom            X                  Y                   Z
    ------   -----------------  -----------------  -----------------
       1        0.000000000000    -0.000000000000    -0.000303911035
       2        0.000000000000     0.000000000000     0.000295591729

*** tstop() called on Joses-MacBook-Pro-2.local at Thu Jul 17 11:46:25 2025
Module time:
	user time   =       2.92 seconds =       0.05 minutes
	system time =       1.28 seconds =       0.02 minutes
	total time  =          0 seconds =       0.00 minutes
Total time:
	user time   =     623.36 seconds =      10.39 minutes
	system time =     201.18 seconds =       3.35 minutes
	total time  =         87 seconds =       1.45 minutes

    			-----------------------------------------

    			 OPTKING 3.0: for geometry optimizations

    			     By R.A. King, Bethel University

    			        with contributions from

    			    A.V. Copan, J. Cayton, A. Heide

    			-----------------------------------------

	                            ===> Fragment 1 <==

	 Z (Atomic Numbers)          Masses                          Geom
	      13.000000            26.981539          0.00000000  0.00000000  5.43575294
	      18.000000            39.962383          0.00000000  0.00000000 -3.67007585

	 - Coordinate -           - BOHR/RAD -       - ANG/DEG -
	 R(1,2)           =         9.105829           4.818597

	        --- Internal Coordinate Step in ANG or DEG, aJ/ANG or AJ/DEG ---
	-------------------------------------------------------------------------------
	           Coordinate      Previous         Force          Change          New
	           ----------      --------        ------          ------        ------
	               R(1,2)       4.81860        0.00247        0.00038       4.81898
	-------------------------------------------------------------------------------

	                                 ==> Convergence Check <==

	Measures of convergence in internal coordinates in au.

	Criteria marked as inactive (o), active & met (*), and active & unmet ( ).

	----------------------------------------------------------------------------------------------
	   Step    Total Energy     Delta E     Max Force     RMS Force      Max Disp      RMS Disp
	----------------------------------------------------------------------------------------------
	  Convergence Criteria     1.00e-06 *    3.00e-04 *             o    1.20e-03 *             o
	----------------------------------------------------------------------------------------------
	    53    -769.81454303   -2.22e-07 *    3.00e-04 *    3.00e-04 o    7.25e-04 *    7.25e-04 o  ~
	----------------------------------------------------------------------------------------------

Next Geometry in Ang
	Fragment 1 (Ang)

	   Al   0.0000000000   0.0000000000   2.8766684429
	   Ar   0.0000000000   0.0000000000  -1.9423123682

    Final optimized geometry and variables:
    Molecular point group: c2v
    Full point group: C_inf_v

    Geometry (in Angstrom), charge = -1, multiplicity = 5:

    AL           0.000000000000     0.000000000000     2.876476577881
    AR           0.000000000000     0.000000000000    -1.942120503087

    Psi4 stopped on: Thursday, 17 July 2025 11:46AM
    Psi4 wall time for execution: 0:01:27.42

*** Psi4 exiting successfully. Buy a developer a beer!
