                               Psi4 1.9.1 release

  ==> Input File <==

--------------------------------------------------------------------------
molecule {
-1 5
N   0.00000        0.60000        0.00000
S   0.00000       -0.60000        0.00000
}

set {
basis              cc-pvdz
reference          uks
maxiter            500
geom_maxiter       500
DAMPING_PERCENTAGE 1
guess              SAP
}

optimize('b3lyp')
--------------------------------------------------------------------------

    Molecular point group: c2v
  Charge       = -1
  Multiplicity = 5
  Basis Set: CC-PVDZ
    Blend: CC-PVDZ
  Basis Set: (CC-PVDZ AUX)
    Blend: CC-PVDZ-JKFIT
  @DF-UKS Final Energy:  -452.28102134034572
    Total Energy =                       -452.2810213403457169
 Dipole X            :          0.0000000            0.0000000            0.0000000
 Dipole Y            :          0.0000000            0.0000000            0.0000000
 Dipole Z            :          0.7787905           -0.0120688            0.7667216
 Magnitude           :                                                    0.7667216
    Molecular point group: c2v
  Basis Set: CC-PVDZ
    Blend: CC-PVDZ
  Basis Set: (CC-PVDZ AUX)
    Blend: CC-PVDZ-JKFIT
  Basis Set: CC-PVDZ
    Blend: CC-PVDZ
  Basis Set: (CC-PVDZ AUX)
    Blend: CC-PVDZ-JKFIT
  @DF-UKS Final Energy:  -452.45831989763838
    Total Energy =                       -452.4583198976383756
  Basis Set: CC-PVDZ
    Blend: CC-PVDZ
  Basis Set: (CC-PVDZ AUX)
    Blend: CC-PVDZ-JKFIT
  Basis Set: CC-PVDZ
    Blend: CC-PVDZ
  @DF-UKS Final Energy:  -452.55079674520942
    Total Energy =                       -452.5507967452094249
  @DF-UKS Final Energy:  -452.59504306515822
    Total Energy =                       -452.5950430651582224
  @DF-UKS Final Energy:  -452.64080201148499
    Total Energy =                       -452.6408020114849933
  @DF-UKS Final Energy:  -452.69554885494330
    Total Energy =                       -452.6955488549432403
  @DF-UKS Final Energy:  -452.74094162327282
    Total Energy =                       -452.7409416232728177
  @DF-UKS Final Energy:  -452.74568400021008
    Total Energy =                       -452.7456840002100193
  @DF-UKS Final Energy:  -452.76091366999702
    Total Energy =                       -452.7609136699969667
  @DF-UKS Final Energy:  -452.76626244378355
    Total Energy =                       -452.7662624437836030
  @DF-UKS Final Energy:  -452.76883302918600
    Total Energy =                       -452.7688330291858847
  @DF-UKS Final Energy:  -452.76995371648366
    Total Energy =                       -452.7699537164836556
  @DF-UKS Final Energy:  -452.77043237730277
    Total Energy =                       -452.7704323773027681
  @DF-UKS Final Energy:  -452.77061984503428
    Total Energy =                       -452.7706198450342754
  @DF-UKS Final Energy:  -452.77067285733921
    Total Energy =                       -452.7706728573392638
  @DF-UKS Final Energy:  -452.77069705182657
    Total Energy =                       -452.7706970518265734
  @DF-UKS Final Energy:  -452.77070378118441
    Total Energy =                       -452.7707037811844089
  Basis Set: (CC-PVDZ AUX)
    Blend: CC-PVDZ-JKFIT
  Basis Set: CC-PVDZ
    Blend: CC-PVDZ
  Basis Set: (CC-PVDZ AUX)
    Blend: CC-PVDZ-JKFIT
  @DF-UKS Final Energy:  -452.77070675375199
    Total Energy =                       -452.7707067537519947
  Basis Set: CC-PVDZ
    Blend: CC-PVDZ
  Basis Set: (CC-PVDZ AUX)
    Blend: CC-PVDZ-JKFIT
  Charge       = -1
  Multiplicity = 5
  Basis Set: CC-PVDZ
    Blend: CC-PVDZ
  Basis Set: (CC-PVDZ AUX)
    Blend: CC-PVDZ-JKFIT

    Orbital Energies [Eh]
    ---------------------

    Alpha Occupied:

       1A1   -88.581056     2A1   -14.231049     3A1    -7.637870
       4A1    -5.610244     1B2    -5.594203     1B1    -5.594203
       5A1    -0.603191     6A1    -0.376168     7A1    -0.149865
       2B1    -0.146668     2B2    -0.146668     8A1    -0.013351
       3B2     0.025564     3B1     0.025564

    Alpha Virtual:

       9A1     0.693679    10A1     0.735076     4B2     0.759908
       4B1     0.759908     5B1     0.845754     5B2     0.845754
      11A1     0.849615     6B2     0.877339     6B1     0.877339
      12A1     0.898351     1A2     0.909724    13A1     0.909728
      14A1     1.037078     7B1     1.875595     7B2     1.875595
      15A1     1.877119     2A2     1.877180    16A1     1.878635

    Beta Occupied:

       1A1   -88.575427     2A1   -14.178482     3A1    -7.632107
       4A1    -5.593622     1B2    -5.589636     1B1    -5.589636
       5A1    -0.418382     6A1    -0.324933     2B1     0.046361
       2B2     0.046361

    Beta Virtual:

       7A1     0.088514     3B2     0.089009     3B1     0.089009
       8A1     0.134674     9A1     0.744331    10A1     0.770285
       4B1     0.773560     4B2     0.773560     1A2     0.923890
      11A1     0.923893    12A1     0.925338     5B1     0.927311
       5B2     0.927311     6B2     0.949029     6B1     0.949029
      13A1     0.991646    14A1     1.123660    15A1     2.012474
       2A2     2.012530     7B2     2.016538     7B1     2.016538
      16A1     2.021440

    Final Occupation by Irrep:
             A1    A2    B1    B2
    DOCC [     6,    0,    2,    2 ]
    SOCC [     2,    0,    1,    1 ]
    NA   [     8,    0,    3,    3 ]
    NB   [     6,    0,    2,    2 ]

  @DF-UKS Final Energy:  -452.77070743209043

   => Energetics <=

    Nuclear Repulsion Energy =             16.9150982708249948
    One-Electron Energy =                -664.1347745956867357
    Two-Electron Energy =                 220.8084023355040983
    DFT Exchange-Correlation Energy =     -26.3594334427327723
    Empirical Dispersion Energy =           0.0000000000000000
    VV10 Nonlocal Energy =                  0.0000000000000000
    Total Energy =                       -452.7707074320904894

  UHF NO Occupations:
  HONO-2 :    7 A1 1.0000000
  HONO-1 :    3 B2 1.0000000
  HONO-0 :    8 A1 1.0000000
  LUNO+0 :    9 A1 0.0008907
  LUNO+1 :   10 A1 0.0007860
  LUNO+2 :    4 B2 0.0004261
  LUNO+3 :    4 B1 0.0004261

Computation Completed

Properties will be evaluated at   0.000000,   0.000000,   0.000000 [a0]

Properties computed using the SCF density matrix

 Multipole Moments:

 ------------------------------------------------------------------------------------
     Multipole            Electronic (a.u.)      Nuclear  (a.u.)        Total (a.u.)
 ------------------------------------------------------------------------------------

 L = 1.  Multiply by 2.5417464519 to convert [e a0] to [Debye]
 Dipole X            :          0.0000000            0.0000000            0.0000000
 Dipole Y            :          0.0000000            0.0000000            0.0000000
 Dipole Z            :          0.9863300           -0.0352395            0.9510905
 Magnitude           :                                                    0.9510905

 ------------------------------------------------------------------------------------

*** tstop() called on Joses-MacBook-Pro-2.local at Thu Jul 17 10:36:21 2025
Module time:
	user time   =       2.99 seconds =       0.05 minutes
	system time =       3.46 seconds =       0.06 minutes
	total time  =          1 seconds =       0.02 minutes
Total time:
	user time   =     109.30 seconds =       1.82 minutes
	system time =     110.57 seconds =       1.84 minutes
	total time  =         24 seconds =       0.40 minutes

*** tstart() called on Joses-MacBook-Pro-2.local
*** at Thu Jul 17 10:36:21 2025

         ------------------------------------------------------------
                                   SCF GRAD
                          Rob Parrish, Justin Turney,
                       Andy Simmonett, and Alex Sokolov
         ------------------------------------------------------------

  ==> Geometry <==

    Molecular point group: c2v
    Full point group: C_inf_v

    Geometry (in Angstrom), charge = -1, multiplicity = 5:

       Center              X                  Y                   Z               Mass
    ------------   -----------------  -----------------  -----------------  -----------------
         N            0.000000000000     0.000000000000     2.436645176678    14.003074004430
         S            0.000000000000     0.000000000000    -1.067197759740    31.972071174400

  Nuclear repulsion =   16.915098270824995

  ==> Basis Set <==

  Basis Set: CC-PVDZ
    Blend: CC-PVDZ
    Number of shells: 14
    Number of basis functions: 32
    Number of Cartesian functions: 34
    Spherical Harmonics?: true
    Max angular momentum: 2

  ==> DFJKGrad: Density-Fitted SCF Gradients <==

    Gradient:                    1
    J tasked:                  Yes
    K tasked:                  Yes
    wK tasked:                  No
    OpenMP threads:              1
    Integrals threads:           1
    Memory [MiB]:              375
    Schwarz Cutoff:          1E-12
    Fitting Condition:       1E-10

   => Auxiliary Basis Set <=

  Basis Set: (CC-PVDZ AUX)
    Blend: CC-PVDZ-JKFIT
    Number of shells: 60
    Number of basis functions: 182
    Number of Cartesian functions: 211
    Spherical Harmonics?: true
    Max angular momentum: 3

  ==> DFT Potential <==

   => LibXC <=

    Version 6.2.2
    S. Lehtola, C. Steigemann, M. J.T. Oliveira, and M. A.L. Marques.,  SoftwareX 7, 1â€“5 (2018) (10.1016/j.softx.2017.11.002)

   => Composite Functional: B3LYP <=

    B3LYP Hyb-GGA Exchange-Correlation Functional

    P. J. Stephens, F. J. Devlin, C. F. Chabalowski, and M. J. Frisch.,  J. Phys. Chem. 98, 11623 (1994) (10.1021/j100096a001)

    Deriv               =              1
    GGA                 =           TRUE
    Meta                =          FALSE

    Exchange Hybrid     =           TRUE
    MP2 Hybrid          =          FALSE

   => Exchange Functionals <=

    0.0800   Slater exchange
    0.7200         Becke 88

   => Exact (HF) Exchange <=

    0.2000               HF

   => Correlation Functionals <=

    0.1900   Vosko, Wilk & Nusair (VWN5_RPA)
    0.8100   Lee, Yang & Parr

   => LibXC Density Thresholds  <==

    XC_HYB_GGA_XC_B3LYP:  1.00E-15

   => Molecular Quadrature <=

    Radial Scheme          =       TREUTLER
    Pruning Scheme         =           NONE
    Nuclear Scheme         =       TREUTLER

    Blocking Scheme        =         OCTREE
    BS radius alpha        =              1
    Pruning alpha          =              1
    Radial Points          =             75
    Spherical Points       =            302
    Total Points           =          41784
    Total Blocks           =            380
    Max Points             =            256
    Max Functions          =             32
    Weights Tolerance      =       1.00E-15

  -Total Gradient:
     Atom            X                  Y                   Z
    ------   -----------------  -----------------  -----------------
       1       -0.000000000000     0.000000000000    -0.000021165372
       2        0.000000000000     0.000000000000     0.000017483716

*** tstop() called on Joses-MacBook-Pro-2.local at Thu Jul 17 10:36:21 2025
Module time:
	user time   =       0.82 seconds =       0.01 minutes
	system time =       1.55 seconds =       0.03 minutes
	total time  =          0 seconds =       0.00 minutes
Total time:
	user time   =     110.13 seconds =       1.84 minutes
	system time =     112.13 seconds =       1.87 minutes
	total time  =         24 seconds =       0.40 minutes

    			-----------------------------------------

    			 OPTKING 3.0: for geometry optimizations

    			     By R.A. King, Bethel University

    			        with contributions from

    			    A.V. Copan, J. Cayton, A. Heide

    			-----------------------------------------

	                            ===> Fragment 1 <==

	 Z (Atomic Numbers)          Masses                          Geom
	       7.000000            14.003074          0.00000000  0.00000000  4.60459205
	      16.000000            31.972071          0.00000000  0.00000000 -2.01671149

	 - Coordinate -           - BOHR/RAD -       - ANG/DEG -
	 R(1,2)           =         6.621304           3.503843

	        --- Internal Coordinate Step in ANG or DEG, aJ/ANG or AJ/DEG ---
	-------------------------------------------------------------------------------
	           Coordinate      Previous         Force          Change          New
	           ----------      --------        ------          ------        ------
	               R(1,2)       3.50384        0.00016        0.00962       3.51346
	-------------------------------------------------------------------------------

	                                 ==> Convergence Check <==

	Measures of convergence in internal coordinates in au.

	Criteria marked as inactive (o), active & met (*), and active & unmet ( ).

	----------------------------------------------------------------------------------------------
	   Step    Total Energy     Delta E     Max Force     RMS Force      Max Disp      RMS Disp
	----------------------------------------------------------------------------------------------
	  Convergence Criteria     1.00e-06 *    3.00e-04 *             o    1.20e-03 *             o
	----------------------------------------------------------------------------------------------
	    19    -452.77070743   -6.78e-07 *    1.93e-05 *    1.93e-05 o    1.82e-02      1.82e-02 o  ~
	----------------------------------------------------------------------------------------------

Next Geometry in Ang
	Fragment 1 (Ang)

	    N   0.0000000000   0.0000000000   2.4414532124
	    S   0.0000000000   0.0000000000  -1.0720057955

    Final optimized geometry and variables:
    Molecular point group: c2v
    Full point group: C_inf_v

    Geometry (in Angstrom), charge = -1, multiplicity = 5:

    N            0.000000000000     0.000000000000     2.436645176678
    S            0.000000000000     0.000000000000    -1.067197759740

    Psi4 stopped on: Thursday, 17 July 2025 10:36AM
    Psi4 wall time for execution: 0:00:24.67

*** Psi4 exiting successfully. Buy a developer a beer!
