                               Psi4 1.9.1 release

  ==> Input File <==

--------------------------------------------------------------------------
molecule {
-1 5
Li   0.00000        0.60000        0.00000
Mg   0.00000       -0.60000        0.00000
}

set {
basis              cc-pvdz
reference          uks
maxiter            500
geom_maxiter       500
DAMPING_PERCENTAGE 1
guess              SAP
}

optimize('b3lyp')
--------------------------------------------------------------------------

    Molecular point group: c2v
  Charge       = -1
  Multiplicity = 5
  Basis Set: CC-PVDZ
    Blend: CC-PVDZ
  Basis Set: (CC-PVDZ AUX)
    Blend: DEF2-UNIVERSAL-JKFIT
  @DF-UKS Final Energy:  -207.20730947853079
    Total Energy =                       -207.2073094785307887
 Dipole X            :          0.0000000            0.0000000            0.0000000
 Dipole Y            :          0.0000000            0.0000000            0.0000000
 Dipole Z            :         -0.6729652           -0.8951087           -1.5680738
 Magnitude           :                                                    1.5680738
    Molecular point group: c2v
  Basis Set: CC-PVDZ
    Blend: CC-PVDZ
  Basis Set: (CC-PVDZ AUX)
    Blend: DEF2-UNIVERSAL-JKFIT
  Basis Set: CC-PVDZ
    Blend: CC-PVDZ
  Basis Set: (CC-PVDZ AUX)
    Blend: DEF2-UNIVERSAL-JKFIT
  @DF-UKS Final Energy:  -207.25177406661854
    Total Energy =                       -207.2517740666185375
  Basis Set: CC-PVDZ
    Blend: CC-PVDZ
  Basis Set: (CC-PVDZ AUX)
    Blend: DEF2-UNIVERSAL-JKFIT
  Basis Set: CC-PVDZ
    Blend: CC-PVDZ
  @DF-UKS Final Energy:  -207.30685442361184
    Total Energy =                       -207.3068544236118669
  @DF-UKS Final Energy:  -207.38511376951558
    Total Energy =                       -207.3851137695155842
  @DF-UKS Final Energy:  -207.44076698980055
    Total Energy =                       -207.4407669898005508
  @DF-UKS Final Energy:  -207.47728655720459
    Total Energy =                       -207.4772865572045930
  @DF-UKS Final Energy:  -207.49643190415634
    Total Energy =                       -207.4964319041563385
  @DF-UKS Final Energy:  -207.50464960814276
    Total Energy =                       -207.5046496081427563
  @DF-UKS Final Energy:  -207.50746957744590
    Total Energy =                       -207.5074695774458746
  @DF-UKS Final Energy:  -207.50820445585742
    Total Energy =                       -207.5082044558574239
  @DF-UKS Final Energy:  -207.50831248262693
    Total Energy =                       -207.5083124826269341
  Basis Set: (CC-PVDZ AUX)
    Blend: DEF2-UNIVERSAL-JKFIT
  Basis Set: CC-PVDZ
    Blend: CC-PVDZ
  Basis Set: (CC-PVDZ AUX)
    Blend: DEF2-UNIVERSAL-JKFIT
  @DF-UKS Final Energy:  -207.50831789638394
    Total Energy =                       -207.5083178963839430
  Basis Set: CC-PVDZ
    Blend: CC-PVDZ
  Basis Set: (CC-PVDZ AUX)
    Blend: DEF2-UNIVERSAL-JKFIT
  Charge       = -1
  Multiplicity = 5
  Basis Set: CC-PVDZ
    Blend: CC-PVDZ
  Basis Set: (CC-PVDZ AUX)
    Blend: DEF2-UNIVERSAL-JKFIT

    Orbital Energies [Eh]
    ---------------------

    Alpha Occupied:

       1A1   -46.708730     2A1    -2.988171     3A1    -1.875485
       4A1    -1.732454     1B2    -1.731307     1B1    -1.731307
       5A1    -0.105583     6A1     0.002492     2B1     0.032432
       2B2     0.032432

    Alpha Virtual:

       7A1     0.070424     3B1     0.107436     3B2     0.107436
       8A1     0.124782     4B1     0.184890     4B2     0.184890
       9A1     0.198252    10A1     0.215044    11A1     0.280209
       5B2     0.284537     5B1     0.284537    12A1     0.325642
       1A2     0.342541    13A1     0.342541     6B2     0.348307
       6B1     0.348307     2A2     0.453235    14A1     0.453235
      15A1     0.477999     7B2     0.555790     7B1     0.555790
      16A1     0.698261

    Beta Occupied:

       1A1   -46.704406     2A1    -2.981090     3A1    -1.868710
       4A1    -1.726871     1B2    -1.724963     1B1    -1.724963

    Beta Virtual:

       5A1     0.015824     6A1     0.084374     2B2     0.119435
       2B1     0.119435     7A1     0.126974     8A1     0.151515
       3B1     0.157538     3B2     0.157538     4B1     0.218671
       4B2     0.218671     9A1     0.221080    10A1     0.259850
       5B2     0.326352     5B1     0.326352    11A1     0.327113
      12A1     0.366853    13A1     0.403313     1A2     0.403328
       6B2     0.408972     6B1     0.408972     2A2     0.515124
      14A1     0.515135    15A1     0.524923     7B2     0.606249
       7B1     0.606249    16A1     0.727328

    Final Occupation by Irrep:
             A1    A2    B1    B2
    DOCC [     4,    0,    1,    1 ]
    SOCC [     2,    0,    1,    1 ]
    NA   [     6,    0,    2,    2 ]
    NB   [     4,    0,    1,    1 ]

  @DF-UKS Final Energy:  -207.50831816686662

   => Energetics <=

    Nuclear Repulsion Energy =              6.6659993838152829
    One-Electron Energy =                -304.1976079709810392
    Two-Electron Energy =                 104.8765140182316173
    DFT Exchange-Correlation Energy =     -14.8532235979324696
    Empirical Dispersion Energy =           0.0000000000000000
    VV10 Nonlocal Energy =                  0.0000000000000000
    Total Energy =                       -207.5083181668666157

  UHF NO Occupations:
  HONO-2 :    2 B2 1.0000000
  HONO-1 :    2 B1 1.0000000
  HONO-0 :    6 A1 1.0000000
  LUNO+0 :    7 A1 0.0000007
  LUNO+1 :    8 A1 0.0000004
  LUNO+2 :    3 B1 0.0000003
  LUNO+3 :    3 B2 0.0000003

Computation Completed

Properties will be evaluated at   0.000000,   0.000000,   0.000000 [a0]

Properties computed using the SCF density matrix

 Multipole Moments:

 ------------------------------------------------------------------------------------
     Multipole            Electronic (a.u.)      Nuclear  (a.u.)        Total (a.u.)
 ------------------------------------------------------------------------------------

 L = 1.  Multiply by 2.5417464519 to convert [e a0] to [Debye]
 Dipole X            :          0.0000000            0.0000000            0.0000000
 Dipole Y            :          0.0000000            0.0000000            0.0000000
 Dipole Z            :          0.9649858           -2.1317334           -1.1667475
 Magnitude           :                                                    1.1667475

 ------------------------------------------------------------------------------------

*** tstop() called on Joses-MacBook-Pro-2.local at Thu Jul 17 09:33:09 2025
Module time:
	user time   =       3.54 seconds =       0.06 minutes
	system time =       3.23 seconds =       0.05 minutes
	total time  =          0 seconds =       0.00 minutes
Total time:
	user time   =      68.71 seconds =       1.15 minutes
	system time =      69.02 seconds =       1.15 minutes
	total time  =         13 seconds =       0.22 minutes

*** tstart() called on Joses-MacBook-Pro-2.local
*** at Thu Jul 17 09:33:09 2025

         ------------------------------------------------------------
                                   SCF GRAD
                          Rob Parrish, Justin Turney,
                       Andy Simmonett, and Alex Sokolov
         ------------------------------------------------------------

  ==> Geometry <==

    Molecular point group: c2v
    Full point group: C_inf_v

    Geometry (in Angstrom), charge = -1, multiplicity = 5:

       Center              X                  Y                   Z               Mass
    ------------   -----------------  -----------------  -----------------  -----------------
         LI           0.000000000000     0.000000000000     2.211070074855     7.016003436600
         MG           0.000000000000     0.000000000000    -0.646772911205    23.985041697000

  Nuclear repulsion =    6.665999383815283

  ==> Basis Set <==

  Basis Set: CC-PVDZ
    Blend: CC-PVDZ
    Number of shells: 14
    Number of basis functions: 32
    Number of Cartesian functions: 34
    Spherical Harmonics?: true
    Max angular momentum: 2

  ==> DFJKGrad: Density-Fitted SCF Gradients <==

    Gradient:                    1
    J tasked:                  Yes
    K tasked:                  Yes
    wK tasked:                  No
    OpenMP threads:              1
    Integrals threads:           1
    Memory [MiB]:              375
    Schwarz Cutoff:          1E-12
    Fitting Condition:       1E-10

   => Auxiliary Basis Set <=

  Basis Set: (CC-PVDZ AUX)
    Blend: DEF2-UNIVERSAL-JKFIT
    Number of shells: 51
    Number of basis functions: 163
    Number of Cartesian functions: 197
    Spherical Harmonics?: true
    Max angular momentum: 4

  ==> DFT Potential <==

   => LibXC <=

    Version 6.2.2
    S. Lehtola, C. Steigemann, M. J.T. Oliveira, and M. A.L. Marques.,  SoftwareX 7, 1â€“5 (2018) (10.1016/j.softx.2017.11.002)

   => Composite Functional: B3LYP <=

    B3LYP Hyb-GGA Exchange-Correlation Functional

    P. J. Stephens, F. J. Devlin, C. F. Chabalowski, and M. J. Frisch.,  J. Phys. Chem. 98, 11623 (1994) (10.1021/j100096a001)

    Deriv               =              1
    GGA                 =           TRUE
    Meta                =          FALSE

    Exchange Hybrid     =           TRUE
    MP2 Hybrid          =          FALSE

   => Exchange Functionals <=

    0.0800   Slater exchange
    0.7200         Becke 88

   => Exact (HF) Exchange <=

    0.2000               HF

   => Correlation Functionals <=

    0.1900   Vosko, Wilk & Nusair (VWN5_RPA)
    0.8100   Lee, Yang & Parr

   => LibXC Density Thresholds  <==

    XC_HYB_GGA_XC_B3LYP:  1.00E-15

   => Molecular Quadrature <=

    Radial Scheme          =       TREUTLER
    Pruning Scheme         =           NONE
    Nuclear Scheme         =       TREUTLER

    Blocking Scheme        =         OCTREE
    BS radius alpha        =              1
    Pruning alpha          =              1
    Radial Points          =             75
    Spherical Points       =            302
    Total Points           =          43854
    Total Blocks           =            451
    Max Points             =            255
    Max Functions          =             32
    Weights Tolerance      =       1.00E-15

  -Total Gradient:
     Atom            X                  Y                   Z
    ------   -----------------  -----------------  -----------------
       1        0.000000000000     0.000000000000    -0.000018320698
       2        0.000000000000    -0.000000000000     0.000020499266

*** tstop() called on Joses-MacBook-Pro-2.local at Thu Jul 17 09:33:10 2025
Module time:
	user time   =       1.35 seconds =       0.02 minutes
	system time =       1.55 seconds =       0.03 minutes
	total time  =          1 seconds =       0.02 minutes
Total time:
	user time   =      70.08 seconds =       1.17 minutes
	system time =      70.57 seconds =       1.18 minutes
	total time  =         14 seconds =       0.23 minutes

    			-----------------------------------------

    			 OPTKING 3.0: for geometry optimizations

    			     By R.A. King, Bethel University

    			        with contributions from

    			    A.V. Copan, J. Cayton, A. Heide

    			-----------------------------------------

	                            ===> Fragment 1 <==

	 Z (Atomic Numbers)          Masses                          Geom
	       3.000000             7.016003          0.00000000  0.00000000  4.17831689
	      12.000000            23.985042          0.00000000  0.00000000 -1.22222367

	 - Coordinate -           - BOHR/RAD -       - ANG/DEG -
	 R(1,2)           =         5.400541           2.857843

	        --- Internal Coordinate Step in ANG or DEG, aJ/ANG or AJ/DEG ---
	-------------------------------------------------------------------------------
	           Coordinate      Previous         Force          Change          New
	           ----------      --------        ------          ------        ------
	               R(1,2)       2.85784        0.00016        0.00067       2.85852
	-------------------------------------------------------------------------------

	                                 ==> Convergence Check <==

	Measures of convergence in internal coordinates in au.

	Criteria marked as inactive (o), active & met (*), and active & unmet ( ).

	----------------------------------------------------------------------------------------------
	   Step    Total Energy     Delta E     Max Force     RMS Force      Max Disp      RMS Disp
	----------------------------------------------------------------------------------------------
	  Convergence Criteria     1.00e-06 *    3.00e-04 *             o    1.20e-03 *             o
	----------------------------------------------------------------------------------------------
	    13    -207.50831817   -2.70e-07 *    1.94e-05 *    1.94e-05 o    1.27e-03      1.27e-03 o  ~
	----------------------------------------------------------------------------------------------

Next Geometry in Ang
	Fragment 1 (Ang)

	   Li   0.0000000000   0.0000000000   2.2114070159
	   Mg   0.0000000000   0.0000000000  -0.6471098522

    Final optimized geometry and variables:
    Molecular point group: c2v
    Full point group: C_inf_v

    Geometry (in Angstrom), charge = -1, multiplicity = 5:

    LI           0.000000000000     0.000000000000     2.211070074855
    MG           0.000000000000     0.000000000000    -0.646772911205

    Psi4 stopped on: Thursday, 17 July 2025 09:33AM
    Psi4 wall time for execution: 0:00:14.49

*** Psi4 exiting successfully. Buy a developer a beer!
