                               Psi4 1.9.1 release

  ==> Input File <==

--------------------------------------------------------------------------
molecule {
-1 5
F   0.00000        0.60000        0.00000
S   0.00000       -0.60000        0.00000
}

set {
basis              cc-pvdz
reference          uks
maxiter            500
geom_maxiter       500
DAMPING_PERCENTAGE 1
guess              SAP
}

optimize('b3lyp')
--------------------------------------------------------------------------

    Molecular point group: c2v
  Charge       = -1
  Multiplicity = 5
  Basis Set: CC-PVDZ
    Blend: CC-PVDZ
  Basis Set: (CC-PVDZ AUX)
    Blend: CC-PVDZ-JKFIT
  @DF-UKS Final Energy:  -497.01973572297061
    Total Energy =                       -497.0197357229706085
 Dipole X            :          0.0000000            0.0000000            0.0000000
 Dipole Y            :          0.0000000            0.0000000            0.0000000
 Dipole Z            :          1.9279326           -0.7218847            1.2060479
 Magnitude           :                                                    1.2060479
    Molecular point group: c2v
  Basis Set: CC-PVDZ
    Blend: CC-PVDZ
  Basis Set: (CC-PVDZ AUX)
    Blend: CC-PVDZ-JKFIT
  Basis Set: CC-PVDZ
    Blend: CC-PVDZ
  Basis Set: (CC-PVDZ AUX)
    Blend: CC-PVDZ-JKFIT
  @DF-UKS Final Energy:  -497.17630230277342
    Total Energy =                       -497.1763023027734221
  Basis Set: CC-PVDZ
    Blend: CC-PVDZ
  Basis Set: (CC-PVDZ AUX)
    Blend: CC-PVDZ-JKFIT
  Basis Set: CC-PVDZ
    Blend: CC-PVDZ
  @DF-UKS Final Energy:  -497.27025463692445
    Total Energy =                       -497.2702546369244487
  @DF-UKS Final Energy:  -497.31508173017170
    Total Energy =                       -497.3150817301716984
  @DF-UKS Final Energy:  -497.34714913745904
    Total Energy =                       -497.3471491374590414
  @DF-UKS Final Energy:  -497.36625455371387
    Total Energy =                       -497.3662545537138726
  @DF-UKS Final Energy:  -497.37475721129022
    Total Energy =                       -497.3747572112902162
  @DF-UKS Final Energy:  -497.37821721215118
    Total Energy =                       -497.3782172121511849
  @DF-UKS Final Energy:  -497.37940715086415
    Total Energy =                       -497.3794071508641537
  @DF-UKS Final Energy:  -497.37965000097506
    Total Energy =                       -497.3796500009750616
  @DF-UKS Final Energy:  -497.37971384488890
    Total Energy =                       -497.3797138448888973
  @DF-UKS Final Energy:  -497.37972209550037
    Total Energy =                       -497.3797220955003695
  Basis Set: (CC-PVDZ AUX)
    Blend: CC-PVDZ-JKFIT
  Basis Set: CC-PVDZ
    Blend: CC-PVDZ
  Basis Set: (CC-PVDZ AUX)
    Blend: CC-PVDZ-JKFIT
  @DF-UKS Final Energy:  -497.37972339888563
    Total Energy =                       -497.3797233988856306
  Basis Set: CC-PVDZ
    Blend: CC-PVDZ
  Basis Set: (CC-PVDZ AUX)
    Blend: CC-PVDZ-JKFIT
  Charge       = -1
  Multiplicity = 5
  Basis Set: CC-PVDZ
    Blend: CC-PVDZ
  Basis Set: (CC-PVDZ AUX)
    Blend: CC-PVDZ-JKFIT

    Orbital Energies [Eh]
    ---------------------

    Alpha Occupied:

       1A1   -88.588778     2A1   -24.356716     3A1    -7.674242
       1B2    -5.639615     1B1    -5.636874     4A1    -5.634390
       5A1    -0.817754     6A1    -0.464762     7A1    -0.149222
       2B2    -0.103368     2B1    -0.099508     3B2    -0.049968
       3B1    -0.046768     8A1     0.029532     4B1     0.622395

    Alpha Virtual:

       9A1     0.668479     4B2     0.691699    10A1     0.710904
       1A2     0.796598     5B2     0.798233    11A1     0.798362
       5B1     0.809325    12A1     0.897934     6B2     1.466917
       6B1     1.471169    13A1     1.526247    14A1     2.159868
       7B2     3.883839     7B1     3.887553    15A1     3.900724
       2A2     3.901035    16A1     3.916931

    Beta Occupied:

       1A1   -88.567964     2A1   -24.339159     3A1    -7.653146
       1B2    -5.614304     4A1    -5.611899     1B1    -5.591842
       5A1    -0.774030     6A1    -0.338098     7A1    -0.072029
       2B2    -0.053656     2B1    -0.053604

    Beta Virtual:

       3B2     0.094847     3B1     0.125011     8A1     0.179922
       9A1     0.730066     4B2     0.756851    10A1     0.779846
       4B1     0.787253     5B2     0.884800     5B1     0.908271
      11A1     0.910314     1A2     0.911855    12A1     0.978314
       6B2     1.487424     6B1     1.490324    13A1     1.561187
      14A1     2.195251    15A1     3.923004     2A2     3.923045
       7B2     3.926206     7B1     3.927208    16A1     3.963798

    Final Occupation by Irrep:
             A1    A2    B1    B2
    DOCC [     7,    0,    2,    2 ]
    SOCC [     1,    0,    2,    1 ]
    NA   [     8,    0,    4,    3 ]
    NB   [     7,    0,    2,    2 ]

  @DF-UKS Final Energy:  -497.37972352395224

   => Energetics <=

    Nuclear Repulsion Energy =             36.4132855705011735
    One-Electron Energy =                -769.3625144238737903
    Two-Electron Energy =                 264.9529201034988546
    DFT Exchange-Correlation Energy =     -29.3834147740785241
    Empirical Dispersion Energy =           0.0000000000000000
    VV10 Nonlocal Energy =                  0.0000000000000000
    Total Energy =                       -497.3797235239522365

  UHF NO Occupations:
  HONO-2 :    4 B1 1.0000000
  HONO-1 :    3 B2 1.0000000
  HONO-0 :    8 A1 1.0000000
  LUNO+0 :    9 A1 0.0009295
  LUNO+1 :    4 B2 0.0002785
  LUNO+2 :   10 A1 0.0002312
  LUNO+3 :    5 B1 0.0000860

Computation Completed

Properties will be evaluated at   0.000000,   0.000000,   0.000000 [a0]

Properties computed using the SCF density matrix

 Multipole Moments:

 ------------------------------------------------------------------------------------
     Multipole            Electronic (a.u.)      Nuclear  (a.u.)        Total (a.u.)
 ------------------------------------------------------------------------------------

 L = 1.  Multiply by 2.5417464519 to convert [e a0] to [Debye]
 Dipole X            :          0.0000000            0.0000000            0.0000000
 Dipole Y            :          0.0000000            0.0000000            0.0000000
 Dipole Z            :          1.1313540           -1.2588974           -0.1275434
 Magnitude           :                                                    0.1275434

 ------------------------------------------------------------------------------------

*** tstop() called on Joses-MacBook-Pro-2.local at Thu Jul 17 10:55:34 2025
Module time:
	user time   =       3.04 seconds =       0.05 minutes
	system time =       3.01 seconds =       0.05 minutes
	total time  =          0 seconds =       0.00 minutes
Total time:
	user time   =      72.59 seconds =       1.21 minutes
	system time =      74.44 seconds =       1.24 minutes
	total time  =         14 seconds =       0.23 minutes

*** tstart() called on Joses-MacBook-Pro-2.local
*** at Thu Jul 17 10:55:34 2025

         ------------------------------------------------------------
                                   SCF GRAD
                          Rob Parrish, Justin Turney,
                       Andy Simmonett, and Alex Sokolov
         ------------------------------------------------------------

  ==> Geometry <==

    Molecular point group: c2v
    Full point group: C_inf_v

    Geometry (in Angstrom), charge = -1, multiplicity = 5:

       Center              X                  Y                   Z               Mass
    ------------   -----------------  -----------------  -----------------  -----------------
         F            0.000000000000     0.000000000000     1.312670887905    18.998403162730
         S            0.000000000000     0.000000000000    -0.780013612892    31.972071174400

  Nuclear repulsion =   36.413285570501174

  ==> Basis Set <==

  Basis Set: CC-PVDZ
    Blend: CC-PVDZ
    Number of shells: 14
    Number of basis functions: 32
    Number of Cartesian functions: 34
    Spherical Harmonics?: true
    Max angular momentum: 2

  ==> DFJKGrad: Density-Fitted SCF Gradients <==

    Gradient:                    1
    J tasked:                  Yes
    K tasked:                  Yes
    wK tasked:                  No
    OpenMP threads:              1
    Integrals threads:           1
    Memory [MiB]:              375
    Schwarz Cutoff:          1E-12
    Fitting Condition:       1E-10

   => Auxiliary Basis Set <=

  Basis Set: (CC-PVDZ AUX)
    Blend: CC-PVDZ-JKFIT
    Number of shells: 60
    Number of basis functions: 182
    Number of Cartesian functions: 211
    Spherical Harmonics?: true
    Max angular momentum: 3

  ==> DFT Potential <==

   => LibXC <=

    Version 6.2.2
    S. Lehtola, C. Steigemann, M. J.T. Oliveira, and M. A.L. Marques.,  SoftwareX 7, 1â€“5 (2018) (10.1016/j.softx.2017.11.002)

   => Composite Functional: B3LYP <=

    B3LYP Hyb-GGA Exchange-Correlation Functional

    P. J. Stephens, F. J. Devlin, C. F. Chabalowski, and M. J. Frisch.,  J. Phys. Chem. 98, 11623 (1994) (10.1021/j100096a001)

    Deriv               =              1
    GGA                 =           TRUE
    Meta                =          FALSE

    Exchange Hybrid     =           TRUE
    MP2 Hybrid          =          FALSE

   => Exchange Functionals <=

    0.0800   Slater exchange
    0.7200         Becke 88

   => Exact (HF) Exchange <=

    0.2000               HF

   => Correlation Functionals <=

    0.1900   Vosko, Wilk & Nusair (VWN5_RPA)
    0.8100   Lee, Yang & Parr

   => LibXC Density Thresholds  <==

    XC_HYB_GGA_XC_B3LYP:  1.00E-15

   => Molecular Quadrature <=

    Radial Scheme          =       TREUTLER
    Pruning Scheme         =           NONE
    Nuclear Scheme         =       TREUTLER

    Blocking Scheme        =         OCTREE
    BS radius alpha        =              1
    Pruning alpha          =              1
    Radial Points          =             75
    Spherical Points       =            302
    Total Points           =          42218
    Total Blocks           =            379
    Max Points             =            255
    Max Functions          =             32
    Weights Tolerance      =       1.00E-15

  -Total Gradient:
     Atom            X                  Y                   Z
    ------   -----------------  -----------------  -----------------
       1        0.000000000000    -0.000000000000    -0.000001027938
       2        0.000000000000    -0.000000000000     0.000017095780

*** tstop() called on Joses-MacBook-Pro-2.local at Thu Jul 17 10:55:34 2025
Module time:
	user time   =       0.87 seconds =       0.01 minutes
	system time =       1.47 seconds =       0.02 minutes
	total time  =          0 seconds =       0.00 minutes
Total time:
	user time   =      73.46 seconds =       1.22 minutes
	system time =      75.91 seconds =       1.27 minutes
	total time  =         14 seconds =       0.23 minutes

    			-----------------------------------------

    			 OPTKING 3.0: for geometry optimizations

    			     By R.A. King, Bethel University

    			        with contributions from

    			    A.V. Copan, J. Cayton, A. Heide

    			-----------------------------------------

	                            ===> Fragment 1 <==

	 Z (Atomic Numbers)          Masses                          Geom
	       9.000000            18.998403          0.00000000  0.00000000  2.48058847
	      16.000000            31.972071          0.00000000  0.00000000 -1.47401210

	 - Coordinate -           - BOHR/RAD -       - ANG/DEG -
	 R(1,2)           =         3.954601           2.092685

	        --- Internal Coordinate Step in ANG or DEG, aJ/ANG or AJ/DEG ---
	-------------------------------------------------------------------------------
	           Coordinate      Previous         Force          Change          New
	           ----------      --------        ------          ------        ------
	               R(1,2)       2.09268        0.00007        0.00009       2.09277
	-------------------------------------------------------------------------------

	                                 ==> Convergence Check <==

	Measures of convergence in internal coordinates in au.

	Criteria marked as inactive (o), active & met (*), and active & unmet ( ).

	----------------------------------------------------------------------------------------------
	   Step    Total Energy     Delta E     Max Force     RMS Force      Max Disp      RMS Disp
	----------------------------------------------------------------------------------------------
	  Convergence Criteria     1.00e-06 *    3.00e-04 *             o    1.20e-03 *             o
	----------------------------------------------------------------------------------------------
	    14    -497.37972352   -1.25e-07 *    9.06e-06 *    9.06e-06 o    1.62e-04 *    1.62e-04 o  ~
	----------------------------------------------------------------------------------------------

Next Geometry in Ang
	Fragment 1 (Ang)

	    F   0.0000000000   0.0000000000   1.3127138060
	    S   0.0000000000   0.0000000000  -0.7800565310

    Final optimized geometry and variables:
    Molecular point group: c2v
    Full point group: C_inf_v

    Geometry (in Angstrom), charge = -1, multiplicity = 5:

    F            0.000000000000     0.000000000000     1.312670887905
    S            0.000000000000     0.000000000000    -0.780013612892

    Psi4 stopped on: Thursday, 17 July 2025 10:55AM
    Psi4 wall time for execution: 0:00:14.82

*** Psi4 exiting successfully. Buy a developer a beer!
