                               Psi4 1.9.1 release

  ==> Input File <==

--------------------------------------------------------------------------
molecule {
-1 5
F   0.00000        0.60000        0.00000
Ne   0.00000       -0.60000        0.00000
}

set {
basis              cc-pvdz
reference          uks
maxiter            500
geom_maxiter       500
DAMPING_PERCENTAGE 1
guess              SAP
}

optimize('b3lyp')
--------------------------------------------------------------------------

    Molecular point group: c2v
  Charge       = -1
  Multiplicity = 5
  Basis Set: CC-PVDZ
    Blend: CC-PVDZ
  Basis Set: (CC-PVDZ AUX)
    Blend: CC-PVDZ-JKFIT
  @DF-UKS Final Energy:  -225.84631749910707
    Total Energy =                       -225.8463174991070730
 Dipole X            :          0.0000000            0.0000000            0.0000000
 Dipole Y            :          0.0000000            0.0000000            0.0000000
 Dipole Z            :         -0.9551899           -0.5846191           -1.5398090
 Magnitude           :                                                    1.5398090
    Molecular point group: c2v
  Basis Set: CC-PVDZ
    Blend: CC-PVDZ
  Basis Set: (CC-PVDZ AUX)
    Blend: CC-PVDZ-JKFIT
  Basis Set: CC-PVDZ
    Blend: CC-PVDZ
  Basis Set: (CC-PVDZ AUX)
    Blend: CC-PVDZ-JKFIT
  @DF-UKS Final Energy:  -226.04913344259950
    Total Energy =                       -226.0491334425994978
  Basis Set: CC-PVDZ
    Blend: CC-PVDZ
  Basis Set: (CC-PVDZ AUX)
    Blend: CC-PVDZ-JKFIT
  Basis Set: CC-PVDZ
    Blend: CC-PVDZ
  @DF-UKS Final Energy:  -226.07560789164944
    Total Energy =                       -226.0756078916494403
  @DF-UKS Final Energy:  -226.12844508146279
    Total Energy =                       -226.1284450814627860
  @DF-UKS Final Energy:  -226.27351166467693
    Total Energy =                       -226.2735116646769313
  @DF-UKS Final Energy:  -226.27434720328225
    Total Energy =                       -226.2743472032822467
  Basis Set: (CC-PVDZ AUX)
    Blend: CC-PVDZ-JKFIT
  Basis Set: CC-PVDZ
    Blend: CC-PVDZ
  Basis Set: (CC-PVDZ AUX)
    Blend: CC-PVDZ-JKFIT
  @DF-UKS Final Energy:  -226.27452796997133
    Total Energy =                       -226.2745279699713308
  Basis Set: CC-PVDZ
    Blend: CC-PVDZ
  Basis Set: (CC-PVDZ AUX)
    Blend: CC-PVDZ-JKFIT
  Charge       = -1
  Multiplicity = 5
  Basis Set: CC-PVDZ
    Blend: CC-PVDZ
  Basis Set: (CC-PVDZ AUX)
    Blend: CC-PVDZ-JKFIT

    Orbital Energies [Eh]
    ---------------------

    Alpha Occupied:

       1A1   -30.623656     2A1   -24.237150     3A1    -1.120458
       4A1    -0.854430     5A1    -0.236628     1B2    -0.231794
       1B1    -0.231364     2B2    -0.167498     6A1    -0.155910
       2B1    -0.072040     7A1     1.227168     3B2     1.262020

    Alpha Virtual:

       3B1     1.435632     8A1     1.622281     4B2     1.654899
       4B1     1.659080     9A1     1.842830    10A1     2.206018
       5B2     3.820559    11A1     3.823405     5B1     3.863357
       1A2     3.865195    12A1     3.882364    13A1     5.036532
       2A2     5.036552     6B1     5.042988     6B2     5.043357
      14A1     5.048312

    Beta Occupied:

       1A1   -30.614627     2A1   -24.123728     3A1    -1.111175
       4A1    -0.633757     1B1    -0.226488     1B2    -0.225223
       5A1    -0.206554     2B1     0.010390

    Beta Virtual:

       6A1     0.228704     2B2     0.230338     7A1     1.499937
       3B1     1.508921     3B2     1.589759     4B1     1.667655
       4B2     1.681425     8A1     1.753215     9A1     1.948845
      10A1     2.259103     5B1     3.983994    11A1     3.984147
       1A2     3.987820     5B2     4.046581    12A1     4.048970
      13A1     5.038928     2A2     5.038957     6B1     5.050279
       6B2     5.051085    14A1     5.057501

    Final Occupation by Irrep:
             A1    A2    B1    B2
    DOCC [     5,    0,    2,    1 ]
    SOCC [     2,    0,    0,    2 ]
    NA   [     7,    0,    2,    3 ]
    NB   [     5,    0,    2,    1 ]

  @DF-UKS Final Energy:  -226.27452912428154

   => Energetics <=

    Nuclear Repulsion Energy =             20.4908857778423830
    One-Electron Energy =                -367.3947187070176028
    Two-Electron Energy =                 139.5739469797315735
    DFT Exchange-Correlation Energy =     -18.9446431748378856
    Empirical Dispersion Energy =           0.0000000000000000
    VV10 Nonlocal Energy =                  0.0000000000000000
    Total Energy =                       -226.2745291242815426

  UHF NO Occupations:
  HONO-2 :    2 B2 1.0000000
  HONO-1 :    3 B2 1.0000000
  HONO-0 :    7 A1 1.0000000
  LUNO+0 :    8 A1 0.0008658
  LUNO+1 :    3 B1 0.0003232
  LUNO+2 :    9 A1 0.0000308
  LUNO+3 :    4 B2 0.0000031

Computation Completed

Properties will be evaluated at   0.000000,   0.000000,   0.000000 [a0]

Properties computed using the SCF density matrix

 Multipole Moments:

 ------------------------------------------------------------------------------------
     Multipole            Electronic (a.u.)      Nuclear  (a.u.)        Total (a.u.)
 ------------------------------------------------------------------------------------

 L = 1.  Multiply by 2.5417464519 to convert [e a0] to [Debye]
 Dipole X            :          0.0000000            0.0000000            0.0000000
 Dipole Y            :          0.0000000            0.0000000            0.0000000
 Dipole Z            :         -0.2506911           -1.1323343           -1.3830253
 Magnitude           :                                                    1.3830253

 ------------------------------------------------------------------------------------

*** tstop() called on Joses-MacBook-Pro-2.local at Thu Jul 17 10:50:23 2025
Module time:
	user time   =       2.95 seconds =       0.05 minutes
	system time =       2.11 seconds =       0.04 minutes
	total time  =          1 seconds =       0.02 minutes
Total time:
	user time   =      33.35 seconds =       0.56 minutes
	system time =      40.87 seconds =       0.68 minutes
	total time  =          8 seconds =       0.13 minutes

*** tstart() called on Joses-MacBook-Pro-2.local
*** at Thu Jul 17 10:50:23 2025

         ------------------------------------------------------------
                                   SCF GRAD
                          Rob Parrish, Justin Turney,
                       Andy Simmonett, and Alex Sokolov
         ------------------------------------------------------------

  ==> Geometry <==

    Molecular point group: c2v
    Full point group: C_inf_v

    Geometry (in Angstrom), charge = -1, multiplicity = 5:

       Center              X                  Y                   Z               Mass
    ------------   -----------------  -----------------  -----------------  -----------------
         F            0.000000000000     0.000000000000     1.191752539941    18.998403162730
         NE           0.000000000000     0.000000000000    -1.132497835404    19.992440176200

  Nuclear repulsion =   20.490885777842383

  ==> Basis Set <==

  Basis Set: CC-PVDZ
    Blend: CC-PVDZ
    Number of shells: 12
    Number of basis functions: 28
    Number of Cartesian functions: 30
    Spherical Harmonics?: true
    Max angular momentum: 2

  ==> DFJKGrad: Density-Fitted SCF Gradients <==

    Gradient:                    1
    J tasked:                  Yes
    K tasked:                  Yes
    wK tasked:                  No
    OpenMP threads:              1
    Integrals threads:           1
    Memory [MiB]:              375
    Schwarz Cutoff:          1E-12
    Fitting Condition:       1E-10

   => Auxiliary Basis Set <=

  Basis Set: (CC-PVDZ AUX)
    Blend: CC-PVDZ-JKFIT
    Number of shells: 48
    Number of basis functions: 140
    Number of Cartesian functions: 162
    Spherical Harmonics?: true
    Max angular momentum: 3

  ==> DFT Potential <==

   => LibXC <=

    Version 6.2.2
    S. Lehtola, C. Steigemann, M. J.T. Oliveira, and M. A.L. Marques.,  SoftwareX 7, 1â€“5 (2018) (10.1016/j.softx.2017.11.002)

   => Composite Functional: B3LYP <=

    B3LYP Hyb-GGA Exchange-Correlation Functional

    P. J. Stephens, F. J. Devlin, C. F. Chabalowski, and M. J. Frisch.,  J. Phys. Chem. 98, 11623 (1994) (10.1021/j100096a001)

    Deriv               =              1
    GGA                 =           TRUE
    Meta                =          FALSE

    Exchange Hybrid     =           TRUE
    MP2 Hybrid          =          FALSE

   => Exchange Functionals <=

    0.0800   Slater exchange
    0.7200         Becke 88

   => Exact (HF) Exchange <=

    0.2000               HF

   => Correlation Functionals <=

    0.1900   Vosko, Wilk & Nusair (VWN5_RPA)
    0.8100   Lee, Yang & Parr

   => LibXC Density Thresholds  <==

    XC_HYB_GGA_XC_B3LYP:  1.00E-15

   => Molecular Quadrature <=

    Radial Scheme          =       TREUTLER
    Pruning Scheme         =           NONE
    Nuclear Scheme         =       TREUTLER

    Blocking Scheme        =         OCTREE
    BS radius alpha        =              1
    Pruning alpha          =              1
    Radial Points          =             75
    Spherical Points       =            302
    Total Points           =          42373
    Total Blocks           =            379
    Max Points             =            253
    Max Functions          =             28
    Weights Tolerance      =       1.00E-15

  -Total Gradient:
     Atom            X                  Y                   Z
    ------   -----------------  -----------------  -----------------
       1        0.000000000000    -0.000000000000    -0.000053086101
       2        0.000000000000     0.000000000000     0.000056256196

*** tstop() called on Joses-MacBook-Pro-2.local at Thu Jul 17 10:50:23 2025
Module time:
	user time   =       1.08 seconds =       0.02 minutes
	system time =       0.59 seconds =       0.01 minutes
	total time  =          0 seconds =       0.00 minutes
Total time:
	user time   =      34.45 seconds =       0.57 minutes
	system time =      41.46 seconds =       0.69 minutes
	total time  =          8 seconds =       0.13 minutes

    			-----------------------------------------

    			 OPTKING 3.0: for geometry optimizations

    			     By R.A. King, Bethel University

    			        with contributions from

    			    A.V. Copan, J. Cayton, A. Heide

    			-----------------------------------------

	                            ===> Fragment 1 <==

	 Z (Atomic Numbers)          Masses                          Geom
	       9.000000            18.998403          0.00000000  0.00000000  2.25208591
	      10.000000            19.992440          0.00000000  0.00000000 -2.14011075

	 - Coordinate -           - BOHR/RAD -       - ANG/DEG -
	 R(1,2)           =         4.392197           2.324250

	        --- Internal Coordinate Step in ANG or DEG, aJ/ANG or AJ/DEG ---
	-------------------------------------------------------------------------------
	           Coordinate      Previous         Force          Change          New
	           ----------      --------        ------          ------        ------
	               R(1,2)       2.32425        0.00045        0.00014       2.32439
	-------------------------------------------------------------------------------

	                                 ==> Convergence Check <==

	Measures of convergence in internal coordinates in au.

	Criteria marked as inactive (o), active & met (*), and active & unmet ( ).

	----------------------------------------------------------------------------------------------
	   Step    Total Energy     Delta E     Max Force     RMS Force      Max Disp      RMS Disp
	----------------------------------------------------------------------------------------------
	  Convergence Criteria     1.00e-06 *    3.00e-04 *             o    1.20e-03 *             o
	----------------------------------------------------------------------------------------------
	     8    -226.27452912   -1.15e-06      5.47e-05 *    5.47e-05 o    2.68e-04 *    2.68e-04 o  ~
	----------------------------------------------------------------------------------------------

Next Geometry in Ang
	Fragment 1 (Ang)

	    F   0.0000000000   0.0000000000   1.1918233400
	   Ne   0.0000000000   0.0000000000  -1.1325686355

    Final optimized geometry and variables:
    Molecular point group: c2v
    Full point group: C_inf_v

    Geometry (in Angstrom), charge = -1, multiplicity = 5:

    F            0.000000000000     0.000000000000     1.191752539941
    NE           0.000000000000     0.000000000000    -1.132497835404

    Psi4 stopped on: Thursday, 17 July 2025 10:50AM
    Psi4 wall time for execution: 0:00:08.47

*** Psi4 exiting successfully. Buy a developer a beer!
