                               Psi4 1.9.1 release

  ==> Input File <==

--------------------------------------------------------------------------
molecule {
-1 5
Na   0.00000        0.60000        0.00000
Mg   0.00000       -0.60000        0.00000
}

set {
basis              cc-pvdz
reference          uks
maxiter            500
geom_maxiter       500
DAMPING_PERCENTAGE 1
guess              SAP
}

optimize('b3lyp')
--------------------------------------------------------------------------

    Molecular point group: c2v
  Charge       = -1
  Multiplicity = 5
  Basis Set: CC-PVDZ
    Blend: CC-PVDZ
  Basis Set: (CC-PVDZ AUX)
    Blend: DEF2-UNIVERSAL-JKFIT
  @DF-UKS Final Energy:  -361.68908097950754
    Total Energy =                       -361.6890809795075370
 Dipole X            :          0.0000000            0.0000000            0.0000000
 Dipole Y            :          0.0000000            0.0000000            0.0000000
 Dipole Z            :         -0.0010554           -0.5813069           -0.5823623
 Magnitude           :                                                    0.5823623
    Molecular point group: c2v
  Basis Set: CC-PVDZ
    Blend: CC-PVDZ
  Basis Set: (CC-PVDZ AUX)
    Blend: DEF2-UNIVERSAL-JKFIT
  Basis Set: CC-PVDZ
    Blend: CC-PVDZ
  Basis Set: (CC-PVDZ AUX)
    Blend: DEF2-UNIVERSAL-JKFIT
  @DF-UKS Final Energy:  -361.69590232923139
    Total Energy =                       -361.6959023292313873
  Basis Set: CC-PVDZ
    Blend: CC-PVDZ
  Basis Set: (CC-PVDZ AUX)
    Blend: DEF2-UNIVERSAL-JKFIT
  Basis Set: CC-PVDZ
    Blend: CC-PVDZ
  @DF-UKS Final Energy:  -361.70906461553420
    Total Energy =                       -361.7090646155342029
  @DF-UKS Final Energy:  -361.75678644993377
    Total Energy =                       -361.7567864499337702
  @DF-UKS Final Energy:  -361.97310583817392
    Total Energy =                       -361.9731058381739217
  @DF-UKS Final Energy:  -362.07979445796963
    Total Energy =                       -362.0797944579695695
  @DF-UKS Final Energy:  -362.15499544947835
    Total Energy =                       -362.1549954494783492
  @DF-UKS Final Energy:  -362.21320455338787
    Total Energy =                       -362.2132045533879250
  @DF-UKS Final Energy:  -362.25256617812465
    Total Energy =                       -362.2525661781246527
  @DF-UKS Final Energy:  -362.27753429404561
    Total Energy =                       -362.2775342940456085
  @DF-UKS Final Energy:  -362.29069579990011
    Total Energy =                       -362.2906957999001634
  @DF-UKS Final Energy:  -362.29656003257571
    Total Energy =                       -362.2965600325757123
  @DF-UKS Final Energy:  -362.29880241874582
    Total Energy =                       -362.2988024187457654
  @DF-UKS Final Energy:  -362.29945515828308
    Total Energy =                       -362.2994551582830809
  @DF-UKS Final Energy:  -362.29956982489642
    Total Energy =                       -362.2995698248964231
  Basis Set: (CC-PVDZ AUX)
    Blend: DEF2-UNIVERSAL-JKFIT
  Basis Set: CC-PVDZ
    Blend: CC-PVDZ
  Basis Set: (CC-PVDZ AUX)
    Blend: DEF2-UNIVERSAL-JKFIT
  @DF-UKS Final Energy:  -362.29957739990340
    Total Energy =                       -362.2995773999033986
  Basis Set: CC-PVDZ
    Blend: CC-PVDZ
  Basis Set: (CC-PVDZ AUX)
    Blend: DEF2-UNIVERSAL-JKFIT
  Charge       = -1
  Multiplicity = 5
  Basis Set: CC-PVDZ
    Blend: CC-PVDZ
  Basis Set: (CC-PVDZ AUX)
    Blend: DEF2-UNIVERSAL-JKFIT

    Orbital Energies [Eh]
    ---------------------

    Alpha Occupied:

       1A1   -46.716140     2A1   -38.352901     3A1    -2.995438
       4A1    -2.097614     5A1    -1.740030     1B2    -1.738360
       1B1    -1.738360     6A1    -1.029251     2B2    -1.028289
       2B1    -1.028289     7A1    -0.107013     8A1    -0.006421
       3B1     0.030730     3B2     0.030730

    Alpha Virtual:

       9A1     0.066944     4B1     0.095103     4B2     0.095103
      10A1     0.110464    11A1     0.155451     5B1     0.178349
       5B2     0.178349    12A1     0.202839    13A1     0.253088
       6B2     0.268815     6B1     0.268815    14A1     0.277239
       1A2     0.277239    15A1     0.284871     7B2     0.291425
       7B1     0.291425    16A1     0.405837     2A2     0.434809
      17A1     0.434812     8B1     0.501629     8B2     0.501629
      18A1     0.616455

    Beta Occupied:

       1A1   -46.711844     2A1   -38.351384     3A1    -2.988368
       4A1    -2.094712     5A1    -1.735108     1B2    -1.731791
       1B1    -1.731791     6A1    -1.027364     2B2    -1.026143
       2B1    -1.026143

    Beta Virtual:

       7A1     0.008233     8A1     0.063246     3B2     0.106393
       3B1     0.106393     9A1     0.113829    10A1     0.138215
       4B1     0.148121     4B2     0.148121    11A1     0.181205
       5B1     0.205190     5B2     0.205190    12A1     0.236449
      13A1     0.290742     6B2     0.310025     6B1     0.310025
       1A2     0.312462    14A1     0.312465    15A1     0.326012
       7B2     0.336255     7B1     0.336255    16A1     0.441446
       2A2     0.502562    17A1     0.502562     8B1     0.551921
       8B2     0.551921    18A1     0.650459

    Final Occupation by Irrep:
             A1    A2    B1    B2
    DOCC [     6,    0,    2,    2 ]
    SOCC [     2,    0,    1,    1 ]
    NA   [     8,    0,    3,    3 ]
    NB   [     6,    0,    2,    2 ]

  @DF-UKS Final Energy:  -362.29957791109371

   => Energetics <=

    Nuclear Repulsion Energy =             21.5173458531420430
    One-Electron Energy =                -552.8423437315539104
    Two-Electron Energy =                 194.0176525347976622
    DFT Exchange-Correlation Energy =     -24.9922325674795331
    Empirical Dispersion Energy =           0.0000000000000000
    VV10 Nonlocal Energy =                  0.0000000000000000
    Total Energy =                       -362.2995779110937065

  UHF NO Occupations:
  HONO-2 :    3 B1 1.0000000
  HONO-1 :    7 A1 1.0000000
  HONO-0 :    8 A1 1.0000000
  LUNO+0 :    9 A1 0.0000013
  LUNO+1 :    4 B2 0.0000005
  LUNO+2 :    4 B1 0.0000005
  LUNO+3 :   10 A1 0.0000002

Computation Completed

Properties will be evaluated at   0.000000,   0.000000,   0.000000 [a0]

Properties computed using the SCF density matrix

 Multipole Moments:

 ------------------------------------------------------------------------------------
     Multipole            Electronic (a.u.)      Nuclear  (a.u.)        Total (a.u.)
 ------------------------------------------------------------------------------------

 L = 1.  Multiply by 2.5417464519 to convert [e a0] to [Debye]
 Dipole X            :          0.0000000            0.0000000            0.0000000
 Dipole Y            :          0.0000000            0.0000000            0.0000000
 Dipole Z            :          1.8661414           -1.5725723            0.2935691
 Magnitude           :                                                    0.2935691

 ------------------------------------------------------------------------------------

*** tstop() called on Joses-MacBook-Pro-2.local at Thu Jul 17 11:08:51 2025
Module time:
	user time   =       7.22 seconds =       0.12 minutes
	system time =       2.31 seconds =       0.04 minutes
	total time  =          1 seconds =       0.02 minutes
Total time:
	user time   =     231.44 seconds =       3.86 minutes
	system time =      76.19 seconds =       1.27 minutes
	total time  =         30 seconds =       0.50 minutes

*** tstart() called on Joses-MacBook-Pro-2.local
*** at Thu Jul 17 11:08:51 2025

         ------------------------------------------------------------
                                   SCF GRAD
                          Rob Parrish, Justin Turney,
                       Andy Simmonett, and Alex Sokolov
         ------------------------------------------------------------

  ==> Geometry <==

    Molecular point group: c2v
    Full point group: C_inf_v

    Geometry (in Angstrom), charge = -1, multiplicity = 5:

       Center              X                  Y                   Z               Mass
    ------------   -----------------  -----------------  -----------------  -----------------
         NA           0.000000000000     0.000000000000     1.657531536497    22.989769282000
         MG           0.000000000000     0.000000000000    -1.588751359414    23.985041697000

  Nuclear repulsion =   21.517345853142043

  ==> Basis Set <==

  Basis Set: CC-PVDZ
    Blend: CC-PVDZ
    Number of shells: 16
    Number of basis functions: 36
    Number of Cartesian functions: 38
    Spherical Harmonics?: true
    Max angular momentum: 2

  ==> DFJKGrad: Density-Fitted SCF Gradients <==

    Gradient:                    1
    J tasked:                  Yes
    K tasked:                  Yes
    wK tasked:                  No
    OpenMP threads:              1
    Integrals threads:           1
    Memory [MiB]:              375
    Schwarz Cutoff:          1E-12
    Fitting Condition:       1E-10

   => Auxiliary Basis Set <=

  Basis Set: (CC-PVDZ AUX)
    Blend: DEF2-UNIVERSAL-JKFIT
    Number of shells: 68
    Number of basis functions: 224
    Number of Cartesian functions: 274
    Spherical Harmonics?: true
    Max angular momentum: 4

  ==> DFT Potential <==

   => LibXC <=

    Version 6.2.2
    S. Lehtola, C. Steigemann, M. J.T. Oliveira, and M. A.L. Marques.,  SoftwareX 7, 1â€“5 (2018) (10.1016/j.softx.2017.11.002)

   => Composite Functional: B3LYP <=

    B3LYP Hyb-GGA Exchange-Correlation Functional

    P. J. Stephens, F. J. Devlin, C. F. Chabalowski, and M. J. Frisch.,  J. Phys. Chem. 98, 11623 (1994) (10.1021/j100096a001)

    Deriv               =              1
    GGA                 =           TRUE
    Meta                =          FALSE

    Exchange Hybrid     =           TRUE
    MP2 Hybrid          =          FALSE

   => Exchange Functionals <=

    0.0800   Slater exchange
    0.7200         Becke 88

   => Exact (HF) Exchange <=

    0.2000               HF

   => Correlation Functionals <=

    0.1900   Vosko, Wilk & Nusair (VWN5_RPA)
    0.8100   Lee, Yang & Parr

   => LibXC Density Thresholds  <==

    XC_HYB_GGA_XC_B3LYP:  1.00E-15

   => Molecular Quadrature <=

    Radial Scheme          =       TREUTLER
    Pruning Scheme         =           NONE
    Nuclear Scheme         =       TREUTLER

    Blocking Scheme        =         OCTREE
    BS radius alpha        =              1
    Pruning alpha          =              1
    Radial Points          =             75
    Spherical Points       =            302
    Total Points           =          43613
    Total Blocks           =            460
    Max Points             =            253
    Max Functions          =             36
    Weights Tolerance      =       1.00E-15

  -Total Gradient:
     Atom            X                  Y                   Z
    ------   -----------------  -----------------  -----------------
       1       -0.000000000000     0.000000000000    -0.000020934799
       2        0.000000000000     0.000000000000     0.000026672974

*** tstop() called on Joses-MacBook-Pro-2.local at Thu Jul 17 11:08:51 2025
Module time:
	user time   =       3.48 seconds =       0.06 minutes
	system time =       1.24 seconds =       0.02 minutes
	total time  =          0 seconds =       0.00 minutes
Total time:
	user time   =     234.94 seconds =       3.92 minutes
	system time =      77.43 seconds =       1.29 minutes
	total time  =         30 seconds =       0.50 minutes

    			-----------------------------------------

    			 OPTKING 3.0: for geometry optimizations

    			     By R.A. King, Bethel University

    			        with contributions from

    			    A.V. Copan, J. Cayton, A. Heide

    			-----------------------------------------

	                            ===> Fragment 1 <==

	 Z (Atomic Numbers)          Masses                          Geom
	      11.000000            22.989769          0.00000000  0.00000000  3.13228065
	      12.000000            23.985042          0.00000000  0.00000000 -3.00230495

	 - Coordinate -           - BOHR/RAD -       - ANG/DEG -
	 R(1,2)           =         6.134586           3.246283

	        --- Internal Coordinate Step in ANG or DEG, aJ/ANG or AJ/DEG ---
	-------------------------------------------------------------------------------
	           Coordinate      Previous         Force          Change          New
	           ----------      --------        ------          ------        ------
	               R(1,2)       3.24628        0.00020        0.00132       3.24760
	-------------------------------------------------------------------------------

	                                 ==> Convergence Check <==

	Measures of convergence in internal coordinates in au.

	Criteria marked as inactive (o), active & met (*), and active & unmet ( ).

	----------------------------------------------------------------------------------------------
	   Step    Total Energy     Delta E     Max Force     RMS Force      Max Disp      RMS Disp
	----------------------------------------------------------------------------------------------
	  Convergence Criteria     1.00e-06 *    3.00e-04 *             o    1.20e-03 *             o
	----------------------------------------------------------------------------------------------
	    17    -362.29957791   -5.11e-07 *    2.38e-05 *    2.38e-05 o    2.49e-03      2.49e-03 o  ~
	----------------------------------------------------------------------------------------------

Next Geometry in Ang
	Fragment 1 (Ang)

	   Na   0.0000000000   0.0000000000   1.6581905374
	   Mg   0.0000000000   0.0000000000  -1.5894103603

    Final optimized geometry and variables:
    Molecular point group: c2v
    Full point group: C_inf_v

    Geometry (in Angstrom), charge = -1, multiplicity = 5:

    NA           0.000000000000     0.000000000000     1.657531536497
    MG           0.000000000000     0.000000000000    -1.588751359414

    Psi4 stopped on: Thursday, 17 July 2025 11:08AM
    Psi4 wall time for execution: 0:00:31.40

*** Psi4 exiting successfully. Buy a developer a beer!
