                               Psi4 1.9.1 release

  ==> Input File <==

--------------------------------------------------------------------------
molecule {
-1 5
Li   0.00000        0.60000        0.00000
Ar   0.00000       -0.60000        0.00000
}

set {
basis              cc-pvdz
reference          uks
maxiter            500
geom_maxiter       500
DAMPING_PERCENTAGE 1
guess              SAP
}

optimize('b3lyp')
--------------------------------------------------------------------------

    Molecular point group: c2v
  Charge       = -1
  Multiplicity = 5
  Basis Set: CC-PVDZ
    Blend: CC-PVDZ
  Basis Set: (CC-PVDZ AUX)
    Blend: CC-PVDZ-JKFIT + DEF2-UNIVERSAL-JKFIT
  @DF-UKS Final Energy:  -534.05164576413506
    Total Energy =                       -534.0516457641350598
 Dipole X            :          0.0000000            0.0000000            0.0000000
 Dipole Y            :          0.0000000            0.0000000            0.0000000
 Dipole Z            :         -3.5971491           -0.3089754           -3.9061245
 Magnitude           :                                                    3.9061245
    Molecular point group: c2v
  Basis Set: CC-PVDZ
    Blend: CC-PVDZ
  Basis Set: (CC-PVDZ AUX)
    Blend: CC-PVDZ-JKFIT + DEF2-UNIVERSAL-JKFIT
  Basis Set: CC-PVDZ
    Blend: CC-PVDZ
  Basis Set: (CC-PVDZ AUX)
    Blend: CC-PVDZ-JKFIT + DEF2-UNIVERSAL-JKFIT
  @DF-UKS Final Energy:  -534.20427526076071
    Total Energy =                       -534.2042752607607099
  Basis Set: CC-PVDZ
    Blend: CC-PVDZ
  Basis Set: (CC-PVDZ AUX)
    Blend: CC-PVDZ-JKFIT + DEF2-UNIVERSAL-JKFIT
  Basis Set: CC-PVDZ
    Blend: CC-PVDZ
  @DF-UKS Final Energy:  -534.33211427107278
    Total Energy =                       -534.3321142710727827
  @DF-UKS Final Energy:  -534.41671508323770
    Total Energy =                       -534.4167150832377047
  @DF-UKS Final Energy:  -534.47672351041444
    Total Energy =                       -534.4767235104144447
  @DF-UKS Final Energy:  -534.51255490767949
    Total Energy =                       -534.5125549076794869
  @DF-UKS Final Energy:  -534.53649323477623
    Total Energy =                       -534.5364932347762306
  @DF-UKS Final Energy:  -534.55160410412111
    Total Energy =                       -534.5516041041211110
  @DF-UKS Final Energy:  -534.55915710867339
    Total Energy =                       -534.5591571086733893
  @DF-UKS Final Energy:  -534.56138567048072
    Total Energy =                       -534.5613856704807176
  @DF-UKS Final Energy:  -534.56165350761580
    Total Energy =                       -534.5616535076158016
  Basis Set: (CC-PVDZ AUX)
    Blend: CC-PVDZ-JKFIT + DEF2-UNIVERSAL-JKFIT
  Basis Set: CC-PVDZ
    Blend: CC-PVDZ
  Basis Set: (CC-PVDZ AUX)
    Blend: CC-PVDZ-JKFIT + DEF2-UNIVERSAL-JKFIT
  @DF-UKS Final Energy:  -534.56166057806456
    Total Energy =                       -534.5616605780644477
  Basis Set: CC-PVDZ
    Blend: CC-PVDZ
  Basis Set: (CC-PVDZ AUX)
    Blend: CC-PVDZ-JKFIT + DEF2-UNIVERSAL-JKFIT
  Charge       = -1
  Multiplicity = 5
  Basis Set: CC-PVDZ
    Blend: CC-PVDZ
  Basis Set: (CC-PVDZ AUX)
    Blend: CC-PVDZ-JKFIT + DEF2-UNIVERSAL-JKFIT

    Orbital Energies [Eh]
    ---------------------

    Alpha Occupied:

       1A1  -115.320934     2A1   -11.347317     3A1    -8.919954
       1B2    -8.889805     1B1    -8.889805     4A1    -1.866350
       5A1    -1.146460     6A1    -0.626421     2B2    -0.558643
       2B1    -0.558643     7A1    -0.011333     3B1     0.058343
       3B2     0.058343

    Alpha Virtual:

       8A1     0.089666     9A1     0.157739     4B2     0.192691
       4B1     0.192691    10A1     0.224781     5B2     0.340137
       5B1     0.340137    11A1     0.365532     1A2     0.365533
      12A1     0.370543    13A1     0.540769     6B1     0.557554
       6B2     0.557554    14A1     0.655777     7B2     0.676690
       7B1     0.676690    15A1     0.699454     2A2     0.699456
      16A1     0.927969

    Beta Occupied:

       1A1  -115.311351     2A1   -11.338010     3A1    -8.891280
       1B1    -8.883836     1B2    -8.883836     4A1    -1.860562
       5A1    -1.081384     2B2    -0.537067     2B1    -0.537067

    Beta Virtual:

       6A1    -0.434619     7A1     0.076193     8A1     0.114089
       3B1     0.134335     3B2     0.134335     9A1     0.201189
       4B2     0.232185     4B1     0.232185    10A1     0.237899
       5B2     0.377976     5B1     0.377976    11A1     0.404755
      12A1     0.432506     1A2     0.432512     6B1     0.574406
       6B2     0.574406    13A1     0.585459     2A2     0.711446
      14A1     0.711447    15A1     0.740335     7B2     0.741278
       7B1     0.741278    16A1     0.961298

    Final Occupation by Irrep:
             A1    A2    B1    B2
    DOCC [     5,    0,    2,    2 ]
    SOCC [     2,    0,    1,    1 ]
    NA   [     7,    0,    3,    3 ]
    NB   [     5,    0,    2,    2 ]

  @DF-UKS Final Energy:  -534.56166065065804

   => Energetics <=

    Nuclear Repulsion Energy =              9.4547106496152811
    One-Electron Energy =                -754.0258182274328647
    Two-Electron Energy =                 236.2672299950884849
    DFT Exchange-Correlation Energy =     -26.2577830679290294
    Empirical Dispersion Energy =           0.0000000000000000
    VV10 Nonlocal Energy =                  0.0000000000000000
    Total Energy =                       -534.5616606506580410

  UHF NO Occupations:
  HONO-2 :    3 B2 1.0000000
  HONO-1 :    3 B1 1.0000000
  HONO-0 :    7 A1 1.0000000
  LUNO+0 :    8 A1 0.0008099
  LUNO+1 :    4 B2 0.0000384
  LUNO+2 :    4 B1 0.0000384
  LUNO+3 :    9 A1 0.0000006

Computation Completed

Properties will be evaluated at   0.000000,   0.000000,   0.000000 [a0]

Properties computed using the SCF density matrix

 Multipole Moments:

 ------------------------------------------------------------------------------------
     Multipole            Electronic (a.u.)      Nuclear  (a.u.)        Total (a.u.)
 ------------------------------------------------------------------------------------

 L = 1.  Multiply by 2.5417464519 to convert [e a0] to [Debye]
 Dipole X            :          0.0000000            0.0000000            0.0000000
 Dipole Y            :          0.0000000            0.0000000            0.0000000
 Dipole Z            :         -7.1379214           -0.7781966           -7.9161180
 Magnitude           :                                                    7.9161180

 ------------------------------------------------------------------------------------

*** tstop() called on Joses-MacBook-Pro-2.local at Thu Jul 17 09:38:36 2025
Module time:
	user time   =       3.81 seconds =       0.06 minutes
	system time =       2.03 seconds =       0.03 minutes
	total time  =          0 seconds =       0.00 minutes
Total time:
	user time   =      63.10 seconds =       1.05 minutes
	system time =      68.76 seconds =       1.15 minutes
	total time  =         12 seconds =       0.20 minutes

*** tstart() called on Joses-MacBook-Pro-2.local
*** at Thu Jul 17 09:38:36 2025

         ------------------------------------------------------------
                                   SCF GRAD
                          Rob Parrish, Justin Turney,
                       Andy Simmonett, and Alex Sokolov
         ------------------------------------------------------------

  ==> Geometry <==

    Molecular point group: c2v
    Full point group: C_inf_v

    Geometry (in Angstrom), charge = -1, multiplicity = 5:

       Center              X                  Y                   Z               Mass
    ------------   -----------------  -----------------  -----------------  -----------------
         LI           0.000000000000     0.000000000000     2.570987305302     7.016003436600
         AR           0.000000000000     0.000000000000    -0.451375878001    39.962383123700

  Nuclear repulsion =    9.454710649615281

  ==> Basis Set <==

  Basis Set: CC-PVDZ
    Blend: CC-PVDZ
    Number of shells: 14
    Number of basis functions: 32
    Number of Cartesian functions: 34
    Spherical Harmonics?: true
    Max angular momentum: 2

  ==> DFJKGrad: Density-Fitted SCF Gradients <==

    Gradient:                    1
    J tasked:                  Yes
    K tasked:                  Yes
    wK tasked:                  No
    OpenMP threads:              1
    Integrals threads:           1
    Memory [MiB]:              375
    Schwarz Cutoff:          1E-12
    Fitting Condition:       1E-10

   => Auxiliary Basis Set <=

  Basis Set: (CC-PVDZ AUX)
    Blend: CC-PVDZ-JKFIT + DEF2-UNIVERSAL-JKFIT
    Number of shells: 53
    Number of basis functions: 163
    Number of Cartesian functions: 190
    Spherical Harmonics?: true
    Max angular momentum: 3

  ==> DFT Potential <==

   => LibXC <=

    Version 6.2.2
    S. Lehtola, C. Steigemann, M. J.T. Oliveira, and M. A.L. Marques.,  SoftwareX 7, 1â€“5 (2018) (10.1016/j.softx.2017.11.002)

   => Composite Functional: B3LYP <=

    B3LYP Hyb-GGA Exchange-Correlation Functional

    P. J. Stephens, F. J. Devlin, C. F. Chabalowski, and M. J. Frisch.,  J. Phys. Chem. 98, 11623 (1994) (10.1021/j100096a001)

    Deriv               =              1
    GGA                 =           TRUE
    Meta                =          FALSE

    Exchange Hybrid     =           TRUE
    MP2 Hybrid          =          FALSE

   => Exchange Functionals <=

    0.0800   Slater exchange
    0.7200         Becke 88

   => Exact (HF) Exchange <=

    0.2000               HF

   => Correlation Functionals <=

    0.1900   Vosko, Wilk & Nusair (VWN5_RPA)
    0.8100   Lee, Yang & Parr

   => LibXC Density Thresholds  <==

    XC_HYB_GGA_XC_B3LYP:  1.00E-15

   => Molecular Quadrature <=

    Radial Scheme          =       TREUTLER
    Pruning Scheme         =           NONE
    Nuclear Scheme         =       TREUTLER

    Blocking Scheme        =         OCTREE
    BS radius alpha        =              1
    Pruning alpha          =              1
    Radial Points          =             75
    Spherical Points       =            302
    Total Points           =          44369
    Total Blocks           =            450
    Max Points             =            255
    Max Functions          =             32
    Weights Tolerance      =       1.00E-15

  -Total Gradient:
     Atom            X                  Y                   Z
    ------   -----------------  -----------------  -----------------
       1        0.000000000000    -0.000000000000     0.000031101709
       2       -0.000000000000    -0.000000000000     0.000041485216

*** tstop() called on Joses-MacBook-Pro-2.local at Thu Jul 17 09:38:37 2025
Module time:
	user time   =       1.03 seconds =       0.02 minutes
	system time =       1.16 seconds =       0.02 minutes
	total time  =          1 seconds =       0.02 minutes
Total time:
	user time   =      64.14 seconds =       1.07 minutes
	system time =      69.92 seconds =       1.17 minutes
	total time  =         13 seconds =       0.22 minutes

    			-----------------------------------------

    			 OPTKING 3.0: for geometry optimizations

    			     By R.A. King, Bethel University

    			        with contributions from

    			    A.V. Copan, J. Cayton, A. Heide

    			-----------------------------------------

	                            ===> Fragment 1 <==

	 Z (Atomic Numbers)          Masses                          Geom
	       3.000000             7.016003          0.00000000  0.00000000  4.85846188
	      18.000000            39.962383          0.00000000  0.00000000 -0.85297679

	 - Coordinate -           - BOHR/RAD -       - ANG/DEG -
	 R(1,2)           =         5.711439           3.022363

	        --- Internal Coordinate Step in ANG or DEG, aJ/ANG or AJ/DEG ---
	-------------------------------------------------------------------------------
	           Coordinate      Previous         Force          Change          New
	           ----------      --------        ------          ------        ------
	               R(1,2)       3.02236        0.00004        0.00016       3.02252
	-------------------------------------------------------------------------------

	                                 ==> Convergence Check <==

	Measures of convergence in internal coordinates in au.

	Criteria marked as inactive (o), active & met (*), and active & unmet ( ).

	----------------------------------------------------------------------------------------------
	   Step    Total Energy     Delta E     Max Force     RMS Force      Max Disp      RMS Disp
	----------------------------------------------------------------------------------------------
	  Convergence Criteria     1.00e-06 *    3.00e-04 *             o    1.20e-03 *             o
	----------------------------------------------------------------------------------------------
	    13    -534.56166065   -7.26e-08 *    5.19e-06 *    5.19e-06 o    2.94e-04 *    2.94e-04 o  ~
	----------------------------------------------------------------------------------------------

Next Geometry in Ang
	Fragment 1 (Ang)

	   Li   0.0000000000   0.0000000000   2.5710650268
	   Ar   0.0000000000   0.0000000000  -0.4514535995

    Final optimized geometry and variables:
    Molecular point group: c2v
    Full point group: C_inf_v

    Geometry (in Angstrom), charge = -1, multiplicity = 5:

    LI           0.000000000000     0.000000000000     2.570987305302
    AR           0.000000000000     0.000000000000    -0.451375878001

    Psi4 stopped on: Thursday, 17 July 2025 09:38AM
    Psi4 wall time for execution: 0:00:13.59

*** Psi4 exiting successfully. Buy a developer a beer!
