                               Psi4 1.9.1 release

  ==> Input File <==

--------------------------------------------------------------------------
molecule {
-1 5
Si   0.00000        0.60000        0.00000
Cl   0.00000       -0.60000        0.00000
}

set {
basis              cc-pvdz
reference          uks
maxiter            500
geom_maxiter       500
DAMPING_PERCENTAGE 1
guess              SAP
}

optimize('b3lyp')
--------------------------------------------------------------------------

    Molecular point group: c2v
  Charge       = -1
  Multiplicity = 5
  Basis Set: CC-PVDZ
    Blend: CC-PVDZ
  Basis Set: (CC-PVDZ AUX)
    Blend: CC-PVDZ-JKFIT
  @DF-UKS Final Energy:  -748.19862577128515
    Total Energy =                       -748.1986257712850374
 Dipole X            :          0.0000000            0.0000000            0.0000000
 Dipole Y            :          0.0000000            0.0000000            0.0000000
 Dipole Z            :         -2.0806590            0.5027826           -1.5778764
 Magnitude           :                                                    1.5778764
    Molecular point group: c2v
  Basis Set: CC-PVDZ
    Blend: CC-PVDZ
  Basis Set: (CC-PVDZ AUX)
    Blend: CC-PVDZ-JKFIT
  Basis Set: CC-PVDZ
    Blend: CC-PVDZ
  Basis Set: (CC-PVDZ AUX)
    Blend: CC-PVDZ-JKFIT
  @DF-UKS Final Energy:  -748.23697677513462
    Total Energy =                       -748.2369767751346217
  Basis Set: CC-PVDZ
    Blend: CC-PVDZ
  Basis Set: (CC-PVDZ AUX)
    Blend: CC-PVDZ-JKFIT
  Basis Set: CC-PVDZ
    Blend: CC-PVDZ
  @DF-UKS Final Energy:  -748.30862485679381
    Total Energy =                       -748.3086248567936991
  @DF-UKS Final Energy:  -748.54566747429965
    Total Energy =                       -748.5456674742996483
  @DF-UKS Final Energy:  -749.09119306174625
    Total Energy =                       -749.0911930617462531
  @DF-UKS Final Energy:  -749.27697965123855
    Total Energy =                       -749.2769796512385483
  @DF-UKS Final Energy:  -749.39742082820919
    Total Energy =                       -749.3974208282091922
  @DF-UKS Final Energy:  -749.47135357986497
    Total Energy =                       -749.4713535798649673
  @DF-UKS Final Energy:  -749.51772513500816
    Total Energy =                       -749.5177251350082770
  @DF-UKS Final Energy:  -749.54871136487986
    Total Energy =                       -749.5487113648798640
  @DF-UKS Final Energy:  -749.56775555688739
    Total Energy =                       -749.5677555568873913
  @DF-UKS Final Energy:  -749.57837236852345
    Total Energy =                       -749.5783723685234463
  @DF-UKS Final Energy:  -749.58370382552800
    Total Energy =                       -749.5837038255280049
  @DF-UKS Final Energy:  -749.58610496536858
    Total Energy =                       -749.5861049653685768
  @DF-UKS Final Energy:  -749.58706243213396
    Total Energy =                       -749.5870624321339619
  @DF-UKS Final Energy:  -749.58738155492301
    Total Energy =                       -749.5873815549230130
  @DF-UKS Final Energy:  -749.58745940588358
    Total Energy =                       -749.5874594058835783
  @DF-UKS Final Energy:  -749.58746862030193
    Total Energy =                       -749.5874686203019337
  Basis Set: (CC-PVDZ AUX)
    Blend: CC-PVDZ-JKFIT
  Basis Set: CC-PVDZ
    Blend: CC-PVDZ
  Basis Set: (CC-PVDZ AUX)
    Blend: CC-PVDZ-JKFIT
  @DF-UKS Final Energy:  -749.58746980647391
    Total Energy =                       -749.5874698064739050
  Basis Set: CC-PVDZ
    Blend: CC-PVDZ
  Basis Set: (CC-PVDZ AUX)
    Blend: CC-PVDZ-JKFIT
  Charge       = -1
  Multiplicity = 5
  Basis Set: CC-PVDZ
    Blend: CC-PVDZ
  Basis Set: (CC-PVDZ AUX)
    Blend: CC-PVDZ-JKFIT

    Orbital Energies [Eh]
    ---------------------

    Alpha Occupied:

       1A1  -101.390753     2A1   -65.905933     3A1    -9.304444
       4A1    -7.074750     1B1    -7.056049     1B2    -7.056049
       5A1    -5.048961     2B1    -3.408678     2B2    -3.408678
       6A1    -3.408461     7A1    -0.644137     8A1    -0.227244
       9A1    -0.197483     3B2    -0.160527     3B1    -0.160527
       4B1     0.034126     4B2     0.034126    10A1     0.040231

    Alpha Virtual:

      11A1     0.446882     5B1     0.512411     5B2     0.512411
      12A1     0.523394    13A1     0.552730     6B2     0.571344
       6B1     0.571344    14A1     0.573666     1A2     0.573668
      15A1     0.712822     7B2     0.717071     7B1     0.717071
      16A1     0.832964     8B2     0.870335     8B1     0.870335
      17A1     0.901911     2A2     0.901927    18A1     0.940082

    Beta Occupied:

       1A1  -101.385088     2A1   -65.897199     3A1    -9.298848
       4A1    -7.056684     1B1    -7.052605     1B2    -7.052605
       5A1    -5.038551     2B1    -3.395316     2B2    -3.395316
       6A1    -3.394840     7A1    -0.601285     3B2    -0.147410
       3B1    -0.147410     8A1    -0.124169

    Beta Virtual:

       9A1    -0.062317     4B1     0.155246     4B2     0.155246
      10A1     0.162396    11A1     0.489345     5B1     0.560353
       5B2     0.560353    12A1     0.569613    13A1     0.628515
       6B2     0.650069     6B1     0.650069    14A1     0.656286
       1A2     0.656289     7B2     0.727214     7B1     0.727214
      15A1     0.743438    16A1     0.884584    17A1     0.909211
       2A2     0.909226     8B2     0.916902     8B1     0.916902
      18A1     0.981264

    Final Occupation by Irrep:
             A1    A2    B1    B2
    DOCC [     8,    0,    3,    3 ]
    SOCC [     2,    0,    1,    1 ]
    NA   [    10,    0,    4,    4 ]
    NB   [     8,    0,    3,    3 ]

  @DF-UKS Final Energy:  -749.58746994446801

   => Energetics <=

    Nuclear Repulsion Energy =             35.0584379344805654
    One-Electron Energy =               -1112.7245587263869311
    Two-Electron Energy =                 367.7680898169850821
    DFT Exchange-Correlation Energy =     -39.6894389695467495
    Empirical Dispersion Energy =           0.0000000000000000
    VV10 Nonlocal Energy =                  0.0000000000000000
    Total Energy =                       -749.5874699444680118

  UHF NO Occupations:
  HONO-2 :    4 B1 1.0000000
  HONO-1 :    4 B2 1.0000000
  HONO-0 :   10 A1 1.0000000
  LUNO+0 :   11 A1 0.0005324
  LUNO+1 :   12 A1 0.0003619
  LUNO+2 :    5 B1 0.0000280
  LUNO+3 :    5 B2 0.0000280

Computation Completed

Properties will be evaluated at   0.000000,   0.000000,   0.000000 [a0]

Properties computed using the SCF density matrix

 Multipole Moments:

 ------------------------------------------------------------------------------------
     Multipole            Electronic (a.u.)      Nuclear  (a.u.)        Total (a.u.)
 ------------------------------------------------------------------------------------

 L = 1.  Multiply by 2.5417464519 to convert [e a0] to [Debye]
 Dipole X            :          0.0000000            0.0000000            0.0000000
 Dipole Y            :          0.0000000            0.0000000            0.0000000
 Dipole Z            :         -3.8809168            1.5051665           -2.3757503
 Magnitude           :                                                    2.3757503

 ------------------------------------------------------------------------------------

*** tstop() called on Joses-MacBook-Pro-2.local at Thu Jul 17 11:51:45 2025
Module time:
	user time   =       6.58 seconds =       0.11 minutes
	system time =       1.81 seconds =       0.03 minutes
	total time  =          1 seconds =       0.02 minutes
Total time:
	user time   =     232.12 seconds =       3.87 minutes
	system time =      53.39 seconds =       0.89 minutes
	total time  =         27 seconds =       0.45 minutes

*** tstart() called on Joses-MacBook-Pro-2.local
*** at Thu Jul 17 11:51:45 2025

         ------------------------------------------------------------
                                   SCF GRAD
                          Rob Parrish, Justin Turney,
                       Andy Simmonett, and Alex Sokolov
         ------------------------------------------------------------

  ==> Geometry <==

    Molecular point group: c2v
    Full point group: C_inf_v

    Geometry (in Angstrom), charge = -1, multiplicity = 5:

       Center              X                  Y                   Z               Mass
    ------------   -----------------  -----------------  -----------------  -----------------
         SI           0.000000000000     0.000000000000     1.995723160775    27.976926534650
         CL           0.000000000000     0.000000000000    -1.596683790579    34.968852682000

  Nuclear repulsion =   35.058437934480565

  ==> Basis Set <==

  Basis Set: CC-PVDZ
    Blend: CC-PVDZ
    Number of shells: 16
    Number of basis functions: 36
    Number of Cartesian functions: 38
    Spherical Harmonics?: true
    Max angular momentum: 2

  ==> DFJKGrad: Density-Fitted SCF Gradients <==

    Gradient:                    1
    J tasked:                  Yes
    K tasked:                  Yes
    wK tasked:                  No
    OpenMP threads:              1
    Integrals threads:           1
    Memory [MiB]:              375
    Schwarz Cutoff:          1E-12
    Fitting Condition:       1E-10

   => Auxiliary Basis Set <=

  Basis Set: (CC-PVDZ AUX)
    Blend: CC-PVDZ-JKFIT
    Number of shells: 72
    Number of basis functions: 224
    Number of Cartesian functions: 260
    Spherical Harmonics?: true
    Max angular momentum: 3

  ==> DFT Potential <==

   => LibXC <=

    Version 6.2.2
    S. Lehtola, C. Steigemann, M. J.T. Oliveira, and M. A.L. Marques.,  SoftwareX 7, 1â€“5 (2018) (10.1016/j.softx.2017.11.002)

   => Composite Functional: B3LYP <=

    B3LYP Hyb-GGA Exchange-Correlation Functional

    P. J. Stephens, F. J. Devlin, C. F. Chabalowski, and M. J. Frisch.,  J. Phys. Chem. 98, 11623 (1994) (10.1021/j100096a001)

    Deriv               =              1
    GGA                 =           TRUE
    Meta                =          FALSE

    Exchange Hybrid     =           TRUE
    MP2 Hybrid          =          FALSE

   => Exchange Functionals <=

    0.0800   Slater exchange
    0.7200         Becke 88

   => Exact (HF) Exchange <=

    0.2000               HF

   => Correlation Functionals <=

    0.1900   Vosko, Wilk & Nusair (VWN5_RPA)
    0.8100   Lee, Yang & Parr

   => LibXC Density Thresholds  <==

    XC_HYB_GGA_XC_B3LYP:  1.00E-15

   => Molecular Quadrature <=

    Radial Scheme          =       TREUTLER
    Pruning Scheme         =           NONE
    Nuclear Scheme         =       TREUTLER

    Blocking Scheme        =         OCTREE
    BS radius alpha        =              1
    Pruning alpha          =              1
    Radial Points          =             75
    Spherical Points       =            302
    Total Points           =          41752
    Total Blocks           =            395
    Max Points             =            254
    Max Functions          =             36
    Weights Tolerance      =       1.00E-15

  -Total Gradient:
     Atom            X                  Y                   Z
    ------   -----------------  -----------------  -----------------
       1        0.000000000000    -0.000000000000    -0.000012743013
       2       -0.000000000000     0.000000000000     0.000014046504

*** tstop() called on Joses-MacBook-Pro-2.local at Thu Jul 17 11:51:45 2025
Module time:
	user time   =       1.95 seconds =       0.03 minutes
	system time =       1.72 seconds =       0.03 minutes
	total time  =          0 seconds =       0.00 minutes
Total time:
	user time   =     234.08 seconds =       3.90 minutes
	system time =      55.11 seconds =       0.92 minutes
	total time  =         27 seconds =       0.45 minutes

    			-----------------------------------------

    			 OPTKING 3.0: for geometry optimizations

    			     By R.A. King, Bethel University

    			        with contributions from

    			    A.V. Copan, J. Cayton, A. Heide

    			-----------------------------------------

	                            ===> Fragment 1 <==

	 Z (Atomic Numbers)          Masses                          Geom
	      14.000000            27.976927          0.00000000  0.00000000  3.77137020
	      17.000000            34.968853          0.00000000  0.00000000 -3.01729507

	 - Coordinate -           - BOHR/RAD -       - ANG/DEG -
	 R(1,2)           =         6.788665           3.592407

	        --- Internal Coordinate Step in ANG or DEG, aJ/ANG or AJ/DEG ---
	-------------------------------------------------------------------------------
	           Coordinate      Previous         Force          Change          New
	           ----------      --------        ------          ------        ------
	               R(1,2)       3.59241        0.00011        0.00228       3.59469
	-------------------------------------------------------------------------------

	                                 ==> Convergence Check <==

	Measures of convergence in internal coordinates in au.

	Criteria marked as inactive (o), active & met (*), and active & unmet ( ).

	----------------------------------------------------------------------------------------------
	   Step    Total Energy     Delta E     Max Force     RMS Force      Max Disp      RMS Disp
	----------------------------------------------------------------------------------------------
	  Convergence Criteria     1.00e-06 *    3.00e-04 *             o    1.20e-03 *             o
	----------------------------------------------------------------------------------------------
	    20    -749.58746994   -1.38e-07 *    1.34e-05 *    1.34e-05 o    4.31e-03      4.31e-03 o  ~
	----------------------------------------------------------------------------------------------

Next Geometry in Ang
	Fragment 1 (Ang)

	   Si   0.0000000000   0.0000000000   1.9968647088
	   Cl   0.0000000000   0.0000000000  -1.5978253386

    Final optimized geometry and variables:
    Molecular point group: c2v
    Full point group: C_inf_v

    Geometry (in Angstrom), charge = -1, multiplicity = 5:

    SI           0.000000000000     0.000000000000     1.995723160775
    CL           0.000000000000     0.000000000000    -1.596683790579

    Psi4 stopped on: Thursday, 17 July 2025 11:51AM
    Psi4 wall time for execution: 0:00:27.93

*** Psi4 exiting successfully. Buy a developer a beer!
