                               Psi4 1.9.1 release

  ==> Input File <==

--------------------------------------------------------------------------
molecule {
-1 5
H   0.00000        0.60000        0.00000
Be   0.00000       -0.60000        0.00000
}

set {
basis              cc-pvdz
reference          uks
maxiter            500
geom_maxiter       500
DAMPING_PERCENTAGE 1
guess              SAP
}

optimize('b3lyp')
--------------------------------------------------------------------------

    Molecular point group: c2v
  Charge       = -1
  Multiplicity = 5
  Basis Set: CC-PVDZ
    Blend: CC-PVDZ
  Basis Set: (CC-PVDZ AUX)
    Blend: CC-PVDZ-JKFIT + DEF2-UNIVERSAL-JKFIT
  @DF-UKS Final Energy:   -15.01224097628103
    Total Energy =                        -15.0122409762810261
 Dipole X            :          0.0000000            0.0000000            0.0000000
 Dipole Y            :          0.0000000            0.0000000            0.0000000
 Dipole Z            :          0.2251024            1.1272452            1.3523475
 Magnitude           :                                                    1.3523475
    Molecular point group: c2v
  Basis Set: CC-PVDZ
    Blend: CC-PVDZ
  Basis Set: (CC-PVDZ AUX)
    Blend: CC-PVDZ-JKFIT + DEF2-UNIVERSAL-JKFIT
  Basis Set: CC-PVDZ
    Blend: CC-PVDZ
  Basis Set: (CC-PVDZ AUX)
    Blend: CC-PVDZ-JKFIT + DEF2-UNIVERSAL-JKFIT
  @DF-UKS Final Energy:   -15.04019871325179
    Total Energy =                        -15.0401987132517903
  Basis Set: CC-PVDZ
    Blend: CC-PVDZ
  Basis Set: (CC-PVDZ AUX)
    Blend: CC-PVDZ-JKFIT + DEF2-UNIVERSAL-JKFIT
  Basis Set: CC-PVDZ
    Blend: CC-PVDZ
  @DF-UKS Final Energy:   -15.04976396568739
    Total Energy =                        -15.0497639656873918
  @DF-UKS Final Energy:   -15.05610868164014
    Total Energy =                        -15.0561086816401399
  @DF-UKS Final Energy:   -15.06015773989532
    Total Energy =                        -15.0601577398953168
  @DF-UKS Final Energy:   -15.06340073081816
    Total Energy =                        -15.0634007308181559
  @DF-UKS Final Energy:   -15.06610141444411
    Total Energy =                        -15.0661014144441054
  @DF-UKS Final Energy:   -15.06640643277232
    Total Energy =                        -15.0664064327723182
  @DF-UKS Final Energy:   -15.06820239296697
    Total Energy =                        -15.0682023929669722
  @DF-UKS Final Energy:   -15.06831038487728
    Total Energy =                        -15.0683103848772753
  @DF-UKS Final Energy:   -15.06918826095005
    Total Energy =                        -15.0691882609500496
  @DF-UKS Final Energy:   -15.06922366656793
    Total Energy =                        -15.0692236665679289
  @DF-UKS Final Energy:   -15.06968992544209
    Total Energy =                        -15.0696899254420913
  @DF-UKS Final Energy:   -15.06970248803094
    Total Energy =                        -15.0697024880309431
  @DF-UKS Final Energy:   -15.06998776841887
    Total Energy =                        -15.0699877684188710
  @DF-UKS Final Energy:   -15.06999301491561
    Total Energy =                        -15.0699930149156121
  @DF-UKS Final Energy:   -15.06999816945751
    Total Energy =                        -15.0699981694575094
  @DF-UKS Final Energy:   -15.07019206398617
    Total Energy =                        -15.0701920639861662
  @DF-UKS Final Energy:   -15.07019458555563
    Total Energy =                        -15.0701945855556261
  @DF-UKS Final Energy:   -15.07019708141668
    Total Energy =                        -15.0701970814166799
  @DF-UKS Final Energy:   -15.07019955204193
    Total Energy =                        -15.0701995520419274
  @DF-UKS Final Energy:   -15.07033275862940
    Total Energy =                        -15.0703327586294016
  @DF-UKS Final Energy:   -15.07033394168302
    Total Energy =                        -15.0703339416830175
  @DF-UKS Final Energy:   -15.07033510877605
    Total Energy =                        -15.0703351087760460
  @DF-UKS Final Energy:   -15.07033626518688
    Total Energy =                        -15.0703362651868797
  @DF-UKS Final Energy:   -15.07033741110852
    Total Energy =                        -15.0703374111085200
  @DF-UKS Final Energy:   -15.07033854672797
    Total Energy =                        -15.0703385467279709
  Basis Set: (CC-PVDZ AUX)
    Blend: CC-PVDZ-JKFIT + DEF2-UNIVERSAL-JKFIT
  Basis Set: CC-PVDZ
    Blend: CC-PVDZ
  Basis Set: (CC-PVDZ AUX)
    Blend: CC-PVDZ-JKFIT + DEF2-UNIVERSAL-JKFIT
  @DF-UKS Final Energy:   -15.07041938381912
    Total Energy =                        -15.0704193838191234
  Basis Set: CC-PVDZ
    Blend: CC-PVDZ
  Basis Set: (CC-PVDZ AUX)
    Blend: CC-PVDZ-JKFIT + DEF2-UNIVERSAL-JKFIT
  Charge       = -1
  Multiplicity = 5
  Basis Set: CC-PVDZ
    Blend: CC-PVDZ
  Basis Set: (CC-PVDZ AUX)
    Blend: CC-PVDZ-JKFIT + DEF2-UNIVERSAL-JKFIT

    Orbital Energies [Eh]
    ---------------------

    Alpha Occupied:

       1A1    -3.847260     2A1    -0.222547     3A1    -0.041273
       1B2     0.090550     1B1     0.090550

    Alpha Virtual:

       4A1     0.148043     5A1     0.375932     2B2     0.378692
       2B1     0.378692     6A1     0.393967     7A1     0.526133
       1A2     0.676255     8A1     0.676255     3B2     0.682390
       3B1     0.682390     9A1     0.694089     4B1     1.306602
       4B2     1.306602    10A1     1.307993

    Beta Occupied:

       1A1    -3.830104

    Beta Virtual:

       2A1     0.066644     3A1     0.119206     4A1     0.203236
       1B2     0.235228     1B1     0.235228     5A1     0.423821
       6A1     0.440777     2B2     0.450919     2B1     0.450919
       7A1     0.733301     8A1     0.770530     3B2     0.783131
       3B1     0.783131     9A1     0.807811     1A2     0.807815
       4B2     1.550108     4B1     1.550108    10A1     1.552131

    Final Occupation by Irrep:
             A1    A2    B1    B2
    DOCC [     1,    0,    0,    0 ]
    SOCC [     2,    0,    1,    1 ]
    NA   [     3,    0,    1,    1 ]
    NB   [     1,    0,    0,    0 ]

  @DF-UKS Final Energy:   -15.07041987443214

   => Energetics <=

    Nuclear Repulsion Energy =              0.4118792262427641
    One-Electron Energy =                 -21.2967429201117824
    Two-Electron Energy =                   8.4543801596558037
    DFT Exchange-Correlation Energy =      -2.6399363402189251
    Empirical Dispersion Energy =           0.0000000000000000
    VV10 Nonlocal Energy =                  0.0000000000000000
    Total Energy =                        -15.0704198744321403

  UHF NO Occupations:
  HONO-2 :    1 B1 1.0000000
  HONO-1 :    3 A1 1.0000000
  HONO-0 :    1 B2 1.0000000
  LUNO+0 :    4 A1 0.0000003
  LUNO+1 :    2 B2 0.0000000
  LUNO+2 :    5 A1 0.0000000
  LUNO+3 :    6 A1 0.0000000

Computation Completed

Properties will be evaluated at   0.000000,   0.000000,   0.000000 [a0]

Properties computed using the SCF density matrix

 Multipole Moments:

 ------------------------------------------------------------------------------------
     Multipole            Electronic (a.u.)      Nuclear  (a.u.)        Total (a.u.)
 ------------------------------------------------------------------------------------

 L = 1.  Multiply by 2.5417464519 to convert [e a0] to [Debye]
 Dipole X            :          0.0000000            0.0000000            0.0000000
 Dipole Y            :          0.0000000            0.0000000            0.0000000
 Dipole Z            :         -3.8533204            4.8275676            0.9742472
 Magnitude           :                                                    0.9742472

 ------------------------------------------------------------------------------------

*** tstop() called on Joses-MacBook-Pro-2.local at Thu Jul 17 09:10:56 2025
Module time:
	user time   =       0.38 seconds =       0.01 minutes
	system time =       2.01 seconds =       0.03 minutes
	total time  =          0 seconds =       0.00 minutes
Total time:
	user time   =      29.00 seconds =       0.48 minutes
	system time =     118.28 seconds =       1.97 minutes
	total time  =         15 seconds =       0.25 minutes

*** tstart() called on Joses-MacBook-Pro-2.local
*** at Thu Jul 17 09:10:56 2025

         ------------------------------------------------------------
                                   SCF GRAD
                          Rob Parrish, Justin Turney,
                       Andy Simmonett, and Alex Sokolov
         ------------------------------------------------------------

  ==> Geometry <==

    Molecular point group: c2v
    Full point group: C_inf_v

    Geometry (in Angstrom), charge = -1, multiplicity = 5:

       Center              X                  Y                   Z               Mass
    ------------   -----------------  -----------------  -----------------  -----------------
         H            0.000000000000     0.000000000000     4.622247203774     1.007825032230
         BE           0.000000000000     0.000000000000    -0.516902109458     9.012183065000

  Nuclear repulsion =    0.411879226242764

  ==> Basis Set <==

  Basis Set: CC-PVDZ
    Blend: CC-PVDZ
    Number of shells: 9
    Number of basis functions: 19
    Number of Cartesian functions: 20
    Spherical Harmonics?: true
    Max angular momentum: 2

  ==> DFJKGrad: Density-Fitted SCF Gradients <==

    Gradient:                    1
    J tasked:                  Yes
    K tasked:                  Yes
    wK tasked:                  No
    OpenMP threads:              1
    Integrals threads:           1
    Memory [MiB]:              375
    Schwarz Cutoff:          1E-12
    Fitting Condition:       1E-10

   => Auxiliary Basis Set <=

  Basis Set: (CC-PVDZ AUX)
    Blend: CC-PVDZ-JKFIT + DEF2-UNIVERSAL-JKFIT
    Number of shells: 26
    Number of basis functions: 74
    Number of Cartesian functions: 85
    Spherical Harmonics?: true
    Max angular momentum: 3

  ==> DFT Potential <==

   => LibXC <=

    Version 6.2.2
    S. Lehtola, C. Steigemann, M. J.T. Oliveira, and M. A.L. Marques.,  SoftwareX 7, 1â€“5 (2018) (10.1016/j.softx.2017.11.002)

   => Composite Functional: B3LYP <=

    B3LYP Hyb-GGA Exchange-Correlation Functional

    P. J. Stephens, F. J. Devlin, C. F. Chabalowski, and M. J. Frisch.,  J. Phys. Chem. 98, 11623 (1994) (10.1021/j100096a001)

    Deriv               =              1
    GGA                 =           TRUE
    Meta                =          FALSE

    Exchange Hybrid     =           TRUE
    MP2 Hybrid          =          FALSE

   => Exchange Functionals <=

    0.0800   Slater exchange
    0.7200         Becke 88

   => Exact (HF) Exchange <=

    0.2000               HF

   => Correlation Functionals <=

    0.1900   Vosko, Wilk & Nusair (VWN5_RPA)
    0.8100   Lee, Yang & Parr

   => LibXC Density Thresholds  <==

    XC_HYB_GGA_XC_B3LYP:  1.00E-15

   => Molecular Quadrature <=

    Radial Scheme          =       TREUTLER
    Pruning Scheme         =           NONE
    Nuclear Scheme         =       TREUTLER

    Blocking Scheme        =         OCTREE
    BS radius alpha        =              1
    Pruning alpha          =              1
    Radial Points          =             75
    Spherical Points       =            302
    Total Points           =          43704
    Total Blocks           =            442
    Max Points             =            253
    Max Functions          =             19
    Weights Tolerance      =       1.00E-15

  -Total Gradient:
     Atom            X                  Y                   Z
    ------   -----------------  -----------------  -----------------
       1       -0.000000000000     0.000000000000    -0.000085589016
       2       -0.000000000000     0.000000000000     0.000083090731

*** tstop() called on Joses-MacBook-Pro-2.local at Thu Jul 17 09:10:56 2025
Module time:
	user time   =       0.30 seconds =       0.01 minutes
	system time =       0.75 seconds =       0.01 minutes
	total time  =          0 seconds =       0.00 minutes
Total time:
	user time   =      29.30 seconds =       0.49 minutes
	system time =     119.04 seconds =       1.98 minutes
	total time  =         15 seconds =       0.25 minutes

    			-----------------------------------------

    			 OPTKING 3.0: for geometry optimizations

    			     By R.A. King, Bethel University

    			        with contributions from

    			    A.V. Copan, J. Cayton, A. Heide

    			-----------------------------------------

	                            ===> Fragment 1 <==

	 Z (Atomic Numbers)          Masses                          Geom
	       1.000000             1.007825          0.00000000  0.00000000  8.73478130
	       4.000000             9.012183          0.00000000  0.00000000 -0.97680342

	 - Coordinate -           - BOHR/RAD -       - ANG/DEG -
	 R(1,2)           =         9.711585           5.139149

	        --- Internal Coordinate Step in ANG or DEG, aJ/ANG or AJ/DEG ---
	-------------------------------------------------------------------------------
	           Coordinate      Previous         Force          Change          New
	           ----------      --------        ------          ------        ------
	               R(1,2)       5.13915        0.00069        0.00304       5.14219
	-------------------------------------------------------------------------------

	                                 ==> Convergence Check <==

	Measures of convergence in internal coordinates in au.

	Criteria marked as inactive (o), active & met (*), and active & unmet ( ).

	----------------------------------------------------------------------------------------------
	   Step    Total Energy     Delta E     Max Force     RMS Force      Max Disp      RMS Disp
	----------------------------------------------------------------------------------------------
	  Convergence Criteria     1.00e-06 *    3.00e-04 *             o    1.20e-03 *             o
	----------------------------------------------------------------------------------------------
	    29     -15.07041987   -4.91e-07 *    8.43e-05 *    8.43e-05 o    5.75e-03      5.75e-03 o  ~
	----------------------------------------------------------------------------------------------

Next Geometry in Ang
	Fragment 1 (Ang)

	    H   0.0000000000   0.0000000000   4.6237692179
	   Be   0.0000000000   0.0000000000  -0.5184241236

    Final optimized geometry and variables:
    Molecular point group: c2v
    Full point group: C_inf_v

    Geometry (in Angstrom), charge = -1, multiplicity = 5:

    H            0.000000000000     0.000000000000     4.622247203774
    BE           0.000000000000     0.000000000000    -0.516902109458

    Psi4 stopped on: Thursday, 17 July 2025 09:10AM
    Psi4 wall time for execution: 0:00:15.56

*** Psi4 exiting successfully. Buy a developer a beer!
