                               Psi4 1.9.1 release

  ==> Input File <==

--------------------------------------------------------------------------
molecule {
-1 5
N   0.00000        0.60000        0.00000
O   0.00000       -0.60000        0.00000
}

set {
basis              cc-pvdz
reference          uks
maxiter            500
geom_maxiter       500
DAMPING_PERCENTAGE 1
guess              SAP
}

optimize('b3lyp')
--------------------------------------------------------------------------

    Molecular point group: c2v
  Charge       = -1
  Multiplicity = 5
  Basis Set: CC-PVDZ
    Blend: CC-PVDZ
  Basis Set: (CC-PVDZ AUX)
    Blend: CC-PVDZ-JKFIT
  @DF-UKS Final Energy:  -129.30112247118370
    Total Energy =                       -129.3011224711837031
 Dipole X            :          0.0000000            0.0000000            0.0000000
 Dipole Y            :          0.0000000            0.0000000            0.0000000
 Dipole Z            :         -0.3116721           -0.0045500           -0.3162221
 Magnitude           :                                                    0.3162221
    Molecular point group: c2v
  Basis Set: CC-PVDZ
    Blend: CC-PVDZ
  Basis Set: (CC-PVDZ AUX)
    Blend: CC-PVDZ-JKFIT
  Basis Set: CC-PVDZ
    Blend: CC-PVDZ
  Basis Set: (CC-PVDZ AUX)
    Blend: CC-PVDZ-JKFIT
  @DF-UKS Final Energy:  -129.49216998698691
    Total Energy =                       -129.4921699869869087
  Basis Set: CC-PVDZ
    Blend: CC-PVDZ
  Basis Set: (CC-PVDZ AUX)
    Blend: CC-PVDZ-JKFIT
  Basis Set: CC-PVDZ
    Blend: CC-PVDZ
  @DF-UKS Final Energy:  -129.62119143432383
    Total Energy =                       -129.6211914343238334
  @DF-UKS Final Energy:  -129.64640437089523
    Total Energy =                       -129.6464043708952261
  @DF-UKS Final Energy:  -129.66171814949388
    Total Energy =                       -129.6617181494938791
  @DF-UKS Final Energy:  -129.66811632727499
    Total Energy =                       -129.6681163272749870
  @DF-UKS Final Energy:  -129.67084455288821
    Total Energy =                       -129.6708445528882123
  @DF-UKS Final Energy:  -129.67188107722143
    Total Energy =                       -129.6718810772214283
  @DF-UKS Final Energy:  -129.67215787082887
    Total Energy =                       -129.6721578708288689
  @DF-UKS Final Energy:  -129.67227658547102
    Total Energy =                       -129.6722765854710246
  @DF-UKS Final Energy:  -129.67230496502319
    Total Energy =                       -129.6723049650231872
  @DF-UKS Final Energy:  -129.67231281572015
    Total Energy =                       -129.6723128157201472
  Basis Set: (CC-PVDZ AUX)
    Blend: CC-PVDZ-JKFIT
  Basis Set: CC-PVDZ
    Blend: CC-PVDZ
  Basis Set: (CC-PVDZ AUX)
    Blend: CC-PVDZ-JKFIT
  @DF-UKS Final Energy:  -129.67231571588783
    Total Energy =                       -129.6723157158878337
  Basis Set: CC-PVDZ
    Blend: CC-PVDZ
  Basis Set: (CC-PVDZ AUX)
    Blend: CC-PVDZ-JKFIT
  Charge       = -1
  Multiplicity = 5
  Basis Set: CC-PVDZ
    Blend: CC-PVDZ
  Basis Set: (CC-PVDZ AUX)
    Blend: CC-PVDZ-JKFIT

    Orbital Energies [Eh]
    ---------------------

    Alpha Occupied:

       1A1   -18.798298     2A1   -14.131604     3A1    -0.552866
       4A1    -0.507094     5A1    -0.070739     1B2    -0.053965
       1B1    -0.053965     6A1     0.005748     2B1     0.046422
       2B2     0.046422

    Alpha Virtual:

       3B2     0.918714     3B1     0.918714     7A1     0.926521
       8A1     1.009184     4B1     1.240147     4B2     1.240147
       9A1     1.288565    10A1     1.577171     5B2     1.969638
       5B1     1.969638     1A2     1.971418    11A1     1.971428
      12A1     2.016084    13A1     2.916613     6B1     2.916730
       6B2     2.916730    14A1     2.962485     2A2     2.962503

    Beta Occupied:

       1A1   -18.766890     2A1   -14.082331     3A1    -0.451651
       4A1    -0.334544     1B2     0.102812     1B1     0.102813

    Beta Virtual:

       5A1     0.167334     2B1     0.167916     2B2     0.167916
       6A1     0.262864     3B1     1.014274     3B2     1.014274
       7A1     1.036115     8A1     1.104664     4B2     1.276531
       4B1     1.276531     9A1     1.381095    10A1     1.646269
       1A2     2.094868    11A1     2.094880     5B1     2.103717
       5B2     2.103717    12A1     2.149547    13A1     3.000103
       2A2     3.000121     6B2     3.011705     6B1     3.011705
      14A1     3.039854

    Final Occupation by Irrep:
             A1    A2    B1    B2
    DOCC [     4,    0,    1,    1 ]
    SOCC [     2,    0,    1,    1 ]
    NA   [     6,    0,    2,    2 ]
    NB   [     4,    0,    1,    1 ]

  @DF-UKS Final Energy:  -129.67231623328598

   => Energetics <=

    Nuclear Repulsion Energy =             11.4648103100567802
    One-Electron Energy =                -205.7042593012825478
    Two-Electron Energy =                  77.1829298676052105
    DFT Exchange-Correlation Energy =     -12.6157971096654364
    Empirical Dispersion Energy =           0.0000000000000000
    VV10 Nonlocal Energy =                  0.0000000000000000
    Total Energy =                       -129.6723162332859829

  UHF NO Occupations:
  HONO-2 :    2 B1 1.0000000
  HONO-1 :    5 A1 1.0000000
  HONO-0 :    6 A1 1.0000000
  LUNO+0 :    3 B1 0.0010210
  LUNO+1 :    3 B2 0.0010210
  LUNO+2 :    7 A1 0.0008133
  LUNO+3 :    8 A1 0.0003845

Computation Completed

Properties will be evaluated at   0.000000,   0.000000,   0.000000 [a0]

Properties computed using the SCF density matrix

 Multipole Moments:

 ------------------------------------------------------------------------------------
     Multipole            Electronic (a.u.)      Nuclear  (a.u.)        Total (a.u.)
 ------------------------------------------------------------------------------------

 L = 1.  Multiply by 2.5417464519 to convert [e a0] to [Debye]
 Dipole X            :          0.0000000            0.0000000            0.0000000
 Dipole Y            :          0.0000000            0.0000000            0.0000000
 Dipole Z            :          0.6427500           -0.0098006            0.6329495
 Magnitude           :                                                    0.6329495

 ------------------------------------------------------------------------------------

*** tstop() called on Joses-MacBook-Pro-2.local at Thu Jul 17 10:26:37 2025
Module time:
	user time   =       3.17 seconds =       0.05 minutes
	system time =       3.58 seconds =       0.06 minutes
	total time  =          1 seconds =       0.02 minutes
Total time:
	user time   =      67.23 seconds =       1.12 minutes
	system time =      64.41 seconds =       1.07 minutes
	total time  =         13 seconds =       0.22 minutes

*** tstart() called on Joses-MacBook-Pro-2.local
*** at Thu Jul 17 10:26:37 2025

         ------------------------------------------------------------
                                   SCF GRAD
                          Rob Parrish, Justin Turney,
                       Andy Simmonett, and Alex Sokolov
         ------------------------------------------------------------

  ==> Geometry <==

    Molecular point group: c2v
    Full point group: C_inf_v

    Geometry (in Angstrom), charge = -1, multiplicity = 5:

       Center              X                  Y                   Z               Mass
    ------------   -----------------  -----------------  -----------------  -----------------
         N            0.000000000000     0.000000000000     1.378199462835    14.003074004430
         O            0.000000000000     0.000000000000    -1.206572809544    15.994914619570

  Nuclear repulsion =   11.464810310056780

  ==> Basis Set <==

  Basis Set: CC-PVDZ
    Blend: CC-PVDZ
    Number of shells: 12
    Number of basis functions: 28
    Number of Cartesian functions: 30
    Spherical Harmonics?: true
    Max angular momentum: 2

  ==> DFJKGrad: Density-Fitted SCF Gradients <==

    Gradient:                    1
    J tasked:                  Yes
    K tasked:                  Yes
    wK tasked:                  No
    OpenMP threads:              1
    Integrals threads:           1
    Memory [MiB]:              375
    Schwarz Cutoff:          1E-12
    Fitting Condition:       1E-10

   => Auxiliary Basis Set <=

  Basis Set: (CC-PVDZ AUX)
    Blend: CC-PVDZ-JKFIT
    Number of shells: 48
    Number of basis functions: 140
    Number of Cartesian functions: 162
    Spherical Harmonics?: true
    Max angular momentum: 3

  ==> DFT Potential <==

   => LibXC <=

    Version 6.2.2
    S. Lehtola, C. Steigemann, M. J.T. Oliveira, and M. A.L. Marques.,  SoftwareX 7, 1â€“5 (2018) (10.1016/j.softx.2017.11.002)

   => Composite Functional: B3LYP <=

    B3LYP Hyb-GGA Exchange-Correlation Functional

    P. J. Stephens, F. J. Devlin, C. F. Chabalowski, and M. J. Frisch.,  J. Phys. Chem. 98, 11623 (1994) (10.1021/j100096a001)

    Deriv               =              1
    GGA                 =           TRUE
    Meta                =          FALSE

    Exchange Hybrid     =           TRUE
    MP2 Hybrid          =          FALSE

   => Exchange Functionals <=

    0.0800   Slater exchange
    0.7200         Becke 88

   => Exact (HF) Exchange <=

    0.2000               HF

   => Correlation Functionals <=

    0.1900   Vosko, Wilk & Nusair (VWN5_RPA)
    0.8100   Lee, Yang & Parr

   => LibXC Density Thresholds  <==

    XC_HYB_GGA_XC_B3LYP:  1.00E-15

   => Molecular Quadrature <=

    Radial Scheme          =       TREUTLER
    Pruning Scheme         =           NONE
    Nuclear Scheme         =       TREUTLER

    Blocking Scheme        =         OCTREE
    BS radius alpha        =              1
    Pruning alpha          =              1
    Radial Points          =             75
    Spherical Points       =            302
    Total Points           =          42308
    Total Blocks           =            380
    Max Points             =            251
    Max Functions          =             28
    Weights Tolerance      =       1.00E-15

  -Total Gradient:
     Atom            X                  Y                   Z
    ------   -----------------  -----------------  -----------------
       1        0.000000000000    -0.000000000000    -0.000026407631
       2        0.000000000000     0.000000000000     0.000018213859

*** tstop() called on Joses-MacBook-Pro-2.local at Thu Jul 17 10:26:37 2025
Module time:
	user time   =       0.60 seconds =       0.01 minutes
	system time =       1.09 seconds =       0.02 minutes
	total time  =          0 seconds =       0.00 minutes
Total time:
	user time   =      67.83 seconds =       1.13 minutes
	system time =      65.50 seconds =       1.09 minutes
	total time  =         13 seconds =       0.22 minutes

    			-----------------------------------------

    			 OPTKING 3.0: for geometry optimizations

    			     By R.A. King, Bethel University

    			        with contributions from

    			    A.V. Copan, J. Cayton, A. Heide

    			-----------------------------------------

	                            ===> Fragment 1 <==

	 Z (Atomic Numbers)          Masses                          Geom
	       7.000000            14.003074          0.00000000  0.00000000  2.60441953
	       8.000000            15.994915          0.00000000  0.00000000 -2.28009216

	 - Coordinate -           - BOHR/RAD -       - ANG/DEG -
	 R(1,2)           =         4.884512           2.584772

	        --- Internal Coordinate Step in ANG or DEG, aJ/ANG or AJ/DEG ---
	-------------------------------------------------------------------------------
	           Coordinate      Previous         Force          Change          New
	           ----------      --------        ------          ------        ------
	               R(1,2)       2.58477        0.00018        0.00161       2.58638
	-------------------------------------------------------------------------------

	                                 ==> Convergence Check <==

	Measures of convergence in internal coordinates in au.

	Criteria marked as inactive (o), active & met (*), and active & unmet ( ).

	----------------------------------------------------------------------------------------------
	   Step    Total Energy     Delta E     Max Force     RMS Force      Max Disp      RMS Disp
	----------------------------------------------------------------------------------------------
	  Convergence Criteria     1.00e-06 *    3.00e-04 *             o    1.20e-03 *             o
	----------------------------------------------------------------------------------------------
	    14    -129.67231623   -5.17e-07 *    2.23e-05 *    2.23e-05 o    3.04e-03      3.04e-03 o  ~
	----------------------------------------------------------------------------------------------

Next Geometry in Ang
	Fragment 1 (Ang)

	    N   0.0000000000   0.0000000000   1.3790031354
	    O   0.0000000000   0.0000000000  -1.2073764821

    Final optimized geometry and variables:
    Molecular point group: c2v
    Full point group: C_inf_v

    Geometry (in Angstrom), charge = -1, multiplicity = 5:

    N            0.000000000000     0.000000000000     1.378199462835
    O            0.000000000000     0.000000000000    -1.206572809544

    Psi4 stopped on: Thursday, 17 July 2025 10:26AM
    Psi4 wall time for execution: 0:00:13.73

*** Psi4 exiting successfully. Buy a developer a beer!
