                               Psi4 1.9.1 release

  ==> Input File <==

--------------------------------------------------------------------------
molecule {
-1 5
N   0.00000        0.60000        0.00000
Ar   0.00000       -0.60000        0.00000
}

set {
basis              cc-pvdz
reference          uks
maxiter            500
geom_maxiter       500
DAMPING_PERCENTAGE 1
guess              SAP
}

optimize('b3lyp')
--------------------------------------------------------------------------

    Molecular point group: c2v
  Charge       = -1
  Multiplicity = 5
  Basis Set: CC-PVDZ
    Blend: CC-PVDZ
  Basis Set: (CC-PVDZ AUX)
    Blend: CC-PVDZ-JKFIT
  @DF-UKS Final Energy:  -580.86526659987373
    Total Energy =                       -580.8652665998737348
 Dipole X            :          0.0000000            0.0000000            0.0000000
 Dipole Y            :          0.0000000            0.0000000            0.0000000
 Dipole Z            :         -1.8431597            1.1631923           -0.6799674
 Magnitude           :                                                    0.6799674
    Molecular point group: c2v
  Basis Set: CC-PVDZ
    Blend: CC-PVDZ
  Basis Set: (CC-PVDZ AUX)
    Blend: CC-PVDZ-JKFIT
  Basis Set: CC-PVDZ
    Blend: CC-PVDZ
  Basis Set: (CC-PVDZ AUX)
    Blend: CC-PVDZ-JKFIT
  @DF-UKS Final Energy:  -581.01126351288326
    Total Energy =                       -581.0112635128833745
  Basis Set: CC-PVDZ
    Blend: CC-PVDZ
  Basis Set: (CC-PVDZ AUX)
    Blend: CC-PVDZ-JKFIT
  Basis Set: CC-PVDZ
    Blend: CC-PVDZ
  @DF-UKS Final Energy:  -581.15343079246963
    Total Energy =                       -581.1534307924696350
  @DF-UKS Final Energy:  -581.37449531127686
    Total Energy =                       -581.3744953112768599
  @DF-UKS Final Energy:  -581.40721791030683
    Total Energy =                       -581.4072179103067128
  @DF-UKS Final Energy:  -581.42112430495308
    Total Energy =                       -581.4211243049529685
  @DF-UKS Final Energy:  -581.42380426645764
    Total Energy =                       -581.4238042664576369
  @DF-UKS Final Energy:  -581.42452367518581
    Total Energy =                       -581.4245236751858101
  @DF-UKS Final Energy:  -581.42462506885056
    Total Energy =                       -581.4246250688506734
  @DF-UKS Final Energy:  -581.42464050021135
    Total Energy =                       -581.4246405002113534
  Basis Set: (CC-PVDZ AUX)
    Blend: CC-PVDZ-JKFIT
  Basis Set: CC-PVDZ
    Blend: CC-PVDZ
  Basis Set: (CC-PVDZ AUX)
    Blend: CC-PVDZ-JKFIT
  @DF-UKS Final Energy:  -581.42464321577097
    Total Energy =                       -581.4246432157709705
  Basis Set: CC-PVDZ
    Blend: CC-PVDZ
  Basis Set: (CC-PVDZ AUX)
    Blend: CC-PVDZ-JKFIT
  Charge       = -1
  Multiplicity = 5
  Basis Set: CC-PVDZ
    Blend: CC-PVDZ
  Basis Set: (CC-PVDZ AUX)
    Blend: CC-PVDZ-JKFIT

    Orbital Energies [Eh]
    ---------------------

    Alpha Occupied:

       1A1  -114.734059     2A1   -14.115645     3A1   -10.785561
       4A1    -8.336158     1B2    -8.334477     1B1    -8.334477
       5A1    -0.673893     6A1    -0.519597     7A1    -0.166445
       2B2    -0.136221     2B1    -0.136221     3B1    -0.060719
       3B2    -0.060719     8A1     0.014450     9A1     0.771670

    Alpha Virtual:

       4B2     0.829232     4B1     0.829232     5B2     0.929940
       5B1     0.929940    10A1     0.955709    11A1     1.032297
      12A1     1.071065    13A1     1.138877     1A2     1.138878
       6B2     1.176220     6B1     1.176220    14A1     1.433823
      15A1     1.947696     2A2     1.947703     7B1     1.979743
       7B2     1.979743    16A1     2.227368

    Beta Occupied:

       1A1  -114.725529     2A1   -14.059187     3A1   -10.777046
       1B2    -8.328422     1B1    -8.328422     4A1    -8.314553
       5A1    -0.638215     6A1    -0.344689     2B2    -0.112313
       2B1    -0.112313     7A1    -0.081185

    Beta Virtual:

       3B2     0.172932     3B1     0.172932     8A1     0.230290
       4B2     0.864057     4B1     0.864057     9A1     0.908290
       5B2     1.015908     5B1     1.015908    10A1     1.048678
      11A1     1.100042    12A1     1.126451    13A1     1.151804
       1A2     1.151806     6B2     1.211160     6B1     1.211160
      14A1     1.509856    15A1     2.092095     2A2     2.092110
       7B1     2.113944     7B2     2.113944    16A1     2.339544

    Final Occupation by Irrep:
             A1    A2    B1    B2
    DOCC [     7,    0,    2,    2 ]
    SOCC [     2,    0,    1,    1 ]
    NA   [     9,    0,    3,    3 ]
    NB   [     7,    0,    2,    2 ]

  @DF-UKS Final Energy:  -581.42464334212650

   => Energetics <=

    Nuclear Repulsion Energy =             31.4774934869497365
    One-Electron Energy =                -872.5279419276033650
    Two-Electron Energy =                 290.3298263326181541
    DFT Exchange-Correlation Energy =     -30.7040212340909378
    Empirical Dispersion Energy =           0.0000000000000000
    VV10 Nonlocal Energy =                  0.0000000000000000
    Total Energy =                       -581.4246433421265010

  UHF NO Occupations:
  HONO-2 :    3 B1 1.0000000
  HONO-1 :    8 A1 1.0000000
  HONO-0 :    9 A1 1.0000000
  LUNO+0 :   10 A1 0.0008917
  LUNO+1 :   11 A1 0.0005575
  LUNO+2 :    4 B2 0.0000932
  LUNO+3 :    4 B1 0.0000932

Computation Completed

Properties will be evaluated at   0.000000,   0.000000,   0.000000 [a0]

Properties computed using the SCF density matrix

 Multipole Moments:

 ------------------------------------------------------------------------------------
     Multipole            Electronic (a.u.)      Nuclear  (a.u.)        Total (a.u.)
 ------------------------------------------------------------------------------------

 L = 1.  Multiply by 2.5417464519 to convert [e a0] to [Debye]
 Dipole X            :          0.0000000            0.0000000            0.0000000
 Dipole Y            :          0.0000000            0.0000000            0.0000000
 Dipole Z            :         -1.6748627            2.0532499            0.3783871
 Magnitude           :                                                    0.3783871

 ------------------------------------------------------------------------------------

*** tstop() called on Joses-MacBook-Pro-2.local at Thu Jul 17 10:38:11 2025
Module time:
	user time   =       2.58 seconds =       0.04 minutes
	system time =       4.09 seconds =       0.07 minutes
	total time  =          0 seconds =       0.00 minutes
Total time:
	user time   =      60.23 seconds =       1.00 minutes
	system time =      71.66 seconds =       1.19 minutes
	total time  =         13 seconds =       0.22 minutes

*** tstart() called on Joses-MacBook-Pro-2.local
*** at Thu Jul 17 10:38:11 2025

         ------------------------------------------------------------
                                   SCF GRAD
                          Rob Parrish, Justin Turney,
                       Andy Simmonett, and Alex Sokolov
         ------------------------------------------------------------

  ==> Geometry <==

    Molecular point group: c2v
    Full point group: C_inf_v

    Geometry (in Angstrom), charge = -1, multiplicity = 5:

       Center              X                  Y                   Z               Mass
    ------------   -----------------  -----------------  -----------------  -----------------
         N            0.000000000000     0.000000000000     1.568581375230    14.003074004430
         AR           0.000000000000     0.000000000000    -0.549640921347    39.962383123700

  Nuclear repulsion =   31.477493486949736

  ==> Basis Set <==

  Basis Set: CC-PVDZ
    Blend: CC-PVDZ
    Number of shells: 14
    Number of basis functions: 32
    Number of Cartesian functions: 34
    Spherical Harmonics?: true
    Max angular momentum: 2

  ==> DFJKGrad: Density-Fitted SCF Gradients <==

    Gradient:                    1
    J tasked:                  Yes
    K tasked:                  Yes
    wK tasked:                  No
    OpenMP threads:              1
    Integrals threads:           1
    Memory [MiB]:              375
    Schwarz Cutoff:          1E-12
    Fitting Condition:       1E-10

   => Auxiliary Basis Set <=

  Basis Set: (CC-PVDZ AUX)
    Blend: CC-PVDZ-JKFIT
    Number of shells: 60
    Number of basis functions: 182
    Number of Cartesian functions: 211
    Spherical Harmonics?: true
    Max angular momentum: 3

  ==> DFT Potential <==

   => LibXC <=

    Version 6.2.2
    S. Lehtola, C. Steigemann, M. J.T. Oliveira, and M. A.L. Marques.,  SoftwareX 7, 1â€“5 (2018) (10.1016/j.softx.2017.11.002)

   => Composite Functional: B3LYP <=

    B3LYP Hyb-GGA Exchange-Correlation Functional

    P. J. Stephens, F. J. Devlin, C. F. Chabalowski, and M. J. Frisch.,  J. Phys. Chem. 98, 11623 (1994) (10.1021/j100096a001)

    Deriv               =              1
    GGA                 =           TRUE
    Meta                =          FALSE

    Exchange Hybrid     =           TRUE
    MP2 Hybrid          =          FALSE

   => Exchange Functionals <=

    0.0800   Slater exchange
    0.7200         Becke 88

   => Exact (HF) Exchange <=

    0.2000               HF

   => Correlation Functionals <=

    0.1900   Vosko, Wilk & Nusair (VWN5_RPA)
    0.8100   Lee, Yang & Parr

   => LibXC Density Thresholds  <==

    XC_HYB_GGA_XC_B3LYP:  1.00E-15

   => Molecular Quadrature <=

    Radial Scheme          =       TREUTLER
    Pruning Scheme         =           NONE
    Nuclear Scheme         =       TREUTLER

    Blocking Scheme        =         OCTREE
    BS radius alpha        =              1
    Pruning alpha          =              1
    Radial Points          =             75
    Spherical Points       =            302
    Total Points           =          40821
    Total Blocks           =            364
    Max Points             =            256
    Max Functions          =             32
    Weights Tolerance      =       1.00E-15

  -Total Gradient:
     Atom            X                  Y                   Z
    ------   -----------------  -----------------  -----------------
       1        0.000000000000     0.000000000000    -0.000024738919
       2        0.000000000000    -0.000000000000     0.000021112035

*** tstop() called on Joses-MacBook-Pro-2.local at Thu Jul 17 10:38:11 2025
Module time:
	user time   =       0.69 seconds =       0.01 minutes
	system time =       1.58 seconds =       0.03 minutes
	total time  =          0 seconds =       0.00 minutes
Total time:
	user time   =      60.93 seconds =       1.02 minutes
	system time =      73.24 seconds =       1.22 minutes
	total time  =         13 seconds =       0.22 minutes

    			-----------------------------------------

    			 OPTKING 3.0: for geometry optimizations

    			     By R.A. King, Bethel University

    			        with contributions from

    			    A.V. Copan, J. Cayton, A. Heide

    			-----------------------------------------

	                            ===> Fragment 1 <==

	 Z (Atomic Numbers)          Masses                          Geom
	       7.000000            14.003074          0.00000000  0.00000000  2.96418920
	      18.000000            39.962383          0.00000000  0.00000000 -1.03867081

	 - Coordinate -           - BOHR/RAD -       - ANG/DEG -
	 R(1,2)           =         4.002860           2.118222

	        --- Internal Coordinate Step in ANG or DEG, aJ/ANG or AJ/DEG ---
	-------------------------------------------------------------------------------
	           Coordinate      Previous         Force          Change          New
	           ----------      --------        ------          ------        ------
	               R(1,2)       2.11822        0.00019        0.00010       2.11832
	-------------------------------------------------------------------------------

	                                 ==> Convergence Check <==

	Measures of convergence in internal coordinates in au.

	Criteria marked as inactive (o), active & met (*), and active & unmet ( ).

	----------------------------------------------------------------------------------------------
	   Step    Total Energy     Delta E     Max Force     RMS Force      Max Disp      RMS Disp
	----------------------------------------------------------------------------------------------
	  Convergence Criteria     1.00e-06 *    3.00e-04 *             o    1.20e-03 *             o
	----------------------------------------------------------------------------------------------
	    12    -581.42464334   -1.26e-07 *    2.29e-05 *    2.29e-05 o    1.80e-04 *    1.80e-04 o  ~
	----------------------------------------------------------------------------------------------

Next Geometry in Ang
	Fragment 1 (Ang)

	    N   0.0000000000   0.0000000000   1.5686289707
	   Ar   0.0000000000   0.0000000000  -0.5496885168

    Final optimized geometry and variables:
    Molecular point group: c2v
    Full point group: C_inf_v

    Geometry (in Angstrom), charge = -1, multiplicity = 5:

    N            0.000000000000     0.000000000000     1.568581375230
    AR           0.000000000000     0.000000000000    -0.549640921347

    Psi4 stopped on: Thursday, 17 July 2025 10:38AM
    Psi4 wall time for execution: 0:00:14.41

*** Psi4 exiting successfully. Buy a developer a beer!
