                               Psi4 1.9.1 release

  ==> Input File <==

--------------------------------------------------------------------------
molecule {
-1 5
P   0.00000        0.60000        0.00000
S   0.00000       -0.60000        0.00000
}

set {
basis              cc-pvdz
reference          uks
maxiter            500
geom_maxiter       500
DAMPING_PERCENTAGE 1
guess              SAP
}

optimize('b3lyp')
--------------------------------------------------------------------------

    Molecular point group: c2v
  Charge       = -1
  Multiplicity = 5
  Basis Set: CC-PVDZ
    Blend: CC-PVDZ
  Basis Set: (CC-PVDZ AUX)
    Blend: CC-PVDZ-JKFIT
  @DF-UKS Final Energy:  -738.02003523955125
    Total Energy =                       -738.0200352395512482
 Dipole X            :          0.0000000            0.0000000            0.0000000
 Dipole Y            :          0.0000000            0.0000000            0.0000000
 Dipole Z            :         -0.2339533           -0.5763806           -0.8103339
 Magnitude           :                                                    0.8103339
    Molecular point group: c2v
  Basis Set: CC-PVDZ
    Blend: CC-PVDZ
  Basis Set: (CC-PVDZ AUX)
    Blend: CC-PVDZ-JKFIT
  Basis Set: CC-PVDZ
    Blend: CC-PVDZ
  Basis Set: (CC-PVDZ AUX)
    Blend: CC-PVDZ-JKFIT
  @DF-UKS Final Energy:  -738.05946531474513
    Total Energy =                       -738.0594653147450117
  Basis Set: CC-PVDZ
    Blend: CC-PVDZ
  Basis Set: (CC-PVDZ AUX)
    Blend: CC-PVDZ-JKFIT
  Basis Set: CC-PVDZ
    Blend: CC-PVDZ
  @DF-UKS Final Energy:  -738.13307130326086
    Total Energy =                       -738.1330713032607491
  @DF-UKS Final Energy:  -738.37607352043131
    Total Energy =                       -738.3760735204313050
  @DF-UKS Final Energy:  -738.92770616346547
    Total Energy =                       -738.9277061634653592
  @DF-UKS Final Energy:  -739.11631805683942
    Total Energy =                       -739.1163180568394182
  @DF-UKS Final Energy:  -739.24404273894584
    Total Energy =                       -739.2440427389457227
  @DF-UKS Final Energy:  -739.32876642666952
    Total Energy =                       -739.3287664266695174
  @DF-UKS Final Energy:  -739.38689319343166
    Total Energy =                       -739.3868931934315469
  @DF-UKS Final Energy:  -739.42461167684394
    Total Energy =                       -739.4246116768439379
  @DF-UKS Final Energy:  -739.44677998260192
    Total Energy =                       -739.4467799826020382
  @DF-UKS Final Energy:  -739.45807495866472
    Total Energy =                       -739.4580749586647244
  @DF-UKS Final Energy:  -739.46335030089313
    Total Energy =                       -739.4633503008931257
  @DF-UKS Final Energy:  -739.46564879151765
    Total Energy =                       -739.4656487915176513
  @DF-UKS Final Energy:  -739.46658148075221
    Total Energy =                       -739.4665814807522111
  @DF-UKS Final Energy:  -739.46692569863171
    Total Energy =                       -739.4669256986317123
  @DF-UKS Final Energy:  -739.46703316493688
    Total Energy =                       -739.4670331649368791
  @DF-UKS Final Energy:  -739.46705505689260
    Total Energy =                       -739.4670550568926046
  Basis Set: (CC-PVDZ AUX)
    Blend: CC-PVDZ-JKFIT
  Basis Set: CC-PVDZ
    Blend: CC-PVDZ
  Basis Set: (CC-PVDZ AUX)
    Blend: CC-PVDZ-JKFIT
  @DF-UKS Final Energy:  -739.46706158726124
    Total Energy =                       -739.4670615872612416
  Basis Set: CC-PVDZ
    Blend: CC-PVDZ
  Basis Set: (CC-PVDZ AUX)
    Blend: CC-PVDZ-JKFIT
  Charge       = -1
  Multiplicity = 5
  Basis Set: CC-PVDZ
    Blend: CC-PVDZ
  Basis Set: (CC-PVDZ AUX)
    Blend: CC-PVDZ-JKFIT

    Orbital Energies [Eh]
    ---------------------

    Alpha Occupied:

       1A1   -88.616506     2A1   -76.920565     3A1    -7.673626
       4A1    -6.388109     5A1    -5.645479     1B2    -5.630431
       1B1    -5.630431     6A1    -4.552385     2B1    -4.550675
       2B2    -4.550675     7A1    -0.412835     8A1    -0.400280
       9A1    -0.080215     3B1    -0.068325     3B2    -0.068325
      10A1    -0.031850     4B2    -0.007076     4B1    -0.007076

    Alpha Virtual:

      11A1     0.500070    12A1     0.568768     5B1     0.575108
       5B2     0.575108    13A1     0.608182     6B1     0.622349
       6B2     0.622349     1A2     0.626159    14A1     0.626168
      15A1     0.709433     7B2     0.743009     7B1     0.743009
      16A1     0.806002     8B2     0.843205     8B1     0.843205
       2A2     0.873486    17A1     0.873492    18A1     0.909176

    Beta Occupied:

       1A1   -88.610017     2A1   -76.909788     3A1    -7.666992
       4A1    -6.376692     5A1    -5.628013     1B2    -5.624375
       1B1    -5.624375     6A1    -4.534432     2B1    -4.534407
       2B2    -4.534407     7A1    -0.354442     8A1    -0.297094
       3B1     0.020427     3B2     0.020427

    Beta Virtual:

       9A1     0.059250     4B2     0.063280     4B1     0.063280
      10A1     0.112579    11A1     0.541695    12A1     0.618492
       5B2     0.619604     5B1     0.619604    13A1     0.694044
       6B2     0.708050     6B1     0.708050     1A2     0.708586
      14A1     0.708596    15A1     0.743524     7B1     0.760949
       7B2     0.760949    16A1     0.866975     2A2     0.894296
      17A1     0.894302     8B1     0.901011     8B2     0.901011
      18A1     0.963029

    Final Occupation by Irrep:
             A1    A2    B1    B2
    DOCC [     8,    0,    3,    3 ]
    SOCC [     2,    0,    1,    1 ]
    NA   [    10,    0,    4,    4 ]
    NB   [     8,    0,    3,    3 ]

  @DF-UKS Final Energy:  -739.46706244394250

   => Energetics <=

    Nuclear Repulsion Energy =             34.6168546618482651
    One-Electron Energy =               -1098.1459436956911304
    Two-Electron Energy =                 363.5984216561001858
    DFT Exchange-Correlation Energy =     -39.5363950661997876
    Empirical Dispersion Energy =           0.0000000000000000
    VV10 Nonlocal Energy =                  0.0000000000000000
    Total Energy =                       -739.4670624439424955

  UHF NO Occupations:
  HONO-2 :    4 B1 1.0000000
  HONO-1 :    4 B2 1.0000000
  HONO-0 :   10 A1 1.0000000
  LUNO+0 :   11 A1 0.0007032
  LUNO+1 :    5 B2 0.0003817
  LUNO+2 :    5 B1 0.0003817
  LUNO+3 :   12 A1 0.0000995

Computation Completed

Properties will be evaluated at   0.000000,   0.000000,   0.000000 [a0]

Properties computed using the SCF density matrix

 Multipole Moments:

 ------------------------------------------------------------------------------------
     Multipole            Electronic (a.u.)      Nuclear  (a.u.)        Total (a.u.)
 ------------------------------------------------------------------------------------

 L = 1.  Multiply by 2.5417464519 to convert [e a0] to [Debye]
 Dipole X            :          0.0000000            0.0000000            0.0000000
 Dipole Y            :          0.0000000            0.0000000            0.0000000
 Dipole Z            :          3.0647945           -1.7621905            1.3026040
 Magnitude           :                                                    1.3026040

 ------------------------------------------------------------------------------------

*** tstop() called on Joses-MacBook-Pro-2.local at Thu Jul 17 12:01:49 2025
Module time:
	user time   =      11.32 seconds =       0.19 minutes
	system time =       1.24 seconds =       0.02 minutes
	total time  =          1 seconds =       0.02 minutes
Total time:
	user time   =     245.26 seconds =       4.09 minutes
	system time =      51.88 seconds =       0.86 minutes
	total time  =         28 seconds =       0.47 minutes

*** tstart() called on Joses-MacBook-Pro-2.local
*** at Thu Jul 17 12:01:49 2025

         ------------------------------------------------------------
                                   SCF GRAD
                          Rob Parrish, Justin Turney,
                       Andy Simmonett, and Alex Sokolov
         ------------------------------------------------------------

  ==> Geometry <==

    Molecular point group: c2v
    Full point group: C_inf_v

    Geometry (in Angstrom), charge = -1, multiplicity = 5:

       Center              X                  Y                   Z               Mass
    ------------   -----------------  -----------------  -----------------  -----------------
         P            0.000000000000     0.000000000000     1.863496384526    30.973761998420
         S            0.000000000000     0.000000000000    -1.805309802558    31.972071174400

  Nuclear repulsion =   34.616854661848265

  ==> Basis Set <==

  Basis Set: CC-PVDZ
    Blend: CC-PVDZ
    Number of shells: 16
    Number of basis functions: 36
    Number of Cartesian functions: 38
    Spherical Harmonics?: true
    Max angular momentum: 2

  ==> DFJKGrad: Density-Fitted SCF Gradients <==

    Gradient:                    1
    J tasked:                  Yes
    K tasked:                  Yes
    wK tasked:                  No
    OpenMP threads:              1
    Integrals threads:           1
    Memory [MiB]:              375
    Schwarz Cutoff:          1E-12
    Fitting Condition:       1E-10

   => Auxiliary Basis Set <=

  Basis Set: (CC-PVDZ AUX)
    Blend: CC-PVDZ-JKFIT
    Number of shells: 72
    Number of basis functions: 224
    Number of Cartesian functions: 260
    Spherical Harmonics?: true
    Max angular momentum: 3

  ==> DFT Potential <==

   => LibXC <=

    Version 6.2.2
    S. Lehtola, C. Steigemann, M. J.T. Oliveira, and M. A.L. Marques.,  SoftwareX 7, 1â€“5 (2018) (10.1016/j.softx.2017.11.002)

   => Composite Functional: B3LYP <=

    B3LYP Hyb-GGA Exchange-Correlation Functional

    P. J. Stephens, F. J. Devlin, C. F. Chabalowski, and M. J. Frisch.,  J. Phys. Chem. 98, 11623 (1994) (10.1021/j100096a001)

    Deriv               =              1
    GGA                 =           TRUE
    Meta                =          FALSE

    Exchange Hybrid     =           TRUE
    MP2 Hybrid          =          FALSE

   => Exchange Functionals <=

    0.0800   Slater exchange
    0.7200         Becke 88

   => Exact (HF) Exchange <=

    0.2000               HF

   => Correlation Functionals <=

    0.1900   Vosko, Wilk & Nusair (VWN5_RPA)
    0.8100   Lee, Yang & Parr

   => LibXC Density Thresholds  <==

    XC_HYB_GGA_XC_B3LYP:  1.00E-15

   => Molecular Quadrature <=

    Radial Scheme          =       TREUTLER
    Pruning Scheme         =           NONE
    Nuclear Scheme         =       TREUTLER

    Blocking Scheme        =         OCTREE
    BS radius alpha        =              1
    Pruning alpha          =              1
    Radial Points          =             75
    Spherical Points       =            302
    Total Points           =          40972
    Total Blocks           =            384
    Max Points             =            247
    Max Functions          =             36
    Weights Tolerance      =       1.00E-15

  -Total Gradient:
     Atom            X                  Y                   Z
    ------   -----------------  -----------------  -----------------
       1        0.000000000000     0.000000000000    -0.000021174212
       2        0.000000000000    -0.000000000000     0.000025499121

*** tstop() called on Joses-MacBook-Pro-2.local at Thu Jul 17 12:01:49 2025
Module time:
	user time   =       2.39 seconds =       0.04 minutes
	system time =       0.81 seconds =       0.01 minutes
	total time  =          0 seconds =       0.00 minutes
Total time:
	user time   =     247.65 seconds =       4.13 minutes
	system time =      52.69 seconds =       0.88 minutes
	total time  =         28 seconds =       0.47 minutes

    			-----------------------------------------

    			 OPTKING 3.0: for geometry optimizations

    			     By R.A. King, Bethel University

    			        with contributions from

    			    A.V. Copan, J. Cayton, A. Heide

    			-----------------------------------------

	                            ===> Fragment 1 <==

	 Z (Atomic Numbers)          Masses                          Geom
	      15.000000            30.973762          0.00000000  0.00000000  3.52149780
	      16.000000            31.972071          0.00000000  0.00000000 -3.41154110

	 - Coordinate -           - BOHR/RAD -       - ANG/DEG -
	 R(1,2)           =         6.933039           3.668806

	        --- Internal Coordinate Step in ANG or DEG, aJ/ANG or AJ/DEG ---
	-------------------------------------------------------------------------------
	           Coordinate      Previous         Force          Change          New
	           ----------      --------        ------          ------        ------
	               R(1,2)       3.66881        0.00019        0.00494       3.67375
	-------------------------------------------------------------------------------

	                                 ==> Convergence Check <==

	Measures of convergence in internal coordinates in au.

	Criteria marked as inactive (o), active & met (*), and active & unmet ( ).

	----------------------------------------------------------------------------------------------
	   Step    Total Energy     Delta E     Max Force     RMS Force      Max Disp      RMS Disp
	----------------------------------------------------------------------------------------------
	  Convergence Criteria     1.00e-06 *    3.00e-04 *             o    1.20e-03 *             o
	----------------------------------------------------------------------------------------------
	    20    -739.46706244   -8.57e-07 *    2.33e-05 *    2.33e-05 o    9.34e-03      9.34e-03 o  ~
	----------------------------------------------------------------------------------------------

Next Geometry in Ang
	Fragment 1 (Ang)

	    P   0.0000000000   0.0000000000   1.8659673028
	    S   0.0000000000   0.0000000000  -1.8077807208

    Final optimized geometry and variables:
    Molecular point group: c2v
    Full point group: C_inf_v

    Geometry (in Angstrom), charge = -1, multiplicity = 5:

    P            0.000000000000     0.000000000000     1.863496384526
    S            0.000000000000     0.000000000000    -1.805309802558

    Psi4 stopped on: Thursday, 17 July 2025 12:01PM
    Psi4 wall time for execution: 0:00:28.81

*** Psi4 exiting successfully. Buy a developer a beer!
