                               Psi4 1.9.1 release

  ==> Input File <==

--------------------------------------------------------------------------
molecule {
-1 5
S   0.00000        0.60000        0.00000
Cl   0.00000       -0.60000        0.00000
}

set {
basis              cc-pvdz
reference          uks
maxiter            500
geom_maxiter       500
DAMPING_PERCENTAGE 1
guess              SAP
}

optimize('b3lyp')
--------------------------------------------------------------------------

    Molecular point group: c2v
  Charge       = -1
  Multiplicity = 5
  Basis Set: CC-PVDZ
    Blend: CC-PVDZ
  Basis Set: (CC-PVDZ AUX)
    Blend: CC-PVDZ-JKFIT
  @DF-UKS Final Energy:  -856.59430858515668
    Total Energy =                       -856.5943085851566821
 Dipole X            :          0.0000000            0.0000000            0.0000000
 Dipole Y            :          0.0000000            0.0000000            0.0000000
 Dipole Z            :         -0.6714815            0.5412130           -0.1302685
 Magnitude           :                                                    0.1302685
    Molecular point group: c2v
  Basis Set: CC-PVDZ
    Blend: CC-PVDZ
  Basis Set: (CC-PVDZ AUX)
    Blend: CC-PVDZ-JKFIT
  Basis Set: CC-PVDZ
    Blend: CC-PVDZ
  Basis Set: (CC-PVDZ AUX)
    Blend: CC-PVDZ-JKFIT
  @DF-UKS Final Energy:  -856.64124750081487
    Total Energy =                       -856.6412475008148704
  Basis Set: CC-PVDZ
    Blend: CC-PVDZ
  Basis Set: (CC-PVDZ AUX)
    Blend: CC-PVDZ-JKFIT
  Basis Set: CC-PVDZ
    Blend: CC-PVDZ
  @DF-UKS Final Energy:  -856.72727931095415
    Total Energy =                       -856.7272793109541453
  @DF-UKS Final Energy:  -856.99877036144881
    Total Energy =                       -856.9987703614488055
  @DF-UKS Final Energy:  -857.49114190197531
    Total Energy =                       -857.4911419019754248
  @DF-UKS Final Energy:  -857.66092577073255
    Total Energy =                       -857.6609257707325469
  @DF-UKS Final Energy:  -857.76813970959586
    Total Energy =                       -857.7681397095958573
  @DF-UKS Final Energy:  -857.81101942567932
    Total Energy =                       -857.8110194256793193
  @DF-UKS Final Energy:  -857.83050267336512
    Total Energy =                       -857.8305026733651175
  @DF-UKS Final Energy:  -857.83781230659486
    Total Energy =                       -857.8378123065947420
  @DF-UKS Final Energy:  -857.83942618777485
    Total Energy =                       -857.8394261877748477
  @DF-UKS Final Energy:  -857.83993467030325
    Total Energy =                       -857.8399346703032506
  @DF-UKS Final Energy:  -857.84003571552535
    Total Energy =                       -857.8400357155253459
  @DF-UKS Final Energy:  -857.84006185878513
    Total Energy =                       -857.8400618587851341
  Basis Set: (CC-PVDZ AUX)
    Blend: CC-PVDZ-JKFIT
  Basis Set: CC-PVDZ
    Blend: CC-PVDZ
  Basis Set: (CC-PVDZ AUX)
    Blend: CC-PVDZ-JKFIT
  @DF-UKS Final Energy:  -857.84006578623621
    Total Energy =                       -857.8400657862362095
  Basis Set: CC-PVDZ
    Blend: CC-PVDZ
  Basis Set: (CC-PVDZ AUX)
    Blend: CC-PVDZ-JKFIT
  Charge       = -1
  Multiplicity = 5
  Basis Set: CC-PVDZ
    Blend: CC-PVDZ
  Basis Set: (CC-PVDZ AUX)
    Blend: CC-PVDZ-JKFIT

    Orbital Energies [Eh]
    ---------------------

    Alpha Occupied:

       1A1  -101.292682     2A1   -88.644496     3A1    -9.198044
       4A1    -7.702274     5A1    -6.956854     1B1    -6.956117
       1B2    -6.956117     2B2    -5.668371     2B1    -5.668371
       6A1    -5.659376     7A1    -0.602102     8A1    -0.433617
       9A1    -0.167056     3B2    -0.125330     3B1    -0.125330
       4B2    -0.024041     4B1    -0.024041    10A1     0.126714
      11A1     0.547580

    Alpha Virtual:

      12A1     0.675014     5B1     0.699818     5B2     0.699818
      13A1     0.725641     6B1     0.742059     6B2     0.742059
       1A2     0.789622    14A1     0.789624     7B1     0.804671
       7B2     0.804671    15A1     0.981108     2A2     0.984073
      16A1     0.984075    17A1     1.044999     8B1     1.150167
       8B2     1.150167    18A1     1.544197

    Beta Occupied:

       1A1  -101.286901     2A1   -88.629883     3A1    -9.191898
       4A1    -7.687068     1B1    -6.948463     1B2    -6.948463
       5A1    -6.947297     2B2    -5.647655     2B1    -5.647655
       6A1    -5.636030     7A1    -0.543527     8A1    -0.336353
       9A1    -0.093875     3B2    -0.068609     3B1    -0.068609

    Beta Virtual:

       4B2     0.108605     4B1     0.108605    10A1     0.261823
      11A1     0.689120    12A1     0.722115     5B1     0.753081
       5B2     0.753081    13A1     0.761713     6B1     0.799044
       6B2     0.799044     7B1     0.832424     7B2     0.832424
       1A2     0.886192    14A1     0.886193     2A2     1.023370
      15A1     1.023371    16A1     1.034604    17A1     1.102450
       8B1     1.199269     8B2     1.199269    18A1     1.605506

    Final Occupation by Irrep:
             A1    A2    B1    B2
    DOCC [     9,    0,    3,    3 ]
    SOCC [     2,    0,    1,    1 ]
    NA   [    11,    0,    4,    4 ]
    NB   [     9,    0,    3,    3 ]

  @DF-UKS Final Energy:  -857.84006601922965

   => Energetics <=

    Nuclear Repulsion Energy =             71.8567667423534999
    One-Electron Energy =               -1337.1175511537257989
    Two-Electron Energy =                 451.1306656427900066
    DFT Exchange-Correlation Energy =     -43.7099472506474171
    Empirical Dispersion Energy =           0.0000000000000000
    VV10 Nonlocal Energy =                  0.0000000000000000
    Total Energy =                       -857.8400660192296527

  UHF NO Occupations:
  HONO-2 :    4 B1 1.0000000
  HONO-1 :   11 A1 1.0000000
  HONO-0 :    4 B2 1.0000000
  LUNO+0 :   12 A1 0.0003657
  LUNO+1 :    5 B2 0.0003298
  LUNO+2 :    5 B1 0.0003298
  LUNO+3 :   13 A1 0.0000254

Computation Completed

Properties will be evaluated at   0.000000,   0.000000,   0.000000 [a0]

Properties computed using the SCF density matrix

 Multipole Moments:

 ------------------------------------------------------------------------------------
     Multipole            Electronic (a.u.)      Nuclear  (a.u.)        Total (a.u.)
 ------------------------------------------------------------------------------------

 L = 1.  Multiply by 2.5417464519 to convert [e a0] to [Debye]
 Dipole X            :          0.0000000            0.0000000            0.0000000
 Dipole Y            :          0.0000000            0.0000000            0.0000000
 Dipole Z            :         -1.1594984            0.9034193           -0.2560791
 Magnitude           :                                                    0.2560791

 ------------------------------------------------------------------------------------

*** tstop() called on Joses-MacBook-Pro-2.local at Thu Jul 17 12:07:20 2025
Module time:
	user time   =       8.09 seconds =       0.13 minutes
	system time =       1.68 seconds =       0.03 minutes
	total time  =          1 seconds =       0.02 minutes
Total time:
	user time   =     193.19 seconds =       3.22 minutes
	system time =      44.69 seconds =       0.74 minutes
	total time  =         23 seconds =       0.38 minutes

*** tstart() called on Joses-MacBook-Pro-2.local
*** at Thu Jul 17 12:07:20 2025

         ------------------------------------------------------------
                                   SCF GRAD
                          Rob Parrish, Justin Turney,
                       Andy Simmonett, and Alex Sokolov
         ------------------------------------------------------------

  ==> Geometry <==

    Molecular point group: c2v
    Full point group: C_inf_v

    Geometry (in Angstrom), charge = -1, multiplicity = 5:

       Center              X                  Y                   Z               Mass
    ------------   -----------------  -----------------  -----------------  -----------------
         S            0.000000000000     0.000000000000     1.046386304066    31.972071174400
         CL           0.000000000000     0.000000000000    -0.956712469058    34.968852682000

  Nuclear repulsion =   71.856766742353500

  ==> Basis Set <==

  Basis Set: CC-PVDZ
    Blend: CC-PVDZ
    Number of shells: 16
    Number of basis functions: 36
    Number of Cartesian functions: 38
    Spherical Harmonics?: true
    Max angular momentum: 2

  ==> DFJKGrad: Density-Fitted SCF Gradients <==

    Gradient:                    1
    J tasked:                  Yes
    K tasked:                  Yes
    wK tasked:                  No
    OpenMP threads:              1
    Integrals threads:           1
    Memory [MiB]:              375
    Schwarz Cutoff:          1E-12
    Fitting Condition:       1E-10

   => Auxiliary Basis Set <=

  Basis Set: (CC-PVDZ AUX)
    Blend: CC-PVDZ-JKFIT
    Number of shells: 72
    Number of basis functions: 224
    Number of Cartesian functions: 260
    Spherical Harmonics?: true
    Max angular momentum: 3

  ==> DFT Potential <==

   => LibXC <=

    Version 6.2.2
    S. Lehtola, C. Steigemann, M. J.T. Oliveira, and M. A.L. Marques.,  SoftwareX 7, 1â€“5 (2018) (10.1016/j.softx.2017.11.002)

   => Composite Functional: B3LYP <=

    B3LYP Hyb-GGA Exchange-Correlation Functional

    P. J. Stephens, F. J. Devlin, C. F. Chabalowski, and M. J. Frisch.,  J. Phys. Chem. 98, 11623 (1994) (10.1021/j100096a001)

    Deriv               =              1
    GGA                 =           TRUE
    Meta                =          FALSE

    Exchange Hybrid     =           TRUE
    MP2 Hybrid          =          FALSE

   => Exchange Functionals <=

    0.0800   Slater exchange
    0.7200         Becke 88

   => Exact (HF) Exchange <=

    0.2000               HF

   => Correlation Functionals <=

    0.1900   Vosko, Wilk & Nusair (VWN5_RPA)
    0.8100   Lee, Yang & Parr

   => LibXC Density Thresholds  <==

    XC_HYB_GGA_XC_B3LYP:  1.00E-15

   => Molecular Quadrature <=

    Radial Scheme          =       TREUTLER
    Pruning Scheme         =           NONE
    Nuclear Scheme         =       TREUTLER

    Blocking Scheme        =         OCTREE
    BS radius alpha        =              1
    Pruning alpha          =              1
    Radial Points          =             75
    Spherical Points       =            302
    Total Points           =          40222
    Total Blocks           =            360
    Max Points             =            255
    Max Functions          =             36
    Weights Tolerance      =       1.00E-15

  -Total Gradient:
     Atom            X                  Y                   Z
    ------   -----------------  -----------------  -----------------
       1        0.000000000000     0.000000000000    -0.000042954753
       2        0.000000000000     0.000000000000     0.000057745391

*** tstop() called on Joses-MacBook-Pro-2.local at Thu Jul 17 12:07:20 2025
Module time:
	user time   =       2.27 seconds =       0.04 minutes
	system time =       1.02 seconds =       0.02 minutes
	total time  =          0 seconds =       0.00 minutes
Total time:
	user time   =     195.46 seconds =       3.26 minutes
	system time =      45.71 seconds =       0.76 minutes
	total time  =         23 seconds =       0.38 minutes

    			-----------------------------------------

    			 OPTKING 3.0: for geometry optimizations

    			     By R.A. King, Bethel University

    			        with contributions from

    			    A.V. Copan, J. Cayton, A. Heide

    			-----------------------------------------

	                            ===> Fragment 1 <==

	 Z (Atomic Numbers)          Masses                          Geom
	      16.000000            31.972071          0.00000000  0.00000000  1.97738354
	      17.000000            34.968853          0.00000000  0.00000000 -1.80792455

	 - Coordinate -           - BOHR/RAD -       - ANG/DEG -
	 R(1,2)           =         3.785308           2.003099

	        --- Internal Coordinate Step in ANG or DEG, aJ/ANG or AJ/DEG ---
	-------------------------------------------------------------------------------
	           Coordinate      Previous         Force          Change          New
	           ----------      --------        ------          ------        ------
	               R(1,2)       2.00310        0.00041        0.00013       2.00322
	-------------------------------------------------------------------------------

	                                 ==> Convergence Check <==

	Measures of convergence in internal coordinates in au.

	Criteria marked as inactive (o), active & met (*), and active & unmet ( ).

	----------------------------------------------------------------------------------------------
	   Step    Total Energy     Delta E     Max Force     RMS Force      Max Disp      RMS Disp
	----------------------------------------------------------------------------------------------
	  Convergence Criteria     1.00e-06 *    3.00e-04 *             o    1.20e-03 *             o
	----------------------------------------------------------------------------------------------
	    16    -857.84006602   -2.33e-07 *    5.04e-05 *    5.04e-05 o    2.37e-04 *    2.37e-04 o  ~
	----------------------------------------------------------------------------------------------

Next Geometry in Ang
	Fragment 1 (Ang)

	    S   0.0000000000   0.0000000000   1.0464489364
	   Cl   0.0000000000   0.0000000000  -0.9567751014

    Final optimized geometry and variables:
    Molecular point group: c2v
    Full point group: C_inf_v

    Geometry (in Angstrom), charge = -1, multiplicity = 5:

    S            0.000000000000     0.000000000000     1.046386304066
    CL           0.000000000000     0.000000000000    -0.956712469058

    Psi4 stopped on: Thursday, 17 July 2025 12:07PM
    Psi4 wall time for execution: 0:00:23.31

*** Psi4 exiting successfully. Buy a developer a beer!
