                               Psi4 1.9.1 release

  ==> Input File <==

--------------------------------------------------------------------------
molecule {
-1 5
Li   0.00000        0.60000        0.00000
Ne   0.00000       -0.60000        0.00000
}

set {
basis              cc-pvdz
reference          uks
maxiter            500
geom_maxiter       500
DAMPING_PERCENTAGE 1
guess              SAP
}

optimize('b3lyp')
--------------------------------------------------------------------------

    Molecular point group: c2v
  Charge       = -1
  Multiplicity = 5
  Basis Set: CC-PVDZ
    Blend: CC-PVDZ
  Basis Set: (CC-PVDZ AUX)
    Blend: CC-PVDZ-JKFIT + DEF2-UNIVERSAL-JKFIT
  @DF-UKS Final Energy:  -135.53601472812448
    Total Energy =                       -135.5360147281244849
 Dipole X            :          0.0000000            0.0000000            0.0000000
 Dipole Y            :          0.0000000            0.0000000            0.0000000
 Dipole Z            :         -1.4223435           -0.8549566           -2.2773002
 Magnitude           :                                                    2.2773002
    Molecular point group: c2v
  Basis Set: CC-PVDZ
    Blend: CC-PVDZ
  Basis Set: (CC-PVDZ AUX)
    Blend: CC-PVDZ-JKFIT + DEF2-UNIVERSAL-JKFIT
  Basis Set: CC-PVDZ
    Blend: CC-PVDZ
  Basis Set: (CC-PVDZ AUX)
    Blend: CC-PVDZ-JKFIT + DEF2-UNIVERSAL-JKFIT
  @DF-UKS Final Energy:  -135.62984715260916
    Total Energy =                       -135.6298471526091589
  Basis Set: CC-PVDZ
    Blend: CC-PVDZ
  Basis Set: (CC-PVDZ AUX)
    Blend: CC-PVDZ-JKFIT + DEF2-UNIVERSAL-JKFIT
  Basis Set: CC-PVDZ
    Blend: CC-PVDZ
  @DF-UKS Final Energy:  -135.67779608999695
    Total Energy =                       -135.6777960899969457
  @DF-UKS Final Energy:  -135.71322210645658
    Total Energy =                       -135.7132221064565840
  @DF-UKS Final Energy:  -135.73713852636484
    Total Energy =                       -135.7371385263648449
  @DF-UKS Final Energy:  -135.75043364988781
    Total Energy =                       -135.7504336498878104
  @DF-UKS Final Energy:  -135.75527027748984
    Total Energy =                       -135.7552702774898421
  @DF-UKS Final Energy:  -135.75616895651456
    Total Energy =                       -135.7561689565145571
  Basis Set: (CC-PVDZ AUX)
    Blend: CC-PVDZ-JKFIT + DEF2-UNIVERSAL-JKFIT
  Basis Set: CC-PVDZ
    Blend: CC-PVDZ
  Basis Set: (CC-PVDZ AUX)
    Blend: CC-PVDZ-JKFIT + DEF2-UNIVERSAL-JKFIT
  @DF-UKS Final Energy:  -135.75622238425692
    Total Energy =                       -135.7562223842569153
  Basis Set: CC-PVDZ
    Blend: CC-PVDZ
  Basis Set: (CC-PVDZ AUX)
    Blend: CC-PVDZ-JKFIT + DEF2-UNIVERSAL-JKFIT
  Charge       = -1
  Multiplicity = 5
  Basis Set: CC-PVDZ
    Blend: CC-PVDZ
  Basis Set: (CC-PVDZ AUX)
    Blend: CC-PVDZ-JKFIT + DEF2-UNIVERSAL-JKFIT

    Orbital Energies [Eh]
    ---------------------

    Alpha Occupied:

       1A1   -31.496301     2A1    -1.875696     3A1    -1.866318
       4A1    -1.040053     1B1    -0.928148     1B2    -0.928148
       5A1    -0.033160     2B2     0.051692     2B1     0.051692

    Alpha Virtual:

       6A1     0.082456     7A1     0.148905     3B1     0.186916
       3B2     0.186916     8A1     0.218181     4B2     0.342993
       4B1     0.342993     9A1     0.358463     1A2     0.358464
      10A1     0.373410    11A1     1.148389     5B2     1.155808
       5B1     1.155808    12A1     1.805463    13A1     4.236576
       6B1     4.262369     6B2     4.262369     2A2     4.343845
      14A1     4.344141

    Beta Occupied:

       1A1   -31.454849     2A1    -1.869930     3A1    -1.756128
       1B1    -0.886600     1B2    -0.886600

    Beta Virtual:

       4A1    -0.678579     5A1     0.059496     6A1     0.107077
       2B2     0.127778     2B1     0.127778     7A1     0.193701
       3B1     0.225491     3B2     0.225491     8A1     0.230478
       4B1     0.383815     4B2     0.383815     9A1     0.404330
       1A2     0.423278    10A1     0.423292     5B2     1.178150
       5B1     1.178150    11A1     1.254814    12A1     1.866163
       2A2     4.364129    13A1     4.364387     6B1     4.377619
       6B2     4.377619    14A1     4.401085

    Final Occupation by Irrep:
             A1    A2    B1    B2
    DOCC [     3,    0,    1,    1 ]
    SOCC [     2,    0,    1,    1 ]
    NA   [     5,    0,    2,    2 ]
    NB   [     3,    0,    1,    1 ]

  @DF-UKS Final Energy:  -135.75622283583704

   => Energetics <=

    Nuclear Repulsion Energy =              6.1732622311113667
    One-Electron Energy =                -200.7996064293797644
    Two-Electron Energy =                  70.2187186471541338
    DFT Exchange-Correlation Energy =     -11.3485972847227945
    Empirical Dispersion Energy =           0.0000000000000000
    VV10 Nonlocal Energy =                  0.0000000000000000
    Total Energy =                       -135.7562228358370362

  UHF NO Occupations:
  HONO-2 :    2 B1 1.0000000
  HONO-1 :    5 A1 1.0000000
  HONO-0 :    2 B2 1.0000000
  LUNO+0 :    6 A1 0.0002622
  LUNO+1 :    3 B1 0.0000485
  LUNO+2 :    3 B2 0.0000485
  LUNO+3 :    7 A1 0.0000006

Computation Completed

Properties will be evaluated at   0.000000,   0.000000,   0.000000 [a0]

Properties computed using the SCF density matrix

 Multipole Moments:

 ------------------------------------------------------------------------------------
     Multipole            Electronic (a.u.)      Nuclear  (a.u.)        Total (a.u.)
 ------------------------------------------------------------------------------------

 L = 1.  Multiply by 2.5417464519 to convert [e a0] to [Debye]
 Dipole X            :          0.0000000            0.0000000            0.0000000
 Dipole Y            :          0.0000000            0.0000000            0.0000000
 Dipole Z            :         -3.7401315           -1.8321900           -5.5723215
 Magnitude           :                                                    5.5723215

 ------------------------------------------------------------------------------------

*** tstop() called on Joses-MacBook-Pro-2.local at Thu Jul 17 09:31:37 2025
Module time:
	user time   =       2.41 seconds =       0.04 minutes
	system time =       3.45 seconds =       0.06 minutes
	total time  =          1 seconds =       0.02 minutes
Total time:
	user time   =      38.02 seconds =       0.63 minutes
	system time =      47.17 seconds =       0.79 minutes
	total time  =          8 seconds =       0.13 minutes

*** tstart() called on Joses-MacBook-Pro-2.local
*** at Thu Jul 17 09:31:37 2025

         ------------------------------------------------------------
                                   SCF GRAD
                          Rob Parrish, Justin Turney,
                       Andy Simmonett, and Alex Sokolov
         ------------------------------------------------------------

  ==> Geometry <==

    Molecular point group: c2v
    Full point group: C_inf_v

    Geometry (in Angstrom), charge = -1, multiplicity = 5:

       Center              X                  Y                   Z               Mass
    ------------   -----------------  -----------------  -----------------  -----------------
         LI           0.000000000000     0.000000000000     1.903592165822     7.016003436600
         NE           0.000000000000     0.000000000000    -0.668032969442    19.992440176200

  Nuclear repulsion =    6.173262231111367

  ==> Basis Set <==

  Basis Set: CC-PVDZ
    Blend: CC-PVDZ
    Number of shells: 12
    Number of basis functions: 28
    Number of Cartesian functions: 30
    Spherical Harmonics?: true
    Max angular momentum: 2

  ==> DFJKGrad: Density-Fitted SCF Gradients <==

    Gradient:                    1
    J tasked:                  Yes
    K tasked:                  Yes
    wK tasked:                  No
    OpenMP threads:              1
    Integrals threads:           1
    Memory [MiB]:              375
    Schwarz Cutoff:          1E-12
    Fitting Condition:       1E-10

   => Auxiliary Basis Set <=

  Basis Set: (CC-PVDZ AUX)
    Blend: CC-PVDZ-JKFIT + DEF2-UNIVERSAL-JKFIT
    Number of shells: 41
    Number of basis functions: 121
    Number of Cartesian functions: 141
    Spherical Harmonics?: true
    Max angular momentum: 3

  ==> DFT Potential <==

   => LibXC <=

    Version 6.2.2
    S. Lehtola, C. Steigemann, M. J.T. Oliveira, and M. A.L. Marques.,  SoftwareX 7, 1â€“5 (2018) (10.1016/j.softx.2017.11.002)

   => Composite Functional: B3LYP <=

    B3LYP Hyb-GGA Exchange-Correlation Functional

    P. J. Stephens, F. J. Devlin, C. F. Chabalowski, and M. J. Frisch.,  J. Phys. Chem. 98, 11623 (1994) (10.1021/j100096a001)

    Deriv               =              1
    GGA                 =           TRUE
    Meta                =          FALSE

    Exchange Hybrid     =           TRUE
    MP2 Hybrid          =          FALSE

   => Exchange Functionals <=

    0.0800   Slater exchange
    0.7200         Becke 88

   => Exact (HF) Exchange <=

    0.2000               HF

   => Correlation Functionals <=

    0.1900   Vosko, Wilk & Nusair (VWN5_RPA)
    0.8100   Lee, Yang & Parr

   => LibXC Density Thresholds  <==

    XC_HYB_GGA_XC_B3LYP:  1.00E-15

   => Molecular Quadrature <=

    Radial Scheme          =       TREUTLER
    Pruning Scheme         =           NONE
    Nuclear Scheme         =       TREUTLER

    Blocking Scheme        =         OCTREE
    BS radius alpha        =              1
    Pruning alpha          =              1
    Radial Points          =             75
    Spherical Points       =            302
    Total Points           =          44328
    Total Blocks           =            418
    Max Points             =            256
    Max Functions          =             28
    Weights Tolerance      =       1.00E-15

  -Total Gradient:
     Atom            X                  Y                   Z
    ------   -----------------  -----------------  -----------------
       1        0.000000000000    -0.000000000000    -0.000024943073
       2        0.000000000000    -0.000000000000     0.000015102918

*** tstop() called on Joses-MacBook-Pro-2.local at Thu Jul 17 09:31:37 2025
Module time:
	user time   =       0.52 seconds =       0.01 minutes
	system time =       0.96 seconds =       0.02 minutes
	total time  =          0 seconds =       0.00 minutes
Total time:
	user time   =      38.55 seconds =       0.64 minutes
	system time =      48.13 seconds =       0.80 minutes
	total time  =          8 seconds =       0.13 minutes

    			-----------------------------------------

    			 OPTKING 3.0: for geometry optimizations

    			     By R.A. King, Bethel University

    			        with contributions from

    			    A.V. Copan, J. Cayton, A. Heide

    			-----------------------------------------

	                            ===> Fragment 1 <==

	 Z (Atomic Numbers)          Masses                          Geom
	       3.000000             7.016003          0.00000000  0.00000000  3.59726785
	      10.000000            19.992440          0.00000000  0.00000000 -1.26239936

	 - Coordinate -           - BOHR/RAD -       - ANG/DEG -
	 R(1,2)           =         4.859667           2.571625

	        --- Internal Coordinate Step in ANG or DEG, aJ/ANG or AJ/DEG ---
	-------------------------------------------------------------------------------
	           Coordinate      Previous         Force          Change          New
	           ----------      --------        ------          ------        ------
	               R(1,2)       2.57163        0.00016        0.00042       2.57204
	-------------------------------------------------------------------------------

	                                 ==> Convergence Check <==

	Measures of convergence in internal coordinates in au.

	Criteria marked as inactive (o), active & met (*), and active & unmet ( ).

	----------------------------------------------------------------------------------------------
	   Step    Total Energy     Delta E     Max Force     RMS Force      Max Disp      RMS Disp
	----------------------------------------------------------------------------------------------
	  Convergence Criteria     1.00e-06 *    3.00e-04 *             o    1.20e-03 *             o
	----------------------------------------------------------------------------------------------
	    10    -135.75622284   -4.52e-07 *    2.00e-05 *    2.00e-05 o    7.89e-04 *    7.89e-04 o  ~
	----------------------------------------------------------------------------------------------

Next Geometry in Ang
	Fragment 1 (Ang)

	   Li   0.0000000000   0.0000000000   1.9038007954
	   Ne   0.0000000000   0.0000000000  -0.6682415990

    Final optimized geometry and variables:
    Molecular point group: c2v
    Full point group: C_inf_v

    Geometry (in Angstrom), charge = -1, multiplicity = 5:

    LI           0.000000000000     0.000000000000     1.903592165822
    NE           0.000000000000     0.000000000000    -0.668032969442

    Psi4 stopped on: Thursday, 17 July 2025 09:31AM
    Psi4 wall time for execution: 0:00:08.82

*** Psi4 exiting successfully. Buy a developer a beer!
