                               Psi4 1.9.1 release

  ==> Input File <==

--------------------------------------------------------------------------
molecule {
-1 5
Be   0.00000        0.60000        0.00000
F   0.00000       -0.60000        0.00000
}

set {
basis              cc-pvdz
reference          uks
maxiter            500
geom_maxiter       500
DAMPING_PERCENTAGE 1
guess              SAP
}

optimize('b3lyp')
--------------------------------------------------------------------------

    Molecular point group: c2v
  Charge       = -1
  Multiplicity = 5
  Basis Set: CC-PVDZ
    Blend: CC-PVDZ
  Basis Set: (CC-PVDZ AUX)
    Blend: CC-PVDZ-JKFIT + DEF2-UNIVERSAL-JKFIT
  @DF-UKS Final Energy:  -114.11919864623491
    Total Energy =                       -114.1191986462349064
 Dipole X            :          0.0000000            0.0000000            0.0000000
 Dipole Y            :          0.0000000            0.0000000            0.0000000
 Dipole Z            :         -2.2946243           -0.4141822           -2.7088064
 Magnitude           :                                                    2.7088064
    Molecular point group: c2v
  Basis Set: CC-PVDZ
    Blend: CC-PVDZ
  Basis Set: (CC-PVDZ AUX)
    Blend: CC-PVDZ-JKFIT + DEF2-UNIVERSAL-JKFIT
  Basis Set: CC-PVDZ
    Blend: CC-PVDZ
  Basis Set: (CC-PVDZ AUX)
    Blend: CC-PVDZ-JKFIT + DEF2-UNIVERSAL-JKFIT
  @DF-UKS Final Energy:  -114.22781933565869
    Total Energy =                       -114.2278193356586939
  Basis Set: CC-PVDZ
    Blend: CC-PVDZ
  Basis Set: (CC-PVDZ AUX)
    Blend: CC-PVDZ-JKFIT + DEF2-UNIVERSAL-JKFIT
  Basis Set: CC-PVDZ
    Blend: CC-PVDZ
  @DF-UKS Final Energy:  -114.25804315974035
    Total Energy =                       -114.2580431597403532
  @DF-UKS Final Energy:  -114.27703750161912
    Total Energy =                       -114.2770375016191196
  @DF-UKS Final Energy:  -114.28426188750119
    Total Energy =                       -114.2842618875011880
  @DF-UKS Final Energy:  -114.28894941276783
    Total Energy =                       -114.2889494127678347
  @DF-UKS Final Energy:  -114.29214681041343
    Total Energy =                       -114.2921468104134277
  @DF-UKS Final Energy:  -114.29409164013370
    Total Energy =                       -114.2940916401337006
  @DF-UKS Final Energy:  -114.29535616182227
    Total Energy =                       -114.2953561618222693
  @DF-UKS Final Energy:  -114.29621357309603
    Total Energy =                       -114.2962135730960256
  @DF-UKS Final Energy:  -114.29677914482406
    Total Energy =                       -114.2967791448240575
  @DF-UKS Final Energy:  -114.29720572478259
    Total Energy =                       -114.2972057247825859
  @DF-UKS Final Energy:  -114.29737574954923
    Total Energy =                       -114.2973757495492180
  Basis Set: (CC-PVDZ AUX)
    Blend: CC-PVDZ-JKFIT + DEF2-UNIVERSAL-JKFIT
  Basis Set: CC-PVDZ
    Blend: CC-PVDZ
  Basis Set: (CC-PVDZ AUX)
    Blend: CC-PVDZ-JKFIT + DEF2-UNIVERSAL-JKFIT
  @DF-UKS Final Energy:  -114.29740723434635
    Total Energy =                       -114.2974072343463519
  Basis Set: CC-PVDZ
    Blend: CC-PVDZ
  Basis Set: (CC-PVDZ AUX)
    Blend: CC-PVDZ-JKFIT + DEF2-UNIVERSAL-JKFIT
  Charge       = -1
  Multiplicity = 5
  Basis Set: CC-PVDZ
    Blend: CC-PVDZ
  Basis Set: (CC-PVDZ AUX)
    Blend: CC-PVDZ-JKFIT + DEF2-UNIVERSAL-JKFIT

    Orbital Energies [Eh]
    ---------------------

    Alpha Occupied:

       1A1   -24.649750     2A1    -3.844155     3A1    -1.078355
       1B1    -0.405123     4A1    -0.317858     1B2    -0.315926
       5A1    -0.036488     2B1     0.092497     2B2     0.093197

    Alpha Virtual:

       6A1     0.159834     3B1     0.380659     3B2     0.381270
       7A1     0.382812     8A1     0.406256     9A1     0.678644
       1A2     0.678644     4B1     0.683407     4B2     0.684319
      10A1     0.691304     5B1     1.183171     5B2     1.237892
      11A1     1.284181    12A1     1.696868    13A1     3.573108
       6B1     3.594450     2A2     3.594700     6B2     3.663840
      14A1     3.664966

    Beta Occupied:

       1A1   -24.618445     2A1    -3.827023     3A1    -0.986435
       4A1    -0.285080     1B2    -0.283790

    Beta Virtual:

       1B1    -0.110556     5A1     0.125236     6A1     0.215931
       2B2     0.233703     2B1     0.236321     7A1     0.430705
       8A1     0.446248     3B2     0.454122     3B1     0.454939
       9A1     0.765095     4B1     0.785173     4B2     0.786311
       1A2     0.816681    10A1     0.816773     5B2     1.256740
       5B1     1.293777    11A1     1.307218    12A1     1.745176
       6B2     3.680028    13A1     3.681137     2A2     3.690389
       6B1     3.690672    14A1     3.710456

    Final Occupation by Irrep:
             A1    A2    B1    B2
    DOCC [     4,    0,    0,    1 ]
    SOCC [     1,    0,    2,    1 ]
    NA   [     5,    0,    2,    2 ]
    NB   [     4,    0,    0,    1 ]

  @DF-UKS Final Energy:  -114.29740795517669

   => Energetics <=

    Nuclear Repulsion Energy =              6.3159564470559015
    One-Electron Energy =                -173.0209814747851738
    Two-Electron Energy =                  63.1842101991801997
    DFT Exchange-Correlation Energy =     -10.7765931266276187
    Empirical Dispersion Energy =           0.0000000000000000
    VV10 Nonlocal Energy =                  0.0000000000000000
    Total Energy =                       -114.2974079551766948

  UHF NO Occupations:
  HONO-2 :    1 B1 1.0000000
  HONO-1 :    2 B2 1.0000000
  HONO-0 :    2 B1 1.0000000
  LUNO+0 :    6 A1 0.0003337
  LUNO+1 :    7 A1 0.0001109
  LUNO+2 :    3 B2 0.0000653
  LUNO+3 :    8 A1 0.0000003

Computation Completed

Properties will be evaluated at   0.000000,   0.000000,   0.000000 [a0]

Properties computed using the SCF density matrix

 Multipole Moments:

 ------------------------------------------------------------------------------------
     Multipole            Electronic (a.u.)      Nuclear  (a.u.)        Total (a.u.)
 ------------------------------------------------------------------------------------

 L = 1.  Multiply by 2.5417464519 to convert [e a0] to [Debye]
 Dipole X            :          0.0000000            0.0000000            0.0000000
 Dipole Y            :          0.0000000            0.0000000            0.0000000
 Dipole Z            :         -2.9768852           -1.0410574           -4.0179426
 Magnitude           :                                                    4.0179426

 ------------------------------------------------------------------------------------

*** tstop() called on Joses-MacBook-Pro-2.local at Thu Jul 17 09:41:27 2025
Module time:
	user time   =       3.04 seconds =       0.05 minutes
	system time =       2.48 seconds =       0.04 minutes
	total time  =          0 seconds =       0.00 minutes
Total time:
	user time   =      60.36 seconds =       1.01 minutes
	system time =      67.55 seconds =       1.13 minutes
	total time  =         12 seconds =       0.20 minutes

*** tstart() called on Joses-MacBook-Pro-2.local
*** at Thu Jul 17 09:41:27 2025

         ------------------------------------------------------------
                                   SCF GRAD
                          Rob Parrish, Justin Turney,
                       Andy Simmonett, and Alex Sokolov
         ------------------------------------------------------------

  ==> Geometry <==

    Molecular point group: c2v
    Full point group: C_inf_v

    Geometry (in Angstrom), charge = -1, multiplicity = 5:

       Center              X                  Y                   Z               Mass
    ------------   -----------------  -----------------  -----------------  -----------------
         BE           0.000000000000     0.000000000000     2.045782260080     9.012183065000
         F            0.000000000000     0.000000000000    -0.970448099298    18.998403162730

  Nuclear repulsion =    6.315956447055902

  ==> Basis Set <==

  Basis Set: CC-PVDZ
    Blend: CC-PVDZ
    Number of shells: 12
    Number of basis functions: 28
    Number of Cartesian functions: 30
    Spherical Harmonics?: true
    Max angular momentum: 2

  ==> DFJKGrad: Density-Fitted SCF Gradients <==

    Gradient:                    1
    J tasked:                  Yes
    K tasked:                  Yes
    wK tasked:                  No
    OpenMP threads:              1
    Integrals threads:           1
    Memory [MiB]:              375
    Schwarz Cutoff:          1E-12
    Fitting Condition:       1E-10

   => Auxiliary Basis Set <=

  Basis Set: (CC-PVDZ AUX)
    Blend: CC-PVDZ-JKFIT + DEF2-UNIVERSAL-JKFIT
    Number of shells: 41
    Number of basis functions: 121
    Number of Cartesian functions: 141
    Spherical Harmonics?: true
    Max angular momentum: 3

  ==> DFT Potential <==

   => LibXC <=

    Version 6.2.2
    S. Lehtola, C. Steigemann, M. J.T. Oliveira, and M. A.L. Marques.,  SoftwareX 7, 1â€“5 (2018) (10.1016/j.softx.2017.11.002)

   => Composite Functional: B3LYP <=

    B3LYP Hyb-GGA Exchange-Correlation Functional

    P. J. Stephens, F. J. Devlin, C. F. Chabalowski, and M. J. Frisch.,  J. Phys. Chem. 98, 11623 (1994) (10.1021/j100096a001)

    Deriv               =              1
    GGA                 =           TRUE
    Meta                =          FALSE

    Exchange Hybrid     =           TRUE
    MP2 Hybrid          =          FALSE

   => Exchange Functionals <=

    0.0800   Slater exchange
    0.7200         Becke 88

   => Exact (HF) Exchange <=

    0.2000               HF

   => Correlation Functionals <=

    0.1900   Vosko, Wilk & Nusair (VWN5_RPA)
    0.8100   Lee, Yang & Parr

   => LibXC Density Thresholds  <==

    XC_HYB_GGA_XC_B3LYP:  1.00E-15

   => Molecular Quadrature <=

    Radial Scheme          =       TREUTLER
    Pruning Scheme         =           NONE
    Nuclear Scheme         =       TREUTLER

    Blocking Scheme        =         OCTREE
    BS radius alpha        =              1
    Pruning alpha          =              1
    Radial Points          =             75
    Spherical Points       =            302
    Total Points           =          43642
    Total Blocks           =            400
    Max Points             =            256
    Max Functions          =             28
    Weights Tolerance      =       1.00E-15

  -Total Gradient:
     Atom            X                  Y                   Z
    ------   -----------------  -----------------  -----------------
       1        0.000000000000    -0.000000000000     0.000011768874
       2        0.000000000000    -0.000000000000     0.000025307739

*** tstop() called on Joses-MacBook-Pro-2.local at Thu Jul 17 09:41:27 2025
Module time:
	user time   =       0.46 seconds =       0.01 minutes
	system time =       1.29 seconds =       0.02 minutes
	total time  =          0 seconds =       0.00 minutes
Total time:
	user time   =      60.84 seconds =       1.01 minutes
	system time =      68.84 seconds =       1.15 minutes
	total time  =         12 seconds =       0.20 minutes

    			-----------------------------------------

    			 OPTKING 3.0: for geometry optimizations

    			     By R.A. King, Bethel University

    			        with contributions from

    			    A.V. Copan, J. Cayton, A. Heide

    			-----------------------------------------

	                            ===> Fragment 1 <==

	 Z (Atomic Numbers)          Masses                          Geom
	       4.000000             9.012183          0.00000000  0.00000000  3.86596818
	       9.000000            18.998403          0.00000000  0.00000000 -1.83388113

	 - Coordinate -           - BOHR/RAD -       - ANG/DEG -
	 R(1,2)           =         5.699849           3.016230

	        --- Internal Coordinate Step in ANG or DEG, aJ/ANG or AJ/DEG ---
	-------------------------------------------------------------------------------
	           Coordinate      Previous         Force          Change          New
	           ----------      --------        ------          ------        ------
	               R(1,2)       3.01623        0.00006        0.00308       3.01931
	-------------------------------------------------------------------------------

	                                 ==> Convergence Check <==

	Measures of convergence in internal coordinates in au.

	Criteria marked as inactive (o), active & met (*), and active & unmet ( ).

	----------------------------------------------------------------------------------------------
	   Step    Total Energy     Delta E     Max Force     RMS Force      Max Disp      RMS Disp
	----------------------------------------------------------------------------------------------
	  Convergence Criteria     1.00e-06 *    3.00e-04 *             o    1.20e-03 *             o
	----------------------------------------------------------------------------------------------
	    15    -114.29740796   -7.21e-07 *    6.77e-06 *    6.77e-06 o    5.82e-03      5.82e-03 o  ~
	----------------------------------------------------------------------------------------------

Next Geometry in Ang
	Fragment 1 (Ang)

	   Be   0.0000000000   0.0000000000   2.0473233026
	    F   0.0000000000   0.0000000000  -0.9719891419

    Final optimized geometry and variables:
    Molecular point group: c2v
    Full point group: C_inf_v

    Geometry (in Angstrom), charge = -1, multiplicity = 5:

    BE           0.000000000000     0.000000000000     2.045782260080
    F            0.000000000000     0.000000000000    -0.970448099298

    Psi4 stopped on: Thursday, 17 July 2025 09:41AM
    Psi4 wall time for execution: 0:00:12.85

*** Psi4 exiting successfully. Buy a developer a beer!
