                               Psi4 1.9.1 release

  ==> Input File <==

--------------------------------------------------------------------------
molecule {
-1 5
Be   0.00000        0.60000        0.00000
P   0.00000       -0.60000        0.00000
}

set {
basis              cc-pvdz
reference          uks
maxiter            500
geom_maxiter       500
DAMPING_PERCENTAGE 1
guess              SAP
}

optimize('b3lyp')
--------------------------------------------------------------------------

    Molecular point group: c2v
  Charge       = -1
  Multiplicity = 5
  Basis Set: CC-PVDZ
    Blend: CC-PVDZ
  Basis Set: (CC-PVDZ AUX)
    Blend: CC-PVDZ-JKFIT + DEF2-UNIVERSAL-JKFIT
  @DF-UKS Final Energy:  -355.37422541460796
    Total Energy =                       -355.3742254146079631
 Dipole X            :          0.0000000            0.0000000            0.0000000
 Dipole Y            :          0.0000000            0.0000000            0.0000000
 Dipole Z            :         -2.0721687           -0.6401447           -2.7123134
 Magnitude           :                                                    2.7123134
    Molecular point group: c2v
  Basis Set: CC-PVDZ
    Blend: CC-PVDZ
  Basis Set: (CC-PVDZ AUX)
    Blend: CC-PVDZ-JKFIT + DEF2-UNIVERSAL-JKFIT
  Basis Set: CC-PVDZ
    Blend: CC-PVDZ
  Basis Set: (CC-PVDZ AUX)
    Blend: CC-PVDZ-JKFIT + DEF2-UNIVERSAL-JKFIT
  @DF-UKS Final Energy:  -355.59955702382376
    Total Energy =                       -355.5995570238237633
  Basis Set: CC-PVDZ
    Blend: CC-PVDZ
  Basis Set: (CC-PVDZ AUX)
    Blend: CC-PVDZ-JKFIT + DEF2-UNIVERSAL-JKFIT
  Basis Set: CC-PVDZ
    Blend: CC-PVDZ
  @DF-UKS Final Energy:  -355.76133831446936
    Total Energy =                       -355.7613383144693557
  @DF-UKS Final Energy:  -355.85143963185283
    Total Energy =                       -355.8514396318527702
  @DF-UKS Final Energy:  -355.89168106573959
    Total Energy =                       -355.8916810657395899
  @DF-UKS Final Energy:  -355.90977129677196
    Total Energy =                       -355.9097712967719644
  @DF-UKS Final Energy:  -355.91679400353536
    Total Energy =                       -355.9167940035353581
  @DF-UKS Final Energy:  -355.91859220159012
    Total Energy =                       -355.9185922015901156
  @DF-UKS Final Energy:  -355.91926522111135
    Total Energy =                       -355.9192652211113455
  @DF-UKS Final Energy:  -355.91939284436023
    Total Energy =                       -355.9193928443602317
  @DF-UKS Final Energy:  -355.91941948275013
    Total Energy =                       -355.9194194827501860
  Basis Set: (CC-PVDZ AUX)
    Blend: CC-PVDZ-JKFIT + DEF2-UNIVERSAL-JKFIT
  Basis Set: CC-PVDZ
    Blend: CC-PVDZ
  Basis Set: (CC-PVDZ AUX)
    Blend: CC-PVDZ-JKFIT + DEF2-UNIVERSAL-JKFIT
  @DF-UKS Final Energy:  -355.91942628665106
    Total Energy =                       -355.9194262866510599
  Basis Set: CC-PVDZ
    Blend: CC-PVDZ
  Basis Set: (CC-PVDZ AUX)
    Blend: CC-PVDZ-JKFIT + DEF2-UNIVERSAL-JKFIT
  Charge       = -1
  Multiplicity = 5
  Basis Set: CC-PVDZ
    Blend: CC-PVDZ
  Basis Set: (CC-PVDZ AUX)
    Blend: CC-PVDZ-JKFIT + DEF2-UNIVERSAL-JKFIT

    Orbital Energies [Eh]
    ---------------------

    Alpha Occupied:

       1A1   -76.881456     2A1    -6.349489     3A1    -4.516557
       1B1    -4.515519     1B2    -4.503186     4A1    -3.874623
       5A1    -0.374398     6A1    -0.117858     2B1    -0.052289
       2B2    -0.015743     7A1    -0.001347     3B1     0.087594

    Alpha Virtual:

       3B2     0.152645     8A1     0.228694     9A1     0.345222
       4B1     0.353745    10A1     0.364384     4B2     0.374064
      11A1     0.541202     5B1     0.554530     5B2     0.575665
       1A2     0.622973    12A1     0.625780     6B1     0.627300
       6B2     0.651288    13A1     0.697244     2A2     0.719309
      14A1     0.723677    15A1     0.876864     7B1     0.886698
       7B2     0.908178    16A1     1.083022

    Beta Occupied:

       1A1   -76.874120     2A1    -6.341522     3A1    -4.502692
       1B1    -4.499599     1B2    -4.498749     4A1    -3.858587
       5A1    -0.297710     2B2     0.004973

    Beta Virtual:

       6A1     0.019305     2B1     0.082083     7A1     0.139660
       3B2     0.188643     3B1     0.222437     8A1     0.263072
       4B2     0.394516     9A1     0.398716     4B1     0.422570
      10A1     0.428878    11A1     0.596430     5B2     0.624280
       5B1     0.647621     6B2     0.665923     6B1     0.683904
       1A2     0.685192    12A1     0.691251    13A1     0.743307
       2A2     0.782491    14A1     0.789802    15A1     0.939762
       7B2     0.954465     7B1     0.981353    16A1     1.140670

    Final Occupation by Irrep:
             A1    A2    B1    B2
    DOCC [     5,    0,    1,    2 ]
    SOCC [     2,    0,    2,    0 ]
    NA   [     7,    0,    3,    2 ]
    NB   [     5,    0,    1,    2 ]

  @DF-UKS Final Energy:  -355.91942694070451

   => Energetics <=

    Nuclear Repulsion Energy =             14.1343299065975554
    One-Electron Energy =                -523.0640806016647275
    Two-Electron Energy =                 174.1341063907528053
    DFT Exchange-Correlation Energy =     -21.1237826363901391
    Empirical Dispersion Energy =           0.0000000000000000
    VV10 Nonlocal Energy =                  0.0000000000000000
    Total Energy =                       -355.9194269407045113

  UHF NO Occupations:
  HONO-2 :    6 A1 1.0000000
  HONO-1 :    3 B1 1.0000000
  HONO-0 :    7 A1 1.0000000
  LUNO+0 :    8 A1 0.0013417
  LUNO+1 :    3 B2 0.0005631
  LUNO+2 :    9 A1 0.0000004
  LUNO+3 :   10 A1 0.0000000

Computation Completed

Properties will be evaluated at   0.000000,   0.000000,   0.000000 [a0]

Properties computed using the SCF density matrix

 Multipole Moments:

 ------------------------------------------------------------------------------------
     Multipole            Electronic (a.u.)      Nuclear  (a.u.)        Total (a.u.)
 ------------------------------------------------------------------------------------

 L = 1.  Multiply by 2.5417464519 to convert [e a0] to [Debye]
 Dipole X            :          0.0000000            0.0000000            0.0000000
 Dipole Y            :          0.0000000            0.0000000            0.0000000
 Dipole Z            :         -0.9077789           -1.1983234           -2.1061023
 Magnitude           :                                                    2.1061023

 ------------------------------------------------------------------------------------

*** tstop() called on Joses-MacBook-Pro-2.local at Thu Jul 17 09:45:56 2025
Module time:
	user time   =       5.03 seconds =       0.08 minutes
	system time =       3.60 seconds =       0.06 minutes
	total time  =          1 seconds =       0.02 minutes
Total time:
	user time   =      85.52 seconds =       1.43 minutes
	system time =      81.03 seconds =       1.35 minutes
	total time  =         18 seconds =       0.30 minutes

*** tstart() called on Joses-MacBook-Pro-2.local
*** at Thu Jul 17 09:45:56 2025

         ------------------------------------------------------------
                                   SCF GRAD
                          Rob Parrish, Justin Turney,
                       Andy Simmonett, and Alex Sokolov
         ------------------------------------------------------------

  ==> Geometry <==

    Molecular point group: c2v
    Full point group: C_inf_v

    Geometry (in Angstrom), charge = -1, multiplicity = 5:

       Center              X                  Y                   Z               Mass
    ------------   -----------------  -----------------  -----------------  -----------------
         BE           0.000000000000     0.000000000000     1.740058106952     9.012183065000
         P            0.000000000000     0.000000000000    -0.506290524360    30.973761998420

  Nuclear repulsion =   14.134329906597555

  ==> Basis Set <==

  Basis Set: CC-PVDZ
    Blend: CC-PVDZ
    Number of shells: 14
    Number of basis functions: 32
    Number of Cartesian functions: 34
    Spherical Harmonics?: true
    Max angular momentum: 2

  ==> DFJKGrad: Density-Fitted SCF Gradients <==

    Gradient:                    1
    J tasked:                  Yes
    K tasked:                  Yes
    wK tasked:                  No
    OpenMP threads:              1
    Integrals threads:           1
    Memory [MiB]:              375
    Schwarz Cutoff:          1E-12
    Fitting Condition:       1E-10

   => Auxiliary Basis Set <=

  Basis Set: (CC-PVDZ AUX)
    Blend: CC-PVDZ-JKFIT + DEF2-UNIVERSAL-JKFIT
    Number of shells: 53
    Number of basis functions: 163
    Number of Cartesian functions: 190
    Spherical Harmonics?: true
    Max angular momentum: 3

  ==> DFT Potential <==

   => LibXC <=

    Version 6.2.2
    S. Lehtola, C. Steigemann, M. J.T. Oliveira, and M. A.L. Marques.,  SoftwareX 7, 1â€“5 (2018) (10.1016/j.softx.2017.11.002)

   => Composite Functional: B3LYP <=

    B3LYP Hyb-GGA Exchange-Correlation Functional

    P. J. Stephens, F. J. Devlin, C. F. Chabalowski, and M. J. Frisch.,  J. Phys. Chem. 98, 11623 (1994) (10.1021/j100096a001)

    Deriv               =              1
    GGA                 =           TRUE
    Meta                =          FALSE

    Exchange Hybrid     =           TRUE
    MP2 Hybrid          =          FALSE

   => Exchange Functionals <=

    0.0800   Slater exchange
    0.7200         Becke 88

   => Exact (HF) Exchange <=

    0.2000               HF

   => Correlation Functionals <=

    0.1900   Vosko, Wilk & Nusair (VWN5_RPA)
    0.8100   Lee, Yang & Parr

   => LibXC Density Thresholds  <==

    XC_HYB_GGA_XC_B3LYP:  1.00E-15

   => Molecular Quadrature <=

    Radial Scheme          =       TREUTLER
    Pruning Scheme         =           NONE
    Nuclear Scheme         =       TREUTLER

    Blocking Scheme        =         OCTREE
    BS radius alpha        =              1
    Pruning alpha          =              1
    Radial Points          =             75
    Spherical Points       =            302
    Total Points           =          42782
    Total Blocks           =            397
    Max Points             =            256
    Max Functions          =             32
    Weights Tolerance      =       1.00E-15

  -Total Gradient:
     Atom            X                  Y                   Z
    ------   -----------------  -----------------  -----------------
       1        0.000000000000     0.000000000000    -0.000045595169
       2        0.000000000000    -0.000000000000     0.000050876321

*** tstop() called on Joses-MacBook-Pro-2.local at Thu Jul 17 09:45:57 2025
Module time:
	user time   =       1.13 seconds =       0.02 minutes
	system time =       1.60 seconds =       0.03 minutes
	total time  =          1 seconds =       0.02 minutes
Total time:
	user time   =      86.65 seconds =       1.44 minutes
	system time =      82.63 seconds =       1.38 minutes
	total time  =         19 seconds =       0.32 minutes

    			-----------------------------------------

    			 OPTKING 3.0: for geometry optimizations

    			     By R.A. King, Bethel University

    			        with contributions from

    			    A.V. Copan, J. Cayton, A. Heide

    			-----------------------------------------

	                            ===> Fragment 1 <==

	 Z (Atomic Numbers)          Masses                          Geom
	       4.000000             9.012183          0.00000000  0.00000000  3.28823326
	      15.000000            30.973762          0.00000000  0.00000000 -0.95675043

	 - Coordinate -           - BOHR/RAD -       - ANG/DEG -
	 R(1,2)           =         4.244984           2.246349

	        --- Internal Coordinate Step in ANG or DEG, aJ/ANG or AJ/DEG ---
	-------------------------------------------------------------------------------
	           Coordinate      Previous         Force          Change          New
	           ----------      --------        ------          ------        ------
	               R(1,2)       2.24635        0.00040        0.00053       2.24688
	-------------------------------------------------------------------------------

	                                 ==> Convergence Check <==

	Measures of convergence in internal coordinates in au.

	Criteria marked as inactive (o), active & met (*), and active & unmet ( ).

	----------------------------------------------------------------------------------------------
	   Step    Total Energy     Delta E     Max Force     RMS Force      Max Disp      RMS Disp
	----------------------------------------------------------------------------------------------
	  Convergence Criteria     1.00e-06 *    3.00e-04 *             o    1.20e-03 *             o
	----------------------------------------------------------------------------------------------
	    13    -355.91942694   -6.54e-07 *    4.82e-05 *    4.82e-05 o    1.01e-03 *    1.01e-03 o  ~
	----------------------------------------------------------------------------------------------

Next Geometry in Ang
	Fragment 1 (Ang)

	   Be   0.0000000000   0.0000000000   1.7403247341
	    P   0.0000000000   0.0000000000  -0.5065571515

    Final optimized geometry and variables:
    Molecular point group: c2v
    Full point group: C_inf_v

    Geometry (in Angstrom), charge = -1, multiplicity = 5:

    BE           0.000000000000     0.000000000000     1.740058106952
    P            0.000000000000     0.000000000000    -0.506290524360

    Psi4 stopped on: Thursday, 17 July 2025 09:45AM
    Psi4 wall time for execution: 0:00:18.76

*** Psi4 exiting successfully. Buy a developer a beer!
