                               Psi4 1.9.1 release

  ==> Input File <==

--------------------------------------------------------------------------
molecule {
-1 5
B   0.00000        0.60000        0.00000
C   0.00000       -0.60000        0.00000
}

set {
basis              cc-pvdz
reference          uks
maxiter            500
geom_maxiter       500
DAMPING_PERCENTAGE 1
guess              SAP
}

optimize('b3lyp')
--------------------------------------------------------------------------

    Molecular point group: c2v
  Charge       = -1
  Multiplicity = 5
  Basis Set: CC-PVDZ
    Blend: CC-PVDZ
  Basis Set: (CC-PVDZ AUX)
    Blend: CC-PVDZ-JKFIT
  @DF-UKS Final Energy:   -62.47210832378061
    Total Energy =                        -62.4721083237806099
 Dipole X            :          0.0000000            0.0000000            0.0000000
 Dipole Y            :          0.0000000            0.0000000            0.0000000
 Dipole Z            :          0.3987584           -0.5968297           -0.1980713
 Magnitude           :                                                    0.1980713
    Molecular point group: c2v
  Basis Set: CC-PVDZ
    Blend: CC-PVDZ
  Basis Set: (CC-PVDZ AUX)
    Blend: CC-PVDZ-JKFIT
  Basis Set: CC-PVDZ
    Blend: CC-PVDZ
  Basis Set: (CC-PVDZ AUX)
    Blend: CC-PVDZ-JKFIT
  @DF-UKS Final Energy:   -62.59751843206903
    Total Energy =                        -62.5975184320690303
  Basis Set: CC-PVDZ
    Blend: CC-PVDZ
  Basis Set: (CC-PVDZ AUX)
    Blend: CC-PVDZ-JKFIT
  Basis Set: CC-PVDZ
    Blend: CC-PVDZ
  @DF-UKS Final Energy:   -62.61582230198515
    Total Energy =                        -62.6158223019851476
  @DF-UKS Final Energy:   -62.62558418508743
    Total Energy =                        -62.6255841850874262
  @DF-UKS Final Energy:   -62.62756565955801
    Total Energy =                        -62.6275656595580088
  @DF-UKS Final Energy:   -62.62807157570697
    Total Energy =                        -62.6280715757069686
  @DF-UKS Final Energy:   -62.62821836192785
    Total Energy =                        -62.6282183619278499
  @DF-UKS Final Energy:   -62.62827258592227
    Total Energy =                        -62.6282725859222680
  Basis Set: (CC-PVDZ AUX)
    Blend: CC-PVDZ-JKFIT
  Basis Set: CC-PVDZ
    Blend: CC-PVDZ
  Basis Set: (CC-PVDZ AUX)
    Blend: CC-PVDZ-JKFIT
  @DF-UKS Final Energy:   -62.62828503785796
    Total Energy =                        -62.6282850378579639
  Basis Set: CC-PVDZ
    Blend: CC-PVDZ
  Basis Set: (CC-PVDZ AUX)
    Blend: CC-PVDZ-JKFIT
  Charge       = -1
  Multiplicity = 5
  Basis Set: CC-PVDZ
    Blend: CC-PVDZ
  Basis Set: (CC-PVDZ AUX)
    Blend: CC-PVDZ-JKFIT

    Orbital Energies [Eh]
    ---------------------

    Alpha Occupied:

       1A1    -9.971239     2A1    -6.538108     3A1    -0.368530
       4A1    -0.115230     1B2    -0.015209     1B1    -0.001376
       5A1     0.003641     2B2     0.134151

    Alpha Virtual:

       2B1     0.201658     6A1     0.344538     3B2     0.515842
       3B1     0.529966     7A1     0.559803     8A1     0.598788
       9A1     0.703240     4B2     0.746432     4B1     0.752023
       1A2     0.929834    10A1     0.932780     5B2     0.970549
       5B1     0.971297    11A1     1.118233    12A1     1.319105
       2A2     1.423122    13A1     1.423949     6B2     1.682340
       6B1     1.682820    14A1     1.909791

    Beta Occupied:

       1A1    -9.943940     2A1    -6.523810     3A1    -0.262037
       4A1    -0.016642

    Beta Virtual:

       1B1     0.131849     5A1     0.139199     1B2     0.152628
       2B1     0.271501     2B2     0.292687     6A1     0.378956
       3B1     0.557971     3B2     0.578406     7A1     0.623249
       8A1     0.649589     9A1     0.755733     4B1     0.814630
       4B2     0.829144     1A2     0.997896    10A1     0.998168
       5B1     1.030059     5B2     1.051033    11A1     1.176350
      12A1     1.382915     2A2     1.525787    13A1     1.525839
       6B1     1.751343     6B2     1.769054    14A1     1.976445

    Final Occupation by Irrep:
             A1    A2    B1    B2
    DOCC [     4,    0,    0,    0 ]
    SOCC [     1,    0,    1,    2 ]
    NA   [     5,    0,    1,    2 ]
    NB   [     4,    0,    0,    0 ]

  @DF-UKS Final Energy:   -62.62828596014884

   => Energetics <=

    Nuclear Repulsion Energy =              9.3250064922822773
    One-Electron Energy =                -104.7622142687487496
    Two-Electron Energy =                  40.4742265599314308
    DFT Exchange-Correlation Energy =      -7.6653047436138033
    Empirical Dispersion Energy =           0.0000000000000000
    VV10 Nonlocal Energy =                  0.0000000000000000
    Total Energy =                        -62.6282859601488369

  UHF NO Occupations:
  HONO-2 :    5 A1 1.0000000
  HONO-1 :    1 B1 1.0000000
  HONO-0 :    2 B2 1.0000000
  LUNO+0 :    6 A1 0.0015379
  LUNO+1 :    7 A1 0.0008183
  LUNO+2 :    8 A1 0.0000003
  LUNO+3 :    9 A1 0.0000002

Computation Completed

Properties will be evaluated at   0.000000,   0.000000,   0.000000 [a0]

Properties computed using the SCF density matrix

 Multipole Moments:

 ------------------------------------------------------------------------------------
     Multipole            Electronic (a.u.)      Nuclear  (a.u.)        Total (a.u.)
 ------------------------------------------------------------------------------------

 L = 1.  Multiply by 2.5417464519 to convert [e a0] to [Debye]
 Dipole X            :          0.0000000            0.0000000            0.0000000
 Dipole Y            :          0.0000000            0.0000000            0.0000000
 Dipole Z            :          0.4757256           -0.8467251           -0.3709995
 Magnitude           :                                                    0.3709995

 ------------------------------------------------------------------------------------

*** tstop() called on Joses-MacBook-Pro-2.local at Thu Jul 17 09:49:36 2025
Module time:
	user time   =       3.57 seconds =       0.06 minutes
	system time =       3.05 seconds =       0.05 minutes
	total time  =          0 seconds =       0.00 minutes
Total time:
	user time   =      40.55 seconds =       0.68 minutes
	system time =      50.13 seconds =       0.84 minutes
	total time  =          8 seconds =       0.13 minutes

*** tstart() called on Joses-MacBook-Pro-2.local
*** at Thu Jul 17 09:49:36 2025

         ------------------------------------------------------------
                                   SCF GRAD
                          Rob Parrish, Justin Turney,
                       Andy Simmonett, and Alex Sokolov
         ------------------------------------------------------------

  ==> Geometry <==

    Molecular point group: c2v
    Full point group: C_inf_v

    Geometry (in Angstrom), charge = -1, multiplicity = 5:

       Center              X                  Y                   Z               Mass
    ------------   -----------------  -----------------  -----------------  -----------------
         B            0.000000000000     0.000000000000     0.887873273064    11.009305360000
         C            0.000000000000     0.000000000000    -0.814572332012    12.000000000000

  Nuclear repulsion =    9.325006492282277

  ==> Basis Set <==

  Basis Set: CC-PVDZ
    Blend: CC-PVDZ
    Number of shells: 12
    Number of basis functions: 28
    Number of Cartesian functions: 30
    Spherical Harmonics?: true
    Max angular momentum: 2

  ==> DFJKGrad: Density-Fitted SCF Gradients <==

    Gradient:                    1
    J tasked:                  Yes
    K tasked:                  Yes
    wK tasked:                  No
    OpenMP threads:              1
    Integrals threads:           1
    Memory [MiB]:              375
    Schwarz Cutoff:          1E-12
    Fitting Condition:       1E-10

   => Auxiliary Basis Set <=

  Basis Set: (CC-PVDZ AUX)
    Blend: CC-PVDZ-JKFIT
    Number of shells: 48
    Number of basis functions: 140
    Number of Cartesian functions: 162
    Spherical Harmonics?: true
    Max angular momentum: 3

  ==> DFT Potential <==

   => LibXC <=

    Version 6.2.2
    S. Lehtola, C. Steigemann, M. J.T. Oliveira, and M. A.L. Marques.,  SoftwareX 7, 1â€“5 (2018) (10.1016/j.softx.2017.11.002)

   => Composite Functional: B3LYP <=

    B3LYP Hyb-GGA Exchange-Correlation Functional

    P. J. Stephens, F. J. Devlin, C. F. Chabalowski, and M. J. Frisch.,  J. Phys. Chem. 98, 11623 (1994) (10.1021/j100096a001)

    Deriv               =              1
    GGA                 =           TRUE
    Meta                =          FALSE

    Exchange Hybrid     =           TRUE
    MP2 Hybrid          =          FALSE

   => Exchange Functionals <=

    0.0800   Slater exchange
    0.7200         Becke 88

   => Exact (HF) Exchange <=

    0.2000               HF

   => Correlation Functionals <=

    0.1900   Vosko, Wilk & Nusair (VWN5_RPA)
    0.8100   Lee, Yang & Parr

   => LibXC Density Thresholds  <==

    XC_HYB_GGA_XC_B3LYP:  1.00E-15

   => Molecular Quadrature <=

    Radial Scheme          =       TREUTLER
    Pruning Scheme         =           NONE
    Nuclear Scheme         =       TREUTLER

    Blocking Scheme        =         OCTREE
    BS radius alpha        =              1
    Pruning alpha          =              1
    Radial Points          =             75
    Spherical Points       =            302
    Total Points           =          43063
    Total Blocks           =            393
    Max Points             =            253
    Max Functions          =             28
    Weights Tolerance      =       1.00E-15

  -Total Gradient:
     Atom            X                  Y                   Z
    ------   -----------------  -----------------  -----------------
       1        0.000000000000     0.000000000000    -0.000071534904
       2        0.000000000000    -0.000000000000     0.000076664136

*** tstop() called on Joses-MacBook-Pro-2.local at Thu Jul 17 09:49:36 2025
Module time:
	user time   =       0.41 seconds =       0.01 minutes
	system time =       1.24 seconds =       0.02 minutes
	total time  =          0 seconds =       0.00 minutes
Total time:
	user time   =      40.97 seconds =       0.68 minutes
	system time =      51.37 seconds =       0.86 minutes
	total time  =          8 seconds =       0.13 minutes

    			-----------------------------------------

    			 OPTKING 3.0: for geometry optimizations

    			     By R.A. King, Bethel University

    			        with contributions from

    			    A.V. Copan, J. Cayton, A. Heide

    			-----------------------------------------

	                            ===> Fragment 1 <==

	 Z (Atomic Numbers)          Masses                          Geom
	       5.000000            11.009305          0.00000000  0.00000000  1.67783732
	       6.000000            12.000000          0.00000000  0.00000000 -1.53931862

	 - Coordinate -           - BOHR/RAD -       - ANG/DEG -
	 R(1,2)           =         3.217156           1.702446

	        --- Internal Coordinate Step in ANG or DEG, aJ/ANG or AJ/DEG ---
	-------------------------------------------------------------------------------
	           Coordinate      Previous         Force          Change          New
	           ----------      --------        ------          ------        ------
	               R(1,2)       1.70245        0.00061        0.00031       1.70275
	-------------------------------------------------------------------------------

	                                 ==> Convergence Check <==

	Measures of convergence in internal coordinates in au.

	Criteria marked as inactive (o), active & met (*), and active & unmet ( ).

	----------------------------------------------------------------------------------------------
	   Step    Total Energy     Delta E     Max Force     RMS Force      Max Disp      RMS Disp
	----------------------------------------------------------------------------------------------
	  Convergence Criteria     1.00e-06 *    3.00e-04 *             o    1.20e-03 *             o
	----------------------------------------------------------------------------------------------
	    10     -62.62828596   -9.22e-07 *    7.41e-05 *    7.41e-05 o    5.79e-04 *    5.79e-04 o  ~
	----------------------------------------------------------------------------------------------

Next Geometry in Ang
	Fragment 1 (Ang)

	    B   0.0000000000   0.0000000000   0.8880265294
	    C   0.0000000000   0.0000000000  -0.8147255883

    Final optimized geometry and variables:
    Molecular point group: c2v
    Full point group: C_inf_v

    Geometry (in Angstrom), charge = -1, multiplicity = 5:

    B            0.000000000000     0.000000000000     0.887873273064
    C            0.000000000000     0.000000000000    -0.814572332012

    Psi4 stopped on: Thursday, 17 July 2025 09:49AM
    Psi4 wall time for execution: 0:00:09.25

*** Psi4 exiting successfully. Buy a developer a beer!
