                               Psi4 1.9.1 release

  ==> Input File <==

--------------------------------------------------------------------------
molecule {
-1 5
Ne   0.00000        0.60000        0.00000
P   0.00000       -0.60000        0.00000
}

set {
basis              cc-pvdz
reference          uks
maxiter            500
geom_maxiter       500
DAMPING_PERCENTAGE 1
guess              SAP
}

optimize('b3lyp')
--------------------------------------------------------------------------

    Molecular point group: c2v
  Charge       = -1
  Multiplicity = 5
  Basis Set: CC-PVDZ
    Blend: CC-PVDZ
  Basis Set: (CC-PVDZ AUX)
    Blend: CC-PVDZ-JKFIT
  @DF-UKS Final Energy:  -469.08523701016543
    Total Energy =                       -469.0852370101654287
 Dipole X            :          0.0000000            0.0000000            0.0000000
 Dipole Y            :          0.0000000            0.0000000            0.0000000
 Dipole Z            :          1.8999011            0.4383075            2.3382086
 Magnitude           :                                                    2.3382086
    Molecular point group: c2v
  Basis Set: CC-PVDZ
    Blend: CC-PVDZ
  Basis Set: (CC-PVDZ AUX)
    Blend: CC-PVDZ-JKFIT
  Basis Set: CC-PVDZ
    Blend: CC-PVDZ
  Basis Set: (CC-PVDZ AUX)
    Blend: CC-PVDZ-JKFIT
  @DF-UKS Final Energy:  -469.33986032827141
    Total Energy =                       -469.3398603282714134
  Basis Set: CC-PVDZ
    Blend: CC-PVDZ
  Basis Set: (CC-PVDZ AUX)
    Blend: CC-PVDZ-JKFIT
  Basis Set: CC-PVDZ
    Blend: CC-PVDZ
  @DF-UKS Final Energy:  -469.50932519955558
    Total Energy =                       -469.5093251995555761
  @DF-UKS Final Energy:  -469.61711716167565
    Total Energy =                       -469.6171171616756510
  @DF-UKS Final Energy:  -469.67270662497708
    Total Energy =                       -469.6727066249770814
  @DF-UKS Final Energy:  -469.69871611021711
    Total Energy =                       -469.6987161102171058
  @DF-UKS Final Energy:  -469.71756064722666
    Total Energy =                       -469.7175606472266622
  @DF-UKS Final Energy:  -469.73960156456633
    Total Energy =                       -469.7396015645662715
  @DF-UKS Final Energy:  -469.74124815039590
    Total Energy =                       -469.7412481503959043
  @DF-UKS Final Energy:  -469.75302481571606
    Total Energy =                       -469.7530248157160599
  @DF-UKS Final Energy:  -469.75345751787387
    Total Energy =                       -469.7534575178738692
  @DF-UKS Final Energy:  -469.75771073352610
    Total Energy =                       -469.7577107335260962
  @DF-UKS Final Energy:  -469.75778684585845
    Total Energy =                       -469.7577868458584476
  @DF-UKS Final Energy:  -469.75897918586992
    Total Energy =                       -469.7589791858699186
  @DF-UKS Final Energy:  -469.75920994931937
    Total Energy =                       -469.7592099493193700
  @DF-UKS Final Energy:  -469.75928171328468
    Total Energy =                       -469.7592817132846790
  @DF-UKS Final Energy:  -469.75929205697736
    Total Energy =                       -469.7592920569773582
  Basis Set: (CC-PVDZ AUX)
    Blend: CC-PVDZ-JKFIT
  Basis Set: CC-PVDZ
    Blend: CC-PVDZ
  Basis Set: (CC-PVDZ AUX)
    Blend: CC-PVDZ-JKFIT
  @DF-UKS Final Energy:  -469.75929432021809
    Total Energy =                       -469.7592943202180891
  Basis Set: CC-PVDZ
    Blend: CC-PVDZ
  Basis Set: (CC-PVDZ AUX)
    Blend: CC-PVDZ-JKFIT
  Charge       = -1
  Multiplicity = 5
  Basis Set: CC-PVDZ
    Blend: CC-PVDZ
  Basis Set: (CC-PVDZ AUX)
    Blend: CC-PVDZ-JKFIT

    Orbital Energies [Eh]
    ---------------------

    Alpha Occupied:

       1A1   -76.759894     2A1   -30.812220     3A1    -6.240450
       4A1    -4.400166     1B2    -4.400156     1B1    -4.400156
       5A1    -1.278057     2B1    -0.387012     2B2    -0.387012
       6A1    -0.385527     7A1    -0.297573     3B1     0.028790
       3B2     0.028790     8A1     0.029211     9A1     0.524132

    Alpha Virtual:

      10A1     0.651264     4B1     0.651686     4B2     0.651686
      11A1     0.734994     5B2     0.735112     5B1     0.735112
       1A2     0.735119    12A1     0.735120     6B2     1.511161
       6B1     1.511161    13A1     1.529891    14A1     1.978489
       2A2     4.878519    15A1     4.878662     7B2     4.879544
       7B1     4.879544    16A1     4.880173

    Beta Occupied:

       1A1   -76.743143     2A1   -30.812009     3A1    -6.220862
       1B2    -4.378355     1B1    -4.378355     4A1    -4.378333
       5A1    -1.277771     2B1    -0.386899     2B2    -0.386899
       6A1    -0.384935     7A1    -0.171568

    Beta Virtual:

       3B1     0.177509     3B2     0.177509     8A1     0.177949
       9A1     0.651389    10A1     0.728582     4B1     0.729861
       4B2     0.729861    11A1     0.830160    12A1     0.830252
       1A2     0.830253     5B2     0.830274     5B1     0.830274
       6B2     1.511071     6B1     1.511071    13A1     1.530740
      14A1     1.979070     2A2     4.878611    15A1     4.878753
       7B1     4.879815     7B2     4.879815    16A1     4.880506

    Final Occupation by Irrep:
             A1    A2    B1    B2
    DOCC [     7,    0,    2,    2 ]
    SOCC [     2,    0,    1,    1 ]
    NA   [     9,    0,    3,    3 ]
    NB   [     7,    0,    2,    2 ]

  @DF-UKS Final Energy:  -469.75929494069334

   => Energetics <=

    Nuclear Repulsion Energy =             21.8969720500341580
    One-Electron Energy =                -703.9629598385417921
    Two-Electron Energy =                 241.3257813382037682
    DFT Exchange-Correlation Energy =     -29.0190884903894286
    Empirical Dispersion Energy =           0.0000000000000000
    VV10 Nonlocal Energy =                  0.0000000000000000
    Total Energy =                       -469.7592949406932803

  UHF NO Occupations:
  HONO-2 :    3 B1 1.0000000
  HONO-1 :    8 A1 1.0000000
  HONO-0 :    9 A1 1.0000000
  LUNO+0 :   10 A1 0.0000002
  LUNO+1 :    4 B2 0.0000002
  LUNO+2 :    4 B1 0.0000002
  LUNO+3 :   11 A1 0.0000002

Computation Completed

Properties will be evaluated at   0.000000,   0.000000,   0.000000 [a0]

Properties computed using the SCF density matrix

 Multipole Moments:

 ------------------------------------------------------------------------------------
     Multipole            Electronic (a.u.)      Nuclear  (a.u.)        Total (a.u.)
 ------------------------------------------------------------------------------------

 L = 1.  Multiply by 2.5417464519 to convert [e a0] to [Debye]
 Dipole X            :          0.0000000            0.0000000            0.0000000
 Dipole Y            :          0.0000000            0.0000000            0.0000000
 Dipole Z            :          1.3453090            1.3240549            2.6693640
 Magnitude           :                                                    2.6693640

 ------------------------------------------------------------------------------------

*** tstop() called on Joses-MacBook-Pro-2.local at Thu Jul 17 11:02:31 2025
Module time:
	user time   =       3.10 seconds =       0.05 minutes
	system time =       3.38 seconds =       0.06 minutes
	total time  =          1 seconds =       0.02 minutes
Total time:
	user time   =      96.11 seconds =       1.60 minutes
	system time =     104.97 seconds =       1.75 minutes
	total time  =         21 seconds =       0.35 minutes

*** tstart() called on Joses-MacBook-Pro-2.local
*** at Thu Jul 17 11:02:31 2025

         ------------------------------------------------------------
                                   SCF GRAD
                          Rob Parrish, Justin Turney,
                       Andy Simmonett, and Alex Sokolov
         ------------------------------------------------------------

  ==> Geometry <==

    Molecular point group: c2v
    Full point group: C_inf_v

    Geometry (in Angstrom), charge = -1, multiplicity = 5:

       Center              X                  Y                   Z               Mass
    ------------   -----------------  -----------------  -----------------  -----------------
         NE           0.000000000000     0.000000000000     2.203027975039    19.992440176200
         P            0.000000000000     0.000000000000    -1.421974670036    30.973761998420

  Nuclear repulsion =   21.896972050034158

  ==> Basis Set <==

  Basis Set: CC-PVDZ
    Blend: CC-PVDZ
    Number of shells: 14
    Number of basis functions: 32
    Number of Cartesian functions: 34
    Spherical Harmonics?: true
    Max angular momentum: 2

  ==> DFJKGrad: Density-Fitted SCF Gradients <==

    Gradient:                    1
    J tasked:                  Yes
    K tasked:                  Yes
    wK tasked:                  No
    OpenMP threads:              1
    Integrals threads:           1
    Memory [MiB]:              375
    Schwarz Cutoff:          1E-12
    Fitting Condition:       1E-10

   => Auxiliary Basis Set <=

  Basis Set: (CC-PVDZ AUX)
    Blend: CC-PVDZ-JKFIT
    Number of shells: 60
    Number of basis functions: 182
    Number of Cartesian functions: 211
    Spherical Harmonics?: true
    Max angular momentum: 3

  ==> DFT Potential <==

   => LibXC <=

    Version 6.2.2
    S. Lehtola, C. Steigemann, M. J.T. Oliveira, and M. A.L. Marques.,  SoftwareX 7, 1â€“5 (2018) (10.1016/j.softx.2017.11.002)

   => Composite Functional: B3LYP <=

    B3LYP Hyb-GGA Exchange-Correlation Functional

    P. J. Stephens, F. J. Devlin, C. F. Chabalowski, and M. J. Frisch.,  J. Phys. Chem. 98, 11623 (1994) (10.1021/j100096a001)

    Deriv               =              1
    GGA                 =           TRUE
    Meta                =          FALSE

    Exchange Hybrid     =           TRUE
    MP2 Hybrid          =          FALSE

   => Exchange Functionals <=

    0.0800   Slater exchange
    0.7200         Becke 88

   => Exact (HF) Exchange <=

    0.2000               HF

   => Correlation Functionals <=

    0.1900   Vosko, Wilk & Nusair (VWN5_RPA)
    0.8100   Lee, Yang & Parr

   => LibXC Density Thresholds  <==

    XC_HYB_GGA_XC_B3LYP:  1.00E-15

   => Molecular Quadrature <=

    Radial Scheme          =       TREUTLER
    Pruning Scheme         =           NONE
    Nuclear Scheme         =       TREUTLER

    Blocking Scheme        =         OCTREE
    BS radius alpha        =              1
    Pruning alpha          =              1
    Radial Points          =             75
    Spherical Points       =            302
    Total Points           =          42822
    Total Blocks           =            398
    Max Points             =            254
    Max Functions          =             32
    Weights Tolerance      =       1.00E-15

  -Total Gradient:
     Atom            X                  Y                   Z
    ------   -----------------  -----------------  -----------------
       1        0.000000000000     0.000000000000     0.000000200749
       2        0.000000000000     0.000000000000     0.000041516358

*** tstop() called on Joses-MacBook-Pro-2.local at Thu Jul 17 11:02:31 2025
Module time:
	user time   =       0.84 seconds =       0.01 minutes
	system time =       1.56 seconds =       0.03 minutes
	total time  =          0 seconds =       0.00 minutes
Total time:
	user time   =      96.96 seconds =       1.62 minutes
	system time =     106.54 seconds =       1.78 minutes
	total time  =         21 seconds =       0.35 minutes

    			-----------------------------------------

    			 OPTKING 3.0: for geometry optimizations

    			     By R.A. King, Bethel University

    			        with contributions from

    			    A.V. Copan, J. Cayton, A. Heide

    			-----------------------------------------

	                            ===> Fragment 1 <==

	 Z (Atomic Numbers)          Masses                          Geom
	      10.000000            19.992440          0.00000000  0.00000000  4.16311952
	      15.000000            30.973762          0.00000000  0.00000000 -2.68714268

	 - Coordinate -           - BOHR/RAD -       - ANG/DEG -
	 R(1,2)           =         6.850262           3.625003

	        --- Internal Coordinate Step in ANG or DEG, aJ/ANG or AJ/DEG ---
	-------------------------------------------------------------------------------
	           Coordinate      Previous         Force          Change          New
	           ----------      --------        ------          ------        ------
	               R(1,2)       3.62500        0.00017        0.00365       3.62865
	-------------------------------------------------------------------------------

	                                 ==> Convergence Check <==

	Measures of convergence in internal coordinates in au.

	Criteria marked as inactive (o), active & met (*), and active & unmet ( ).

	----------------------------------------------------------------------------------------------
	   Step    Total Energy     Delta E     Max Force     RMS Force      Max Disp      RMS Disp
	----------------------------------------------------------------------------------------------
	  Convergence Criteria     1.00e-06 *    3.00e-04 *             o    1.20e-03 *             o
	----------------------------------------------------------------------------------------------
	    19    -469.75929494   -6.20e-07 *    2.07e-05 *    2.07e-05 o    6.90e-03      6.90e-03 o  ~
	----------------------------------------------------------------------------------------------

Next Geometry in Ang
	Fragment 1 (Ang)

	   Ne   0.0000000000   0.0000000000   2.2048541192
	    P   0.0000000000   0.0000000000  -1.4238008142

    Final optimized geometry and variables:
    Molecular point group: c2v
    Full point group: C_inf_v

    Geometry (in Angstrom), charge = -1, multiplicity = 5:

    NE           0.000000000000     0.000000000000     2.203027975039
    P            0.000000000000     0.000000000000    -1.421974670036

    Psi4 stopped on: Thursday, 17 July 2025 11:02AM
    Psi4 wall time for execution: 0:00:21.32

*** Psi4 exiting successfully. Buy a developer a beer!
