                               Psi4 1.9.1 release

  ==> Input File <==

--------------------------------------------------------------------------
molecule {
-1 5
C   0.00000        0.60000        0.00000
P   0.00000       -0.60000        0.00000
}

set {
basis              cc-pvdz
reference          uks
maxiter            500
geom_maxiter       500
DAMPING_PERCENTAGE 1
guess              SAP
}

optimize('b3lyp')
--------------------------------------------------------------------------

    Molecular point group: c2v
  Charge       = -1
  Multiplicity = 5
  Basis Set: CC-PVDZ
    Blend: CC-PVDZ
  Basis Set: (CC-PVDZ AUX)
    Blend: CC-PVDZ-JKFIT
  @DF-UKS Final Energy:  -378.73274137412596
    Total Energy =                       -378.7327413741259647
 Dipole X            :          0.0000000            0.0000000            0.0000000
 Dipole Y            :          0.0000000            0.0000000            0.0000000
 Dipole Z            :          0.1228584            0.3083052            0.4311635
 Magnitude           :                                                    0.4311635
    Molecular point group: c2v
  Basis Set: CC-PVDZ
    Blend: CC-PVDZ
  Basis Set: (CC-PVDZ AUX)
    Blend: CC-PVDZ-JKFIT
  Basis Set: CC-PVDZ
    Blend: CC-PVDZ
  Basis Set: (CC-PVDZ AUX)
    Blend: CC-PVDZ-JKFIT
  @DF-UKS Final Energy:  -379.00225565858625
    Total Energy =                       -379.0022556585863072
  Basis Set: CC-PVDZ
    Blend: CC-PVDZ
  Basis Set: (CC-PVDZ AUX)
    Blend: CC-PVDZ-JKFIT
  Basis Set: CC-PVDZ
    Blend: CC-PVDZ
  @DF-UKS Final Energy:  -379.12487792502895
    Total Energy =                       -379.1248779250289545
  @DF-UKS Final Energy:  -379.18102132859576
    Total Energy =                       -379.1810213285957616
  @DF-UKS Final Energy:  -379.20404374801734
    Total Energy =                       -379.2040437480173409
  @DF-UKS Final Energy:  -379.21070180228827
    Total Energy =                       -379.2107018022882698
  @DF-UKS Final Energy:  -379.21381332227804
    Total Energy =                       -379.2138133222780425
  @DF-UKS Final Energy:  -379.21466035300637
    Total Energy =                       -379.2146603530063658
  @DF-UKS Final Energy:  -379.21499479003660
    Total Energy =                       -379.2149947900365419
  @DF-UKS Final Energy:  -379.21505761370332
    Total Energy =                       -379.2150576137033227
  Basis Set: (CC-PVDZ AUX)
    Blend: CC-PVDZ-JKFIT
  Basis Set: CC-PVDZ
    Blend: CC-PVDZ
  Basis Set: (CC-PVDZ AUX)
    Blend: CC-PVDZ-JKFIT
  @DF-UKS Final Energy:  -379.21507195417024
    Total Energy =                       -379.2150719541702983
  Basis Set: CC-PVDZ
    Blend: CC-PVDZ
  Basis Set: (CC-PVDZ AUX)
    Blend: CC-PVDZ-JKFIT
  Charge       = -1
  Multiplicity = 5
  Basis Set: CC-PVDZ
    Blend: CC-PVDZ
  Basis Set: (CC-PVDZ AUX)
    Blend: CC-PVDZ-JKFIT

    Orbital Energies [Eh]
    ---------------------

    Alpha Occupied:

       1A1   -76.838185     2A1    -9.971339     3A1    -6.303666
       1B2    -4.470105     4A1    -4.468829     1B1    -4.458880
       5A1    -0.406008     6A1    -0.243082     7A1    -0.049121
       2B2    -0.042661     2B1    -0.018606     3B2     0.066454
       3B1     0.089157

    Alpha Virtual:

       8A1     0.279576     9A1     0.587435    10A1     0.635071
       4B2     0.636994     4B1     0.661064    11A1     0.674441
       5B2     0.690678     5B1     0.709425     1A2     0.717361
      12A1     0.718531     6B2     0.771307     6B1     0.787756
      13A1     1.009510    14A1     1.064924     2A2     1.401312
      15A1     1.401380     7B2     1.523584     7B1     1.538063
      16A1     1.882243

    Beta Occupied:

       1A1   -76.832006     2A1    -9.938915     3A1    -6.297136
       4A1    -4.460505     1B2    -4.455555     1B1    -4.452437
       5A1    -0.323046     6A1    -0.133686     2B1     0.041802

    Beta Virtual:

       7A1     0.099597     2B2     0.106299     3B1     0.226829
       3B2     0.239639     8A1     0.333945     9A1     0.618031
      10A1     0.675849     4B1     0.678289     4B2     0.683816
      11A1     0.743976     1A2     0.774259     5B1     0.775581
      12A1     0.777649     5B2     0.782304     6B1     0.836820
       6B2     0.840293    13A1     1.061127    14A1     1.124507
       2A2     1.508693    15A1     1.509635     7B1     1.620662
       7B2     1.623696    16A1     1.963113

    Final Occupation by Irrep:
             A1    A2    B1    B2
    DOCC [     6,    0,    2,    1 ]
    SOCC [     1,    0,    1,    2 ]
    NA   [     7,    0,    3,    3 ]
    NB   [     6,    0,    2,    1 ]

  @DF-UKS Final Energy:  -379.21507373826682

   => Energetics <=

    Nuclear Repulsion Energy =             24.6078940306551637
    One-Electron Energy =                -577.1388646951673991
    Two-Electron Energy =                 196.5025757269273470
    DFT Exchange-Correlation Energy =     -23.1866788006819036
    Empirical Dispersion Energy =           0.0000000000000000
    VV10 Nonlocal Energy =                  0.0000000000000000
    Total Energy =                       -379.2150737382667103

  UHF NO Occupations:
  HONO-2 :    7 A1 1.0000000
  HONO-1 :    2 B2 1.0000000
  HONO-0 :    3 B2 1.0000000
  LUNO+0 :    4 B1 0.0013662
  LUNO+1 :    8 A1 0.0009012
  LUNO+2 :    9 A1 0.0005395
  LUNO+3 :   10 A1 0.0000002

Computation Completed

Properties will be evaluated at   0.000000,   0.000000,   0.000000 [a0]

Properties computed using the SCF density matrix

 Multipole Moments:

 ------------------------------------------------------------------------------------
     Multipole            Electronic (a.u.)      Nuclear  (a.u.)        Total (a.u.)
 ------------------------------------------------------------------------------------

 L = 1.  Multiply by 2.5417464519 to convert [e a0] to [Debye]
 Dipole X            :          0.0000000            0.0000000            0.0000000
 Dipole Y            :          0.0000000            0.0000000            0.0000000
 Dipole Z            :         -1.0833856            0.4972431           -0.5861425
 Magnitude           :                                                    0.5861425

 ------------------------------------------------------------------------------------

*** tstop() called on Joses-MacBook-Pro-2.local at Thu Jul 17 10:21:39 2025
Module time:
	user time   =       5.62 seconds =       0.09 minutes
	system time =       2.08 seconds =       0.03 minutes
	total time  =          0 seconds =       0.00 minutes
Total time:
	user time   =      78.62 seconds =       1.31 minutes
	system time =      52.76 seconds =       0.88 minutes
	total time  =         13 seconds =       0.22 minutes

*** tstart() called on Joses-MacBook-Pro-2.local
*** at Thu Jul 17 10:21:39 2025

         ------------------------------------------------------------
                                   SCF GRAD
                          Rob Parrish, Justin Turney,
                       Andy Simmonett, and Alex Sokolov
         ------------------------------------------------------------

  ==> Geometry <==

    Molecular point group: c2v
    Full point group: C_inf_v

    Geometry (in Angstrom), charge = -1, multiplicity = 5:

       Center              X                  Y                   Z               Mass
    ------------   -----------------  -----------------  -----------------  -----------------
         C            0.000000000000     0.000000000000     1.394953648005    12.000000000000
         P            0.000000000000     0.000000000000    -0.540439478321    30.973761998420

  Nuclear repulsion =   24.607894030655164

  ==> Basis Set <==

  Basis Set: CC-PVDZ
    Blend: CC-PVDZ
    Number of shells: 14
    Number of basis functions: 32
    Number of Cartesian functions: 34
    Spherical Harmonics?: true
    Max angular momentum: 2

  ==> DFJKGrad: Density-Fitted SCF Gradients <==

    Gradient:                    1
    J tasked:                  Yes
    K tasked:                  Yes
    wK tasked:                  No
    OpenMP threads:              1
    Integrals threads:           1
    Memory [MiB]:              375
    Schwarz Cutoff:          1E-12
    Fitting Condition:       1E-10

   => Auxiliary Basis Set <=

  Basis Set: (CC-PVDZ AUX)
    Blend: CC-PVDZ-JKFIT
    Number of shells: 60
    Number of basis functions: 182
    Number of Cartesian functions: 211
    Spherical Harmonics?: true
    Max angular momentum: 3

  ==> DFT Potential <==

   => LibXC <=

    Version 6.2.2
    S. Lehtola, C. Steigemann, M. J.T. Oliveira, and M. A.L. Marques.,  SoftwareX 7, 1â€“5 (2018) (10.1016/j.softx.2017.11.002)

   => Composite Functional: B3LYP <=

    B3LYP Hyb-GGA Exchange-Correlation Functional

    P. J. Stephens, F. J. Devlin, C. F. Chabalowski, and M. J. Frisch.,  J. Phys. Chem. 98, 11623 (1994) (10.1021/j100096a001)

    Deriv               =              1
    GGA                 =           TRUE
    Meta                =          FALSE

    Exchange Hybrid     =           TRUE
    MP2 Hybrid          =          FALSE

   => Exchange Functionals <=

    0.0800   Slater exchange
    0.7200         Becke 88

   => Exact (HF) Exchange <=

    0.2000               HF

   => Correlation Functionals <=

    0.1900   Vosko, Wilk & Nusair (VWN5_RPA)
    0.8100   Lee, Yang & Parr

   => LibXC Density Thresholds  <==

    XC_HYB_GGA_XC_B3LYP:  1.00E-15

   => Molecular Quadrature <=

    Radial Scheme          =       TREUTLER
    Pruning Scheme         =           NONE
    Nuclear Scheme         =       TREUTLER

    Blocking Scheme        =         OCTREE
    BS radius alpha        =              1
    Pruning alpha          =              1
    Radial Points          =             75
    Spherical Points       =            302
    Total Points           =          41945
    Total Blocks           =            373
    Max Points             =            256
    Max Functions          =             32
    Weights Tolerance      =       1.00E-15

  -Total Gradient:
     Atom            X                  Y                   Z
    ------   -----------------  -----------------  -----------------
       1        0.000000000000     0.000000000000    -0.000134140156
       2        0.000000000000    -0.000000000000     0.000124407906

*** tstop() called on Joses-MacBook-Pro-2.local at Thu Jul 17 10:21:40 2025
Module time:
	user time   =       2.07 seconds =       0.03 minutes
	system time =       0.43 seconds =       0.01 minutes
	total time  =          1 seconds =       0.02 minutes
Total time:
	user time   =      80.71 seconds =       1.35 minutes
	system time =      53.20 seconds =       0.89 minutes
	total time  =         14 seconds =       0.23 minutes

    			-----------------------------------------

    			 OPTKING 3.0: for geometry optimizations

    			     By R.A. King, Bethel University

    			        with contributions from

    			    A.V. Copan, J. Cayton, A. Heide

    			-----------------------------------------

	                            ===> Fragment 1 <==

	 Z (Atomic Numbers)          Masses                          Geom
	       6.000000            12.000000          0.00000000  0.00000000  2.63608035
	      15.000000            30.973762          0.00000000  0.00000000 -1.02128260

	 - Coordinate -           - BOHR/RAD -       - ANG/DEG -
	 R(1,2)           =         3.657363           1.935393

	        --- Internal Coordinate Step in ANG or DEG, aJ/ANG or AJ/DEG ---
	-------------------------------------------------------------------------------
	           Coordinate      Previous         Force          Change          New
	           ----------      --------        ------          ------        ------
	               R(1,2)       1.93539        0.00107        0.00061       1.93600
	-------------------------------------------------------------------------------

	                                 ==> Convergence Check <==

	Measures of convergence in internal coordinates in au.

	Criteria marked as inactive (o), active & met (*), and active & unmet ( ).

	----------------------------------------------------------------------------------------------
	   Step    Total Energy     Delta E     Max Force     RMS Force      Max Disp      RMS Disp
	----------------------------------------------------------------------------------------------
	  Convergence Criteria     1.00e-06 *    3.00e-04 *             o    1.20e-03 *             o
	----------------------------------------------------------------------------------------------
	    12    -379.21507374   -1.78e-06      1.29e-04 *    1.29e-04 o    1.16e-03 *    1.16e-03 o  ~
	----------------------------------------------------------------------------------------------

Next Geometry in Ang
	Fragment 1 (Ang)

	    C   0.0000000000   0.0000000000   1.3952595103
	    P   0.0000000000   0.0000000000  -0.5407453407

    Final optimized geometry and variables:
    Molecular point group: c2v
    Full point group: C_inf_v

    Geometry (in Angstrom), charge = -1, multiplicity = 5:

    C            0.000000000000     0.000000000000     1.394953648005
    P            0.000000000000     0.000000000000    -0.540439478321

    Psi4 stopped on: Thursday, 17 July 2025 10:21AM
    Psi4 wall time for execution: 0:00:14.90

*** Psi4 exiting successfully. Buy a developer a beer!
