                               Psi4 1.9.1 release

  ==> Input File <==

--------------------------------------------------------------------------
molecule {
-1 5
H   0.00000        0.60000        0.00000
C   0.00000       -0.60000        0.00000
}

set {
basis              cc-pvdz
reference          uks
maxiter            500
geom_maxiter       500
DAMPING_PERCENTAGE 1
guess              SAP
}

optimize('b3lyp')
--------------------------------------------------------------------------

    Molecular point group: c2v
  Charge       = -1
  Multiplicity = 5
  Basis Set: CC-PVDZ
    Blend: CC-PVDZ
  Basis Set: (CC-PVDZ AUX)
    Blend: CC-PVDZ-JKFIT
  @DF-UKS Final Energy:   -38.29459759265698
    Total Energy =                        -38.2945975926569773
 Dipole X            :          0.0000000            0.0000000            0.0000000
 Dipole Y            :          0.0000000            0.0000000            0.0000000
 Dipole Z            :         -2.5835949            1.0378031           -1.5457919
 Magnitude           :                                                    1.5457919
    Molecular point group: c2v
  Basis Set: CC-PVDZ
    Blend: CC-PVDZ
  Basis Set: (CC-PVDZ AUX)
    Blend: CC-PVDZ-JKFIT
  Basis Set: CC-PVDZ
    Blend: CC-PVDZ
  Basis Set: (CC-PVDZ AUX)
    Blend: CC-PVDZ-JKFIT
  @DF-UKS Final Energy:   -38.30872646959713
    Total Energy =                        -38.3087264695971257
  Basis Set: CC-PVDZ
    Blend: CC-PVDZ
  Basis Set: (CC-PVDZ AUX)
    Blend: CC-PVDZ-JKFIT
  Basis Set: CC-PVDZ
    Blend: CC-PVDZ
  @DF-UKS Final Energy:   -38.33626717668596
    Total Energy =                        -38.3362671766859648
  @DF-UKS Final Energy:   -38.35185163686172
    Total Energy =                        -38.3518516368617171
  @DF-UKS Final Energy:   -38.35780015514221
    Total Energy =                        -38.3578001551422219
  @DF-UKS Final Energy:   -38.36144906952175
    Total Energy =                        -38.3614490695217540
  @DF-UKS Final Energy:   -38.36350381176762
    Total Energy =                        -38.3635038117676217
  @DF-UKS Final Energy:   -38.36463828442344
    Total Energy =                        -38.3646382844234353
  @DF-UKS Final Energy:   -38.36519794995746
    Total Energy =                        -38.3651979499574551
  @DF-UKS Final Energy:   -38.36544154045481
    Total Energy =                        -38.3654415404548104
  @DF-UKS Final Energy:   -38.36553050336105
    Total Energy =                        -38.3655305033610503
  @DF-UKS Final Energy:   -38.36555507344929
    Total Energy =                        -38.3655550734492934
  Basis Set: (CC-PVDZ AUX)
    Blend: CC-PVDZ-JKFIT
  Basis Set: CC-PVDZ
    Blend: CC-PVDZ
  Basis Set: (CC-PVDZ AUX)
    Blend: CC-PVDZ-JKFIT
  @DF-UKS Final Energy:   -38.36555925766200
    Total Energy =                        -38.3655592576619995
  Basis Set: CC-PVDZ
    Blend: CC-PVDZ
  Basis Set: (CC-PVDZ AUX)
    Blend: CC-PVDZ-JKFIT
  Charge       = -1
  Multiplicity = 5
  Basis Set: CC-PVDZ
    Blend: CC-PVDZ
  Basis Set: (CC-PVDZ AUX)
    Blend: CC-PVDZ-JKFIT

    Orbital Energies [Eh]
    ---------------------

    Alpha Occupied:

       1A1    -9.853125     2A1    -0.202904     3A1    -0.177439
       1B1     0.124372     1B2     0.124372     4A1     0.124575

    Alpha Virtual:

       5A1     0.555940     2B1     0.794124     2B2     0.794124
       6A1     0.806284     7A1     0.885538     3B2     1.351105
       3B1     1.351105     8A1     1.355330     9A1     1.500286
       1A2     1.500286     4B2     1.500340     4B1     1.500340
      10A1     1.500884

    Beta Occupied:

       1A1    -9.821866     2A1    -0.059632

    Beta Virtual:

       3A1     0.069112     1B2     0.301632     1B1     0.301632
       4A1     0.301817     5A1     0.713663     2B1     0.882470
       2B2     0.882470     6A1     0.895987     7A1     0.966840
       3B1     1.531244     3B2     1.531244     8A1     1.533440
       4B2     1.611158     4B1     1.611158     9A1     1.611246
       1A2     1.611246    10A1     1.611640

    Final Occupation by Irrep:
             A1    A2    B1    B2
    DOCC [     2,    0,    0,    0 ]
    SOCC [     2,    0,    1,    1 ]
    NA   [     4,    0,    1,    1 ]
    NB   [     2,    0,    0,    0 ]

  @DF-UKS Final Energy:   -38.36555955018540

   => Energetics <=

    Nuclear Repulsion Energy =              0.8415045963899469
    One-Electron Energy =                 -55.2653112523971188
    Two-Electron Energy =                  20.7856740841744028
    DFT Exchange-Correlation Energy =      -4.7274269783526286
    Empirical Dispersion Energy =           0.0000000000000000
    VV10 Nonlocal Energy =                  0.0000000000000000
    Total Energy =                        -38.3655595501853952

  UHF NO Occupations:
  HONO-2 :    1 B1 1.0000000
  HONO-1 :    3 A1 1.0000000
  HONO-0 :    4 A1 1.0000000
  LUNO+0 :    5 A1 0.0007368
  LUNO+1 :    6 A1 0.0000001
  LUNO+2 :    7 A1 0.0000000
  LUNO+3 :    8 A1 0.0000000

Computation Completed

Properties will be evaluated at   0.000000,   0.000000,   0.000000 [a0]

Properties computed using the SCF density matrix

 Multipole Moments:

 ------------------------------------------------------------------------------------
     Multipole            Electronic (a.u.)      Nuclear  (a.u.)        Total (a.u.)
 ------------------------------------------------------------------------------------

 L = 1.  Multiply by 2.5417464519 to convert [e a0] to [Debye]
 Dipole X            :          0.0000000            0.0000000            0.0000000
 Dipole Y            :          0.0000000            0.0000000            0.0000000
 Dipole Z            :         -2.7605362            3.2630940            0.5025578
 Magnitude           :                                                    0.5025578

 ------------------------------------------------------------------------------------

*** tstop() called on Joses-MacBook-Pro-2.local at Thu Jul 17 09:11:30 2025
Module time:
	user time   =       0.60 seconds =       0.01 minutes
	system time =       3.02 seconds =       0.05 minutes
	total time  =          0 seconds =       0.00 minutes
Total time:
	user time   =      16.55 seconds =       0.28 minutes
	system time =      55.60 seconds =       0.93 minutes
	total time  =          8 seconds =       0.13 minutes

*** tstart() called on Joses-MacBook-Pro-2.local
*** at Thu Jul 17 09:11:30 2025

         ------------------------------------------------------------
                                   SCF GRAD
                          Rob Parrish, Justin Turney,
                       Andy Simmonett, and Alex Sokolov
         ------------------------------------------------------------

  ==> Geometry <==

    Molecular point group: c2v
    Full point group: C_inf_v

    Geometry (in Angstrom), charge = -1, multiplicity = 5:

       Center              X                  Y                   Z               Mass
    ------------   -----------------  -----------------  -----------------  -----------------
         H            0.000000000000     0.000000000000     3.480746940758     1.007825032230
         C            0.000000000000     0.000000000000    -0.292331991479    12.000000000000

  Nuclear repulsion =    0.841504596389947

  ==> Basis Set <==

  Basis Set: CC-PVDZ
    Blend: CC-PVDZ
    Number of shells: 9
    Number of basis functions: 19
    Number of Cartesian functions: 20
    Spherical Harmonics?: true
    Max angular momentum: 2

  ==> DFJKGrad: Density-Fitted SCF Gradients <==

    Gradient:                    1
    J tasked:                  Yes
    K tasked:                  Yes
    wK tasked:                  No
    OpenMP threads:              1
    Integrals threads:           1
    Memory [MiB]:              375
    Schwarz Cutoff:          1E-12
    Fitting Condition:       1E-10

   => Auxiliary Basis Set <=

  Basis Set: (CC-PVDZ AUX)
    Blend: CC-PVDZ-JKFIT
    Number of shells: 33
    Number of basis functions: 93
    Number of Cartesian functions: 106
    Spherical Harmonics?: true
    Max angular momentum: 3

  ==> DFT Potential <==

   => LibXC <=

    Version 6.2.2
    S. Lehtola, C. Steigemann, M. J.T. Oliveira, and M. A.L. Marques.,  SoftwareX 7, 1â€“5 (2018) (10.1016/j.softx.2017.11.002)

   => Composite Functional: B3LYP <=

    B3LYP Hyb-GGA Exchange-Correlation Functional

    P. J. Stephens, F. J. Devlin, C. F. Chabalowski, and M. J. Frisch.,  J. Phys. Chem. 98, 11623 (1994) (10.1021/j100096a001)

    Deriv               =              1
    GGA                 =           TRUE
    Meta                =          FALSE

    Exchange Hybrid     =           TRUE
    MP2 Hybrid          =          FALSE

   => Exchange Functionals <=

    0.0800   Slater exchange
    0.7200         Becke 88

   => Exact (HF) Exchange <=

    0.2000               HF

   => Correlation Functionals <=

    0.1900   Vosko, Wilk & Nusair (VWN5_RPA)
    0.8100   Lee, Yang & Parr

   => LibXC Density Thresholds  <==

    XC_HYB_GGA_XC_B3LYP:  1.00E-15

   => Molecular Quadrature <=

    Radial Scheme          =       TREUTLER
    Pruning Scheme         =           NONE
    Nuclear Scheme         =       TREUTLER

    Blocking Scheme        =         OCTREE
    BS radius alpha        =              1
    Pruning alpha          =              1
    Radial Points          =             75
    Spherical Points       =            302
    Total Points           =          43904
    Total Blocks           =            392
    Max Points             =            253
    Max Functions          =             19
    Weights Tolerance      =       1.00E-15

  -Total Gradient:
     Atom            X                  Y                   Z
    ------   -----------------  -----------------  -----------------
       1       -0.000000000000    -0.000000000000    -0.000003645423
       2       -0.000000000000     0.000000000000     0.000004887517

*** tstop() called on Joses-MacBook-Pro-2.local at Thu Jul 17 09:11:30 2025
Module time:
	user time   =       0.31 seconds =       0.01 minutes
	system time =       0.69 seconds =       0.01 minutes
	total time  =          0 seconds =       0.00 minutes
Total time:
	user time   =      16.86 seconds =       0.28 minutes
	system time =      56.29 seconds =       0.94 minutes
	total time  =          8 seconds =       0.13 minutes

    			-----------------------------------------

    			 OPTKING 3.0: for geometry optimizations

    			     By R.A. King, Bethel University

    			        with contributions from

    			    A.V. Copan, J. Cayton, A. Heide

    			-----------------------------------------

	                            ===> Fragment 1 <==

	 Z (Atomic Numbers)          Masses                          Geom
	       1.000000             1.007825          0.00000000  0.00000000  6.57765843
	       6.000000            12.000000          0.00000000  0.00000000 -0.55242740

	 - Coordinate -           - BOHR/RAD -       - ANG/DEG -
	 R(1,2)           =         7.130086           3.773079

	        --- Internal Coordinate Step in ANG or DEG, aJ/ANG or AJ/DEG ---
	-------------------------------------------------------------------------------
	           Coordinate      Previous         Force          Change          New
	           ----------      --------        ------          ------        ------
	               R(1,2)       3.77308        0.00004        0.00483       3.77791
	-------------------------------------------------------------------------------

	                                 ==> Convergence Check <==

	Measures of convergence in internal coordinates in au.

	Criteria marked as inactive (o), active & met (*), and active & unmet ( ).

	----------------------------------------------------------------------------------------------
	   Step    Total Energy     Delta E     Max Force     RMS Force      Max Disp      RMS Disp
	----------------------------------------------------------------------------------------------
	  Convergence Criteria     1.00e-06 *    3.00e-04 *             o    1.20e-03 *             o
	----------------------------------------------------------------------------------------------
	    14     -38.36555955   -2.93e-07 *    4.27e-06 *    4.27e-06 o    9.13e-03      9.13e-03 o  ~
	----------------------------------------------------------------------------------------------

Next Geometry in Ang
	Fragment 1 (Ang)

	    H   0.0000000000   0.0000000000   3.4831631832
	    C   0.0000000000   0.0000000000  -0.2947482339

    Final optimized geometry and variables:
    Molecular point group: c2v
    Full point group: C_inf_v

    Geometry (in Angstrom), charge = -1, multiplicity = 5:

    H            0.000000000000     0.000000000000     3.480746940758
    C            0.000000000000     0.000000000000    -0.292331991479

    Psi4 stopped on: Thursday, 17 July 2025 09:11AM
    Psi4 wall time for execution: 0:00:08.57

*** Psi4 exiting successfully. Buy a developer a beer!
