                               Psi4 1.9.1 release

  ==> Input File <==

--------------------------------------------------------------------------
molecule {
-1 5
Be   0.00000        0.60000        0.00000
Na   0.00000       -0.60000        0.00000
}

set {
basis              cc-pvdz
reference          uks
maxiter            500
geom_maxiter       500
DAMPING_PERCENTAGE 1
guess              SAP
}

optimize('b3lyp')
--------------------------------------------------------------------------

    Molecular point group: c2v
  Charge       = -1
  Multiplicity = 5
  Basis Set: CC-PVDZ
    Blend: CC-PVDZ
  Basis Set: (CC-PVDZ AUX)
    Blend: DEF2-UNIVERSAL-JKFIT
  @DF-UKS Final Energy:  -176.59219334835697
    Total Energy =                       -176.5921933483570001
 Dipole X            :          0.0000000            0.0000000            0.0000000
 Dipole Y            :          0.0000000            0.0000000            0.0000000
 Dipole Z            :          1.2111687           -0.5084189            0.7027498
 Magnitude           :                                                    0.7027498
    Molecular point group: c2v
  Basis Set: CC-PVDZ
    Blend: CC-PVDZ
  Basis Set: (CC-PVDZ AUX)
    Blend: DEF2-UNIVERSAL-JKFIT
  Basis Set: CC-PVDZ
    Blend: CC-PVDZ
  Basis Set: (CC-PVDZ AUX)
    Blend: DEF2-UNIVERSAL-JKFIT
  @DF-UKS Final Energy:  -176.64394235928580
    Total Energy =                       -176.6439423592858304
  Basis Set: CC-PVDZ
    Blend: CC-PVDZ
  Basis Set: (CC-PVDZ AUX)
    Blend: DEF2-UNIVERSAL-JKFIT
  Basis Set: CC-PVDZ
    Blend: CC-PVDZ
  @DF-UKS Final Energy:  -176.70478080861116
    Total Energy =                       -176.7047808086111331
  @DF-UKS Final Energy:  -176.78150513259007
    Total Energy =                       -176.7815051325900981
  @DF-UKS Final Energy:  -176.83481473650488
    Total Energy =                       -176.8348147365048817
  @DF-UKS Final Energy:  -176.86762448704593
    Total Energy =                       -176.8676244870459584
  @DF-UKS Final Energy:  -176.88427039140279
    Total Energy =                       -176.8842703914028220
  @DF-UKS Final Energy:  -176.89138004552566
    Total Energy =                       -176.8913800455256649
  @DF-UKS Final Energy:  -176.89396845616500
    Total Energy =                       -176.8939684561649983
  @DF-UKS Final Energy:  -176.89469144114472
    Total Energy =                       -176.8946914411446869
  @DF-UKS Final Energy:  -176.89481000533141
    Total Energy =                       -176.8948100053314079
  Basis Set: (CC-PVDZ AUX)
    Blend: DEF2-UNIVERSAL-JKFIT
  Basis Set: CC-PVDZ
    Blend: CC-PVDZ
  Basis Set: (CC-PVDZ AUX)
    Blend: DEF2-UNIVERSAL-JKFIT
  @DF-UKS Final Energy:  -176.89481696264232
    Total Energy =                       -176.8948169626423521
  Basis Set: CC-PVDZ
    Blend: CC-PVDZ
  Basis Set: (CC-PVDZ AUX)
    Blend: DEF2-UNIVERSAL-JKFIT
  Charge       = -1
  Multiplicity = 5
  Basis Set: CC-PVDZ
    Blend: CC-PVDZ
  Basis Set: (CC-PVDZ AUX)
    Blend: DEF2-UNIVERSAL-JKFIT

    Orbital Energies [Eh]
    ---------------------

    Alpha Occupied:

       1A1   -38.338467     2A1    -3.916783     3A1    -2.083868
       4A1    -1.015426     1B2    -1.014598     1B1    -1.014598
       5A1    -0.114986     6A1     0.006019     2B2     0.030619
       2B1     0.030619

    Alpha Virtual:

       7A1     0.077187     3B1     0.104388     3B2     0.104388
       8A1     0.120334     9A1     0.162856     4B1     0.192010
       4B2     0.192010    10A1     0.259510     1A2     0.290054
      11A1     0.290054    12A1     0.303442     5B1     0.317498
       5B2     0.317498     6B1     0.344760     6B2     0.344760
      13A1     0.435109    14A1     0.498880     2A2     0.626173
      15A1     0.626175     7B1     0.708467     7B2     0.708467
      16A1     0.830974

    Beta Occupied:

       1A1   -38.336893     2A1    -3.898480     3A1    -2.080902
       4A1    -1.013390     1B2    -1.012421     1B1    -1.012421

    Beta Virtual:

       5A1     0.036994     6A1     0.083015     2B1     0.113203
       2B2     0.113203     7A1     0.139452     8A1     0.154120
       3B1     0.187354     3B2     0.187354     9A1     0.192761
       4B1     0.220544     4B2     0.220544    10A1     0.298059
       1A2     0.323273    11A1     0.323274    12A1     0.345717
       5B1     0.359023     5B2     0.359023     6B1     0.408212
       6B2     0.408212    13A1     0.497657    14A1     0.538685
      15A1     0.747667     2A2     0.747686     7B1     0.805821
       7B2     0.805821    16A1     0.905898

    Final Occupation by Irrep:
             A1    A2    B1    B2
    DOCC [     4,    0,    1,    1 ]
    SOCC [     2,    0,    1,    1 ]
    NA   [     6,    0,    2,    2 ]
    NB   [     4,    0,    1,    1 ]

  @DF-UKS Final Energy:  -176.89481736923125

   => Energetics <=

    Nuclear Repulsion Energy =              8.3717805076364087
    One-Electron Energy =                -265.7226663448435033
    Two-Electron Energy =                  94.4591031860117312
    DFT Exchange-Correlation Energy =     -14.0030347180358827
    Empirical Dispersion Energy =           0.0000000000000000
    VV10 Nonlocal Energy =                  0.0000000000000000
    Total Energy =                       -176.8948173692312480

  UHF NO Occupations:
  HONO-2 :    2 B1 1.0000000
  HONO-1 :    5 A1 1.0000000
  HONO-0 :    6 A1 1.0000000
  LUNO+0 :    7 A1 0.0000013
  LUNO+1 :    3 B2 0.0000002
  LUNO+2 :    3 B1 0.0000002
  LUNO+3 :    8 A1 0.0000001

Computation Completed

Properties will be evaluated at   0.000000,   0.000000,   0.000000 [a0]

Properties computed using the SCF density matrix

 Multipole Moments:

 ------------------------------------------------------------------------------------
     Multipole            Electronic (a.u.)      Nuclear  (a.u.)        Total (a.u.)
 ------------------------------------------------------------------------------------

 L = 1.  Multiply by 2.5417464519 to convert [e a0] to [Debye]
 Dipole X            :          0.0000000            0.0000000            0.0000000
 Dipole Y            :          0.0000000            0.0000000            0.0000000
 Dipole Z            :          0.1597625           -1.1783558           -1.0185933
 Magnitude           :                                                    1.0185933

 ------------------------------------------------------------------------------------

*** tstop() called on Joses-MacBook-Pro-2.local at Thu Jul 17 09:42:54 2025
Module time:
	user time   =       4.22 seconds =       0.07 minutes
	system time =       2.85 seconds =       0.05 minutes
	total time  =          1 seconds =       0.02 minutes
Total time:
	user time   =      74.03 seconds =       1.23 minutes
	system time =      68.08 seconds =       1.13 minutes
	total time  =         14 seconds =       0.23 minutes

*** tstart() called on Joses-MacBook-Pro-2.local
*** at Thu Jul 17 09:42:54 2025

         ------------------------------------------------------------
                                   SCF GRAD
                          Rob Parrish, Justin Turney,
                       Andy Simmonett, and Alex Sokolov
         ------------------------------------------------------------

  ==> Geometry <==

    Molecular point group: c2v
    Full point group: C_inf_v

    Geometry (in Angstrom), charge = -1, multiplicity = 5:

       Center              X                  Y                   Z               Mass
    ------------   -----------------  -----------------  -----------------  -----------------
         BE           0.000000000000     0.000000000000     1.997993700000     9.012183065000
         NA           0.000000000000     0.000000000000    -0.783230347649    22.989769282000

  Nuclear repulsion =    8.371780507636409

  ==> Basis Set <==

  Basis Set: CC-PVDZ
    Blend: CC-PVDZ
    Number of shells: 14
    Number of basis functions: 32
    Number of Cartesian functions: 34
    Spherical Harmonics?: true
    Max angular momentum: 2

  ==> DFJKGrad: Density-Fitted SCF Gradients <==

    Gradient:                    1
    J tasked:                  Yes
    K tasked:                  Yes
    wK tasked:                  No
    OpenMP threads:              1
    Integrals threads:           1
    Memory [MiB]:              375
    Schwarz Cutoff:          1E-12
    Fitting Condition:       1E-10

   => Auxiliary Basis Set <=

  Basis Set: (CC-PVDZ AUX)
    Blend: DEF2-UNIVERSAL-JKFIT
    Number of shells: 51
    Number of basis functions: 163
    Number of Cartesian functions: 197
    Spherical Harmonics?: true
    Max angular momentum: 4

  ==> DFT Potential <==

   => LibXC <=

    Version 6.2.2
    S. Lehtola, C. Steigemann, M. J.T. Oliveira, and M. A.L. Marques.,  SoftwareX 7, 1â€“5 (2018) (10.1016/j.softx.2017.11.002)

   => Composite Functional: B3LYP <=

    B3LYP Hyb-GGA Exchange-Correlation Functional

    P. J. Stephens, F. J. Devlin, C. F. Chabalowski, and M. J. Frisch.,  J. Phys. Chem. 98, 11623 (1994) (10.1021/j100096a001)

    Deriv               =              1
    GGA                 =           TRUE
    Meta                =          FALSE

    Exchange Hybrid     =           TRUE
    MP2 Hybrid          =          FALSE

   => Exchange Functionals <=

    0.0800   Slater exchange
    0.7200         Becke 88

   => Exact (HF) Exchange <=

    0.2000               HF

   => Correlation Functionals <=

    0.1900   Vosko, Wilk & Nusair (VWN5_RPA)
    0.8100   Lee, Yang & Parr

   => LibXC Density Thresholds  <==

    XC_HYB_GGA_XC_B3LYP:  1.00E-15

   => Molecular Quadrature <=

    Radial Scheme          =       TREUTLER
    Pruning Scheme         =           NONE
    Nuclear Scheme         =       TREUTLER

    Blocking Scheme        =         OCTREE
    BS radius alpha        =              1
    Pruning alpha          =              1
    Radial Points          =             75
    Spherical Points       =            302
    Total Points           =          43847
    Total Blocks           =            449
    Max Points             =            256
    Max Functions          =             32
    Weights Tolerance      =       1.00E-15

  -Total Gradient:
     Atom            X                  Y                   Z
    ------   -----------------  -----------------  -----------------
       1        0.000000000000     0.000000000000    -0.000029746355
       2        0.000000000000    -0.000000000000     0.000021635350

*** tstop() called on Joses-MacBook-Pro-2.local at Thu Jul 17 09:42:54 2025
Module time:
	user time   =       0.61 seconds =       0.01 minutes
	system time =       2.40 seconds =       0.04 minutes
	total time  =          0 seconds =       0.00 minutes
Total time:
	user time   =      74.65 seconds =       1.24 minutes
	system time =      70.48 seconds =       1.17 minutes
	total time  =         14 seconds =       0.23 minutes

    			-----------------------------------------

    			 OPTKING 3.0: for geometry optimizations

    			     By R.A. King, Bethel University

    			        with contributions from

    			    A.V. Copan, J. Cayton, A. Heide

    			-----------------------------------------

	                            ===> Fragment 1 <==

	 Z (Atomic Numbers)          Masses                          Geom
	       4.000000             9.012183          0.00000000  0.00000000  3.77566089
	      11.000000            22.989769          0.00000000  0.00000000 -1.48009085

	 - Coordinate -           - BOHR/RAD -       - ANG/DEG -
	 R(1,2)           =         5.255752           2.781224

	        --- Internal Coordinate Step in ANG or DEG, aJ/ANG or AJ/DEG ---
	-------------------------------------------------------------------------------
	           Coordinate      Previous         Force          Change          New
	           ----------      --------        ------          ------        ------
	               R(1,2)       2.78122        0.00021        0.00093       2.78215
	-------------------------------------------------------------------------------

	                                 ==> Convergence Check <==

	Measures of convergence in internal coordinates in au.

	Criteria marked as inactive (o), active & met (*), and active & unmet ( ).

	----------------------------------------------------------------------------------------------
	   Step    Total Energy     Delta E     Max Force     RMS Force      Max Disp      RMS Disp
	----------------------------------------------------------------------------------------------
	  Convergence Criteria     1.00e-06 *    3.00e-04 *             o    1.20e-03 *             o
	----------------------------------------------------------------------------------------------
	    13    -176.89481737   -4.07e-07 *    2.57e-05 *    2.57e-05 o    1.76e-03      1.76e-03 o  ~
	----------------------------------------------------------------------------------------------

Next Geometry in Ang
	Fragment 1 (Ang)

	   Be   0.0000000000   0.0000000000   1.9984589256
	   Na   0.0000000000   0.0000000000  -0.7836955733

    Final optimized geometry and variables:
    Molecular point group: c2v
    Full point group: C_inf_v

    Geometry (in Angstrom), charge = -1, multiplicity = 5:

    BE           0.000000000000     0.000000000000     1.997993700000
    NA           0.000000000000     0.000000000000    -0.783230347649

    Psi4 stopped on: Thursday, 17 July 2025 09:42AM
    Psi4 wall time for execution: 0:00:14.94

*** Psi4 exiting successfully. Buy a developer a beer!
