                               Psi4 1.9.1 release

  ==> Input File <==

--------------------------------------------------------------------------
molecule {
-1 5
Ne   0.00000        0.60000        0.00000
Na   0.00000       -0.60000        0.00000
}

set {
basis              cc-pvdz
reference          uks
maxiter            500
geom_maxiter       500
DAMPING_PERCENTAGE 1
guess              SAP
}

optimize('b3lyp')
--------------------------------------------------------------------------

    Molecular point group: c2v
  Charge       = -1
  Multiplicity = 5
  Basis Set: CC-PVDZ
    Blend: CC-PVDZ
  Basis Set: (CC-PVDZ AUX)
    Blend: CC-PVDZ-JKFIT + DEF2-UNIVERSAL-JKFIT
  @DF-UKS Final Energy:  -290.12721495630313
    Total Energy =                       -290.1272149563031348
 Dipole X            :          0.0000000            0.0000000            0.0000000
 Dipole Y            :          0.0000000            0.0000000            0.0000000
 Dipole Z            :          0.8983243            0.5265734            1.4248977
 Magnitude           :                                                    1.4248977
    Molecular point group: c2v
  Basis Set: CC-PVDZ
    Blend: CC-PVDZ
  Basis Set: (CC-PVDZ AUX)
    Blend: CC-PVDZ-JKFIT + DEF2-UNIVERSAL-JKFIT
  Basis Set: CC-PVDZ
    Blend: CC-PVDZ
  Basis Set: (CC-PVDZ AUX)
    Blend: CC-PVDZ-JKFIT + DEF2-UNIVERSAL-JKFIT
  @DF-UKS Final Energy:  -290.27984997362483
    Total Energy =                       -290.2798499736248345
  Basis Set: CC-PVDZ
    Blend: CC-PVDZ
  Basis Set: (CC-PVDZ AUX)
    Blend: CC-PVDZ-JKFIT + DEF2-UNIVERSAL-JKFIT
  Basis Set: CC-PVDZ
    Blend: CC-PVDZ
  @DF-UKS Final Energy:  -290.38033319539068
    Total Energy =                       -290.3803331953906195
  @DF-UKS Final Energy:  -290.43141104940310
    Total Energy =                       -290.4314110494030956
  @DF-UKS Final Energy:  -290.46703833796511
    Total Energy =                       -290.4670383379650502
  @DF-UKS Final Energy:  -290.49397032301084
    Total Energy =                       -290.4939703230108421
  @DF-UKS Final Energy:  -290.51836983455343
    Total Energy =                       -290.5183698345534822
  @DF-UKS Final Energy:  -290.53394227470881
    Total Energy =                       -290.5339422747088065
  @DF-UKS Final Energy:  -290.54204077768037
    Total Energy =                       -290.5420407776803131
  @DF-UKS Final Energy:  -290.54446797821595
    Total Energy =                       -290.5444679782159483
  @DF-UKS Final Energy:  -290.54475988060744
    Total Energy =                       -290.5447598806075007
  Basis Set: (CC-PVDZ AUX)
    Blend: CC-PVDZ-JKFIT + DEF2-UNIVERSAL-JKFIT
  Basis Set: CC-PVDZ
    Blend: CC-PVDZ
  Basis Set: (CC-PVDZ AUX)
    Blend: CC-PVDZ-JKFIT + DEF2-UNIVERSAL-JKFIT
  @DF-UKS Final Energy:  -290.54477025129358
    Total Energy =                       -290.5447702512935848
  Basis Set: CC-PVDZ
    Blend: CC-PVDZ
  Basis Set: (CC-PVDZ AUX)
    Blend: CC-PVDZ-JKFIT + DEF2-UNIVERSAL-JKFIT
  Charge       = -1
  Multiplicity = 5
  Basis Set: CC-PVDZ
    Blend: CC-PVDZ
  Basis Set: (CC-PVDZ AUX)
    Blend: CC-PVDZ-JKFIT + DEF2-UNIVERSAL-JKFIT

    Orbital Energies [Eh]
    ---------------------

    Alpha Occupied:

       1A1   -38.359799     2A1   -31.521521     3A1    -2.106992
       4A1    -1.890996     5A1    -1.064974     6A1    -1.040341
       1B2    -1.036904     1B1    -1.036904     2B1    -0.952810
       2B2    -0.952810     7A1    -0.046527     3B2     0.044520
       3B1     0.044520

    Alpha Virtual:

       8A1     0.066169     9A1     0.120753     4B1     0.171677
       4B2     0.171677    10A1     0.175454     5B1     0.266825
       5B2     0.266825    11A1     0.279676    12A1     0.280204
       1A2     0.280204    13A1     1.105693     6B2     1.120963
       6B1     1.120963    14A1     1.744147    15A1     4.210160
       7B1     4.236268     7B2     4.236268     2A2     4.318663
      16A1     4.319520

    Beta Occupied:

       1A1   -38.358242     2A1   -31.480263     3A1    -2.104168
       4A1    -1.781038     5A1    -1.038480     1B2    -1.034583
       1B1    -1.034583     2B1    -0.911544     2B2    -0.911544

    Beta Virtual:

       6A1    -0.703029     7A1     0.035773     8A1     0.082949
       3B2     0.111753     3B1     0.111753     9A1     0.161200
      10A1     0.186232     4B1     0.206412     4B2     0.206412
       5B2     0.290071     5B1     0.290071    11A1     0.300026
       1A2     0.321520    12A1     0.321530     6B2     1.142277
       6B1     1.142277    13A1     1.213232    14A1     1.803093
       2A2     4.338750    15A1     4.339532     7B1     4.351391
       7B2     4.351391    16A1     4.374651

    Final Occupation by Irrep:
             A1    A2    B1    B2
    DOCC [     5,    0,    2,    2 ]
    SOCC [     2,    0,    1,    1 ]
    NA   [     7,    0,    3,    3 ]
    NB   [     5,    0,    2,    2 ]

  @DF-UKS Final Energy:  -290.54477074718125

   => Energetics <=

    Nuclear Repulsion Energy =             20.9092789410266775
    One-Electron Energy =                -448.9604021789743342
    Two-Electron Energy =                 158.9881380442397756
    DFT Exchange-Correlation Energy =     -21.4817855534733653
    Empirical Dispersion Energy =           0.0000000000000000
    VV10 Nonlocal Energy =                  0.0000000000000000
    Total Energy =                       -290.5447707471811896

  UHF NO Occupations:
  HONO-2 :    3 B2 1.0000000
  HONO-1 :    3 B1 1.0000000
  HONO-0 :    7 A1 1.0000000
  LUNO+0 :    8 A1 0.0002621
  LUNO+1 :    4 B1 0.0000471
  LUNO+2 :    4 B2 0.0000471
  LUNO+3 :    5 B2 0.0000004

Computation Completed

Properties will be evaluated at   0.000000,   0.000000,   0.000000 [a0]

Properties computed using the SCF density matrix

 Multipole Moments:

 ------------------------------------------------------------------------------------
     Multipole            Electronic (a.u.)      Nuclear  (a.u.)        Total (a.u.)
 ------------------------------------------------------------------------------------

 L = 1.  Multiply by 2.5417464519 to convert [e a0] to [Debye]
 Dipole X            :          0.0000000            0.0000000            0.0000000
 Dipole Y            :          0.0000000            0.0000000            0.0000000
 Dipole Z            :          3.2736489            1.2216097            4.4952585
 Magnitude           :                                                    4.4952585

 ------------------------------------------------------------------------------------

*** tstop() called on Joses-MacBook-Pro-2.local at Thu Jul 17 10:58:32 2025
Module time:
	user time   =       3.49 seconds =       0.06 minutes
	system time =       2.46 seconds =       0.04 minutes
	total time  =          1 seconds =       0.02 minutes
Total time:
	user time   =      61.51 seconds =       1.03 minutes
	system time =      73.41 seconds =       1.22 minutes
	total time  =         14 seconds =       0.23 minutes

*** tstart() called on Joses-MacBook-Pro-2.local
*** at Thu Jul 17 10:58:32 2025

         ------------------------------------------------------------
                                   SCF GRAD
                          Rob Parrish, Justin Turney,
                       Andy Simmonett, and Alex Sokolov
         ------------------------------------------------------------

  ==> Geometry <==

    Molecular point group: c2v
    Full point group: C_inf_v

    Geometry (in Angstrom), charge = -1, multiplicity = 5:

       Center              X                  Y                   Z               Mass
    ------------   -----------------  -----------------  -----------------  -----------------
         NE           0.000000000000     0.000000000000     1.489020367218    19.992440176200
         NA           0.000000000000     0.000000000000    -1.294886879793    22.989769282000

  Nuclear repulsion =   20.909278941026678

  ==> Basis Set <==

  Basis Set: CC-PVDZ
    Blend: CC-PVDZ
    Number of shells: 14
    Number of basis functions: 32
    Number of Cartesian functions: 34
    Spherical Harmonics?: true
    Max angular momentum: 2

  ==> DFJKGrad: Density-Fitted SCF Gradients <==

    Gradient:                    1
    J tasked:                  Yes
    K tasked:                  Yes
    wK tasked:                  No
    OpenMP threads:              1
    Integrals threads:           1
    Memory [MiB]:              375
    Schwarz Cutoff:          1E-12
    Fitting Condition:       1E-10

   => Auxiliary Basis Set <=

  Basis Set: (CC-PVDZ AUX)
    Blend: CC-PVDZ-JKFIT + DEF2-UNIVERSAL-JKFIT
    Number of shells: 58
    Number of basis functions: 182
    Number of Cartesian functions: 218
    Spherical Harmonics?: true
    Max angular momentum: 4

  ==> DFT Potential <==

   => LibXC <=

    Version 6.2.2
    S. Lehtola, C. Steigemann, M. J.T. Oliveira, and M. A.L. Marques.,  SoftwareX 7, 1â€“5 (2018) (10.1016/j.softx.2017.11.002)

   => Composite Functional: B3LYP <=

    B3LYP Hyb-GGA Exchange-Correlation Functional

    P. J. Stephens, F. J. Devlin, C. F. Chabalowski, and M. J. Frisch.,  J. Phys. Chem. 98, 11623 (1994) (10.1021/j100096a001)

    Deriv               =              1
    GGA                 =           TRUE
    Meta                =          FALSE

    Exchange Hybrid     =           TRUE
    MP2 Hybrid          =          FALSE

   => Exchange Functionals <=

    0.0800   Slater exchange
    0.7200         Becke 88

   => Exact (HF) Exchange <=

    0.2000               HF

   => Correlation Functionals <=

    0.1900   Vosko, Wilk & Nusair (VWN5_RPA)
    0.8100   Lee, Yang & Parr

   => LibXC Density Thresholds  <==

    XC_HYB_GGA_XC_B3LYP:  1.00E-15

   => Molecular Quadrature <=

    Radial Scheme          =       TREUTLER
    Pruning Scheme         =           NONE
    Nuclear Scheme         =       TREUTLER

    Blocking Scheme        =         OCTREE
    BS radius alpha        =              1
    Pruning alpha          =              1
    Radial Points          =             75
    Spherical Points       =            302
    Total Points           =          43831
    Total Blocks           =            417
    Max Points             =            254
    Max Functions          =             32
    Weights Tolerance      =       1.00E-15

  -Total Gradient:
     Atom            X                  Y                   Z
    ------   -----------------  -----------------  -----------------
       1       -0.000000000000    -0.000000000000     0.000002495655
       2        0.000000000000    -0.000000000000     0.000009656766

*** tstop() called on Joses-MacBook-Pro-2.local at Thu Jul 17 10:58:32 2025
Module time:
	user time   =       1.48 seconds =       0.02 minutes
	system time =       1.28 seconds =       0.02 minutes
	total time  =          0 seconds =       0.00 minutes
Total time:
	user time   =      62.99 seconds =       1.05 minutes
	system time =      74.69 seconds =       1.24 minutes
	total time  =         14 seconds =       0.23 minutes

    			-----------------------------------------

    			 OPTKING 3.0: for geometry optimizations

    			     By R.A. King, Bethel University

    			        with contributions from

    			    A.V. Copan, J. Cayton, A. Heide

    			-----------------------------------------

	                            ===> Fragment 1 <==

	 Z (Atomic Numbers)          Masses                          Geom
	      10.000000            19.992440          0.00000000  0.00000000  2.81384069
	      11.000000            22.989769          0.00000000  0.00000000 -2.44698157

	 - Coordinate -           - BOHR/RAD -       - ANG/DEG -
	 R(1,2)           =         5.260822           2.783907

	        --- Internal Coordinate Step in ANG or DEG, aJ/ANG or AJ/DEG ---
	-------------------------------------------------------------------------------
	           Coordinate      Previous         Force          Change          New
	           ----------      --------        ------          ------        ------
	               R(1,2)       2.78391        0.00003        0.00009       2.78400
	-------------------------------------------------------------------------------

	                                 ==> Convergence Check <==

	Measures of convergence in internal coordinates in au.

	Criteria marked as inactive (o), active & met (*), and active & unmet ( ).

	----------------------------------------------------------------------------------------------
	   Step    Total Energy     Delta E     Max Force     RMS Force      Max Disp      RMS Disp
	----------------------------------------------------------------------------------------------
	  Convergence Criteria     1.00e-06 *    3.00e-04 *             o    1.20e-03 *             o
	----------------------------------------------------------------------------------------------
	    13    -290.54477075   -4.96e-07 *    3.58e-06 *    3.58e-06 o    1.78e-04 *    1.78e-04 o  ~
	----------------------------------------------------------------------------------------------

Next Geometry in Ang
	Fragment 1 (Ang)

	   Ne   0.0000000000   0.0000000000   1.4890675761
	   Na   0.0000000000   0.0000000000  -1.2949340886

    Final optimized geometry and variables:
    Molecular point group: c2v
    Full point group: C_inf_v

    Geometry (in Angstrom), charge = -1, multiplicity = 5:

    NE           0.000000000000     0.000000000000     1.489020367218
    NA           0.000000000000     0.000000000000    -1.294886879793

    Psi4 stopped on: Thursday, 17 July 2025 10:58AM
    Psi4 wall time for execution: 0:00:14.94

*** Psi4 exiting successfully. Buy a developer a beer!
