                               Psi4 1.9.1 release

  ==> Input File <==

--------------------------------------------------------------------------
molecule {
-1 5
N   0.00000        0.60000        0.00000
Mg   0.00000       -0.60000        0.00000
}

set {
basis              cc-pvdz
reference          uks
maxiter            500
geom_maxiter       500
DAMPING_PERCENTAGE 1
guess              SAP
}

optimize('b3lyp')
--------------------------------------------------------------------------

    Molecular point group: c2v
  Charge       = -1
  Multiplicity = 5
  Basis Set: CC-PVDZ
    Blend: CC-PVDZ
  Basis Set: (CC-PVDZ AUX)
    Blend: CC-PVDZ-JKFIT + DEF2-UNIVERSAL-JKFIT
  @DF-UKS Final Energy:  -254.15382268003722
    Total Energy =                       -254.1538226800372229
 Dipole X            :          0.0000000            0.0000000            0.0000000
 Dipole Y            :          0.0000000            0.0000000            0.0000000
 Dipole Z            :          0.8570701           -0.0084525            0.8486176
 Magnitude           :                                                    0.8486176
    Molecular point group: c2v
  Basis Set: CC-PVDZ
    Blend: CC-PVDZ
  Basis Set: (CC-PVDZ AUX)
    Blend: CC-PVDZ-JKFIT + DEF2-UNIVERSAL-JKFIT
  Basis Set: CC-PVDZ
    Blend: CC-PVDZ
  Basis Set: (CC-PVDZ AUX)
    Blend: CC-PVDZ-JKFIT + DEF2-UNIVERSAL-JKFIT
  @DF-UKS Final Energy:  -254.39124559156380
    Total Energy =                       -254.3912455915638020
  Basis Set: CC-PVDZ
    Blend: CC-PVDZ
  Basis Set: (CC-PVDZ AUX)
    Blend: CC-PVDZ-JKFIT + DEF2-UNIVERSAL-JKFIT
  Basis Set: CC-PVDZ
    Blend: CC-PVDZ
  @DF-UKS Final Energy:  -254.52891515232574
    Total Energy =                       -254.5289151523257374
  @DF-UKS Final Energy:  -254.59148453756336
    Total Energy =                       -254.5914845375633604
  @DF-UKS Final Energy:  -254.61953878511716
    Total Energy =                       -254.6195387851171574
  @DF-UKS Final Energy:  -254.63083573620742
    Total Energy =                       -254.6308357362074162
  @DF-UKS Final Energy:  -254.63365294243883
    Total Energy =                       -254.6336529424388289
  @DF-UKS Final Energy:  -254.63465945728063
    Total Energy =                       -254.6346594572806339
  @DF-UKS Final Energy:  -254.63483817531306
    Total Energy =                       -254.6348381753130639
  @DF-UKS Final Energy:  -254.63487286473401
    Total Energy =                       -254.6348728647340067
  Basis Set: (CC-PVDZ AUX)
    Blend: CC-PVDZ-JKFIT + DEF2-UNIVERSAL-JKFIT
  Basis Set: CC-PVDZ
    Blend: CC-PVDZ
  Basis Set: (CC-PVDZ AUX)
    Blend: CC-PVDZ-JKFIT + DEF2-UNIVERSAL-JKFIT
  @DF-UKS Final Energy:  -254.63488085966191
    Total Energy =                       -254.6348808596619051
  Basis Set: CC-PVDZ
    Blend: CC-PVDZ
  Basis Set: (CC-PVDZ AUX)
    Blend: CC-PVDZ-JKFIT + DEF2-UNIVERSAL-JKFIT
  Charge       = -1
  Multiplicity = 5
  Basis Set: CC-PVDZ
    Blend: CC-PVDZ
  Basis Set: (CC-PVDZ AUX)
    Blend: CC-PVDZ-JKFIT + DEF2-UNIVERSAL-JKFIT

    Orbital Energies [Eh]
    ---------------------

    Alpha Occupied:

       1A1   -46.670211     2A1   -14.138116     3A1    -2.950570
       1B2    -1.696118     4A1    -1.694056     1B1    -1.692585
       5A1    -0.534083     6A1    -0.131167     2B2    -0.093067
       2B1    -0.047212     7A1    -0.019685     3B1     0.090929

    Alpha Virtual:

       3B2     0.124008     8A1     0.173034     9A1     0.243540
       4B1     0.304377     4B2     0.306331    10A1     0.379625
       1A2     0.475609    11A1     0.478397     5B2     0.513090
       5B1     0.523538    12A1     0.681278     6B2     0.964890
      13A1     0.982157     6B1     1.000586    14A1     1.465903
      15A1     1.972716     2A2     1.973238     7B2     1.997331
       7B1     2.037430    16A1     2.225470

    Beta Occupied:

       1A1   -46.666763     2A1   -14.100526     3A1    -2.944911
       1B2    -1.692484     4A1    -1.688350     1B1    -1.687475
       5A1    -0.402538     2B1     0.011693

    Beta Virtual:

       6A1     0.044191     2B2     0.095704     7A1     0.117964
       3B1     0.168358     3B2     0.183467     8A1     0.195984
       9A1     0.275999     4B2     0.334029     4B1     0.343372
      10A1     0.431801     1A2     0.519085    11A1     0.522614
       5B2     0.567852     5B1     0.574301    12A1     0.735181
       6B1     1.038966     6B2     1.057041    13A1     1.078861
      14A1     1.538318     2A2     2.055554    15A1     2.062998
       7B1     2.118196     7B2     2.130573    16A1     2.329506

    Final Occupation by Irrep:
             A1    A2    B1    B2
    DOCC [     5,    0,    2,    1 ]
    SOCC [     2,    0,    1,    1 ]
    NA   [     7,    0,    3,    2 ]
    NB   [     5,    0,    2,    1 ]

  @DF-UKS Final Energy:  -254.63488144310642

   => Energetics <=

    Nuclear Repulsion Energy =             22.0216385173989977
    One-Electron Energy =                -401.0053804513389650
    Two-Electron Energy =                 143.2972252954780856
    DFT Exchange-Correlation Energy =     -18.9483648046445055
    Empirical Dispersion Energy =           0.0000000000000000
    VV10 Nonlocal Energy =                  0.0000000000000000
    Total Energy =                       -254.6348814431064227

  UHF NO Occupations:
  HONO-2 :    2 B2 1.0000000
  HONO-1 :    3 B1 1.0000000
  HONO-0 :    7 A1 1.0000000
  LUNO+0 :    4 B1 0.0013420
  LUNO+1 :    8 A1 0.0011972
  LUNO+2 :    3 B2 0.0000005
  LUNO+3 :    9 A1 0.0000003

Computation Completed

Properties will be evaluated at   0.000000,   0.000000,   0.000000 [a0]

Properties computed using the SCF density matrix

 Multipole Moments:

 ------------------------------------------------------------------------------------
     Multipole            Electronic (a.u.)      Nuclear  (a.u.)        Total (a.u.)
 ------------------------------------------------------------------------------------

 L = 1.  Multiply by 2.5417464519 to convert [e a0] to [Debye]
 Dipole X            :          0.0000000            0.0000000            0.0000000
 Dipole Y            :          0.0000000            0.0000000            0.0000000
 Dipole Z            :          0.4791318           -0.0142178            0.4649139
 Magnitude           :                                                    0.4649139

 ------------------------------------------------------------------------------------

*** tstop() called on Joses-MacBook-Pro-2.local at Thu Jul 17 10:30:10 2025
Module time:
	user time   =       3.13 seconds =       0.05 minutes
	system time =       4.01 seconds =       0.07 minutes
	total time  =          0 seconds =       0.00 minutes
Total time:
	user time   =      58.81 seconds =       0.98 minutes
	system time =      67.61 seconds =       1.13 minutes
	total time  =         12 seconds =       0.20 minutes

*** tstart() called on Joses-MacBook-Pro-2.local
*** at Thu Jul 17 10:30:10 2025

         ------------------------------------------------------------
                                   SCF GRAD
                          Rob Parrish, Justin Turney,
                       Andy Simmonett, and Alex Sokolov
         ------------------------------------------------------------

  ==> Geometry <==

    Molecular point group: c2v
    Full point group: C_inf_v

    Geometry (in Angstrom), charge = -1, multiplicity = 5:

       Center              X                  Y                   Z               Mass
    ------------   -----------------  -----------------  -----------------  -----------------
         N            0.000000000000     0.000000000000     1.274452093670    14.003074004430
         MG           0.000000000000     0.000000000000    -0.744057367430    23.985041697000

  Nuclear repulsion =   22.021638517398998

  ==> Basis Set <==

  Basis Set: CC-PVDZ
    Blend: CC-PVDZ
    Number of shells: 14
    Number of basis functions: 32
    Number of Cartesian functions: 34
    Spherical Harmonics?: true
    Max angular momentum: 2

  ==> DFJKGrad: Density-Fitted SCF Gradients <==

    Gradient:                    1
    J tasked:                  Yes
    K tasked:                  Yes
    wK tasked:                  No
    OpenMP threads:              1
    Integrals threads:           1
    Memory [MiB]:              375
    Schwarz Cutoff:          1E-12
    Fitting Condition:       1E-10

   => Auxiliary Basis Set <=

  Basis Set: (CC-PVDZ AUX)
    Blend: CC-PVDZ-JKFIT + DEF2-UNIVERSAL-JKFIT
    Number of shells: 58
    Number of basis functions: 182
    Number of Cartesian functions: 218
    Spherical Harmonics?: true
    Max angular momentum: 4

  ==> DFT Potential <==

   => LibXC <=

    Version 6.2.2
    S. Lehtola, C. Steigemann, M. J.T. Oliveira, and M. A.L. Marques.,  SoftwareX 7, 1â€“5 (2018) (10.1016/j.softx.2017.11.002)

   => Composite Functional: B3LYP <=

    B3LYP Hyb-GGA Exchange-Correlation Functional

    P. J. Stephens, F. J. Devlin, C. F. Chabalowski, and M. J. Frisch.,  J. Phys. Chem. 98, 11623 (1994) (10.1021/j100096a001)

    Deriv               =              1
    GGA                 =           TRUE
    Meta                =          FALSE

    Exchange Hybrid     =           TRUE
    MP2 Hybrid          =          FALSE

   => Exchange Functionals <=

    0.0800   Slater exchange
    0.7200         Becke 88

   => Exact (HF) Exchange <=

    0.2000               HF

   => Correlation Functionals <=

    0.1900   Vosko, Wilk & Nusair (VWN5_RPA)
    0.8100   Lee, Yang & Parr

   => LibXC Density Thresholds  <==

    XC_HYB_GGA_XC_B3LYP:  1.00E-15

   => Molecular Quadrature <=

    Radial Scheme          =       TREUTLER
    Pruning Scheme         =           NONE
    Nuclear Scheme         =       TREUTLER

    Blocking Scheme        =         OCTREE
    BS radius alpha        =              1
    Pruning alpha          =              1
    Radial Points          =             75
    Spherical Points       =            302
    Total Points           =          43455
    Total Blocks           =            416
    Max Points             =            255
    Max Functions          =             32
    Weights Tolerance      =       1.00E-15

  -Total Gradient:
     Atom            X                  Y                   Z
    ------   -----------------  -----------------  -----------------
       1        0.000000000000     0.000000000000    -0.000078132181
       2        0.000000000000     0.000000000000     0.000052573439

*** tstop() called on Joses-MacBook-Pro-2.local at Thu Jul 17 10:30:11 2025
Module time:
	user time   =       0.68 seconds =       0.01 minutes
	system time =       2.22 seconds =       0.04 minutes
	total time  =          1 seconds =       0.02 minutes
Total time:
	user time   =      59.49 seconds =       0.99 minutes
	system time =      69.83 seconds =       1.16 minutes
	total time  =         13 seconds =       0.22 minutes

    			-----------------------------------------

    			 OPTKING 3.0: for geometry optimizations

    			     By R.A. King, Bethel University

    			        with contributions from

    			    A.V. Copan, J. Cayton, A. Heide

    			-----------------------------------------

	                            ===> Fragment 1 <==

	 Z (Atomic Numbers)          Masses                          Geom
	       7.000000            14.003074          0.00000000  0.00000000  2.40836542
	      12.000000            23.985042          0.00000000  0.00000000 -1.40606465

	 - Coordinate -           - BOHR/RAD -       - ANG/DEG -
	 R(1,2)           =         3.814430           2.018509

	        --- Internal Coordinate Step in ANG or DEG, aJ/ANG or AJ/DEG ---
	-------------------------------------------------------------------------------
	           Coordinate      Previous         Force          Change          New
	           ----------      --------        ------          ------        ------
	               R(1,2)       2.01851        0.00054        0.00037       2.01888
	-------------------------------------------------------------------------------

	                                 ==> Convergence Check <==

	Measures of convergence in internal coordinates in au.

	Criteria marked as inactive (o), active & met (*), and active & unmet ( ).

	----------------------------------------------------------------------------------------------
	   Step    Total Energy     Delta E     Max Force     RMS Force      Max Disp      RMS Disp
	----------------------------------------------------------------------------------------------
	  Convergence Criteria     1.00e-06 *    3.00e-04 *             o    1.20e-03 *             o
	----------------------------------------------------------------------------------------------
	    12    -254.63488144   -5.83e-07 *    6.54e-05 *    6.54e-05 o    7.03e-04 *    7.03e-04 o  ~
	----------------------------------------------------------------------------------------------

Next Geometry in Ang
	Fragment 1 (Ang)

	    N   0.0000000000   0.0000000000   1.2746381952
	   Mg   0.0000000000   0.0000000000  -0.7442434690

    Final optimized geometry and variables:
    Molecular point group: c2v
    Full point group: C_inf_v

    Geometry (in Angstrom), charge = -1, multiplicity = 5:

    N            0.000000000000     0.000000000000     1.274452093670
    MG           0.000000000000     0.000000000000    -0.744057367430

    Psi4 stopped on: Thursday, 17 July 2025 10:30AM
    Psi4 wall time for execution: 0:00:13.52

*** Psi4 exiting successfully. Buy a developer a beer!
