                               Psi4 1.9.1 release

  ==> Input File <==

--------------------------------------------------------------------------
molecule {
-1 5
Cl   0.00000        0.60000        0.00000
Ar   0.00000       -0.60000        0.00000
}

set {
basis              cc-pvdz
reference          uks
maxiter            500
geom_maxiter       500
DAMPING_PERCENTAGE 1
guess              SAP
}

optimize('b3lyp')
--------------------------------------------------------------------------

    Molecular point group: c2v
  Charge       = -1
  Multiplicity = 5
  Basis Set: CC-PVDZ
    Blend: CC-PVDZ
  Basis Set: (CC-PVDZ AUX)
    Blend: CC-PVDZ-JKFIT
  @DF-UKS Final Energy:  -985.26801970356337
    Total Energy =                       -985.2680197035633682
 Dipole X            :          0.0000000            0.0000000            0.0000000
 Dipole Y            :          0.0000000            0.0000000            0.0000000
 Dipole Z            :         -1.9584621            1.5107824           -0.4476797
 Magnitude           :                                                    0.4476797
    Molecular point group: c2v
  Basis Set: CC-PVDZ
    Blend: CC-PVDZ
  Basis Set: (CC-PVDZ AUX)
    Blend: CC-PVDZ-JKFIT
  Basis Set: CC-PVDZ
    Blend: CC-PVDZ
  Basis Set: (CC-PVDZ AUX)
    Blend: CC-PVDZ-JKFIT
  @DF-UKS Final Energy:  -985.31012979228785
    Total Energy =                       -985.3101297922878530
  Basis Set: CC-PVDZ
    Blend: CC-PVDZ
  Basis Set: (CC-PVDZ AUX)
    Blend: CC-PVDZ-JKFIT
  Basis Set: CC-PVDZ
    Blend: CC-PVDZ
  @DF-UKS Final Energy:  -985.38686758521942
    Total Energy =                       -985.3868675852194201
  @DF-UKS Final Energy:  -985.62584037956253
    Total Energy =                       -985.6258403795625327
  @DF-UKS Final Energy:  -986.02997146752125
    Total Energy =                       -986.0299714675212499
  @DF-UKS Final Energy:  -986.15838524420269
    Total Energy =                       -986.1583852442026910
  @DF-UKS Final Energy:  -986.21929231600211
    Total Energy =                       -986.2192923160021110
  @DF-UKS Final Energy:  -986.25450594037545
    Total Energy =                       -986.2545059403754522
  @DF-UKS Final Energy:  -986.27224533561343
    Total Energy =                       -986.2722453356134338
  @DF-UKS Final Energy:  -986.34021600421829
    Total Energy =                       -986.3402160042182913
  @DF-UKS Final Energy:  -986.35011837186778
    Total Energy =                       -986.3501183718677794
  Basis Set: (CC-PVDZ AUX)
    Blend: CC-PVDZ-JKFIT
  Basis Set: CC-PVDZ
    Blend: CC-PVDZ
  Basis Set: (CC-PVDZ AUX)
    Blend: CC-PVDZ-JKFIT
  @DF-UKS Final Energy:  -986.35031394072985
    Total Energy =                       -986.3503139407298477
  Basis Set: CC-PVDZ
    Blend: CC-PVDZ
  Basis Set: (CC-PVDZ AUX)
    Blend: CC-PVDZ-JKFIT
  Charge       = -1
  Multiplicity = 5
  Basis Set: CC-PVDZ
    Blend: CC-PVDZ
  Basis Set: (CC-PVDZ AUX)
    Blend: CC-PVDZ-JKFIT

    Orbital Energies [Eh]
    ---------------------

    Alpha Occupied:

       1A1  -114.831344     2A1  -101.288245     3A1   -10.872693
       4A1    -9.211176     5A1    -8.425990     1B2    -8.424215
       1B1    -8.420377     2B2    -6.980350     6A1    -6.969767
       2B1    -6.960477     7A1    -0.792755     8A1    -0.583921
       9A1    -0.279224     3B2    -0.236111     3B1    -0.217713
       4B2    -0.121608     4B1    -0.081463    10A1     0.031719
      11A1     0.599356    12A1     0.670095

    Alpha Virtual:

       5B2     0.723516     5B1     0.749978     6B2     0.790836
      13A1     0.803842     6B1     0.809729     7B2     0.870139
       7B1     0.887748    14A1     0.918348     1A2     0.918494
      15A1     1.060984     2A2     1.068863    16A1     1.070295
      17A1     1.082273     8B2     1.224132     8B1     1.241993
      18A1     1.704486

    Beta Occupied:

       1A1  -114.822153     2A1  -101.271599     3A1   -10.863347
       4A1    -9.194294     1B2    -8.415465     1B1    -8.414542
       5A1    -8.402441     2B2    -6.954649     2B1    -6.950372
       6A1    -6.933620     7A1    -0.735999     8A1    -0.490221
       3B1    -0.193594     3B2    -0.186528     9A1    -0.183855
       4B1    -0.047122

    Beta Virtual:

       4B2     0.035274    10A1     0.200423    11A1     0.756128
       5B1     0.773534     5B2     0.777844    12A1     0.805880
       6B1     0.838560     6B2     0.841361    13A1     0.877845
       7B1     0.927110     7B2     0.930435     1A2     0.984259
      14A1     0.988124     2A2     1.094690    15A1     1.095056
      16A1     1.125321    17A1     1.150739     8B1     1.283030
       8B2     1.285842    18A1     1.768965

    Final Occupation by Irrep:
             A1    A2    B1    B2
    DOCC [     9,    0,    4,    3 ]
    SOCC [     3,    0,    0,    1 ]
    NA   [    12,    0,    4,    4 ]
    NB   [     9,    0,    4,    3 ]

  @DF-UKS Final Energy:  -986.35031403300502

   => Energetics <=

    Nuclear Repulsion Energy =             83.9169956314054843
    One-Electron Energy =               -1538.9982788834454368
    Two-Electron Energy =                 516.7270877429275515
    DFT Exchange-Correlation Energy =     -47.9961185238924912
    Empirical Dispersion Energy =           0.0000000000000000
    VV10 Nonlocal Energy =                  0.0000000000000000
    Total Energy =                       -986.3503140330050201

  UHF NO Occupations:
  HONO-2 :   11 A1 1.0000000
  HONO-1 :    4 B2 1.0000000
  HONO-0 :   12 A1 1.0000000
  LUNO+0 :   13 A1 0.0007634
  LUNO+1 :   14 A1 0.0002955
  LUNO+2 :    5 B2 0.0002160
  LUNO+3 :    5 B1 0.0001078

Computation Completed

Properties will be evaluated at   0.000000,   0.000000,   0.000000 [a0]

Properties computed using the SCF density matrix

 Multipole Moments:

 ------------------------------------------------------------------------------------
     Multipole            Electronic (a.u.)      Nuclear  (a.u.)        Total (a.u.)
 ------------------------------------------------------------------------------------

 L = 1.  Multiply by 2.5417464519 to convert [e a0] to [Debye]
 Dipole X            :          0.0000000            0.0000000            0.0000000
 Dipole Y            :          0.0000000            0.0000000            0.0000000
 Dipole Z            :         -2.9125172            2.4293680           -0.4831492
 Magnitude           :                                                    0.4831492

 ------------------------------------------------------------------------------------

*** tstop() called on Joses-MacBook-Pro-2.local at Thu Jul 17 12:12:06 2025
Module time:
	user time   =       7.06 seconds =       0.12 minutes
	system time =       1.97 seconds =       0.03 minutes
	total time  =          0 seconds =       0.00 minutes
Total time:
	user time   =     155.83 seconds =       2.60 minutes
	system time =      33.30 seconds =       0.55 minutes
	total time  =         17 seconds =       0.28 minutes

*** tstart() called on Joses-MacBook-Pro-2.local
*** at Thu Jul 17 12:12:06 2025

         ------------------------------------------------------------
                                   SCF GRAD
                          Rob Parrish, Justin Turney,
                       Andy Simmonett, and Alex Sokolov
         ------------------------------------------------------------

  ==> Geometry <==

    Molecular point group: c2v
    Full point group: C_inf_v

    Geometry (in Angstrom), charge = -1, multiplicity = 5:

       Center              X                  Y                   Z               Mass
    ------------   -----------------  -----------------  -----------------  -----------------
         CL           0.000000000000     0.000000000000     1.029108383409    34.968852682000
         AR           0.000000000000     0.000000000000    -0.900515350695    39.962383123700

  Nuclear repulsion =   83.916995631405484

  ==> Basis Set <==

  Basis Set: CC-PVDZ
    Blend: CC-PVDZ
    Number of shells: 16
    Number of basis functions: 36
    Number of Cartesian functions: 38
    Spherical Harmonics?: true
    Max angular momentum: 2

  ==> DFJKGrad: Density-Fitted SCF Gradients <==

    Gradient:                    1
    J tasked:                  Yes
    K tasked:                  Yes
    wK tasked:                  No
    OpenMP threads:              1
    Integrals threads:           1
    Memory [MiB]:              375
    Schwarz Cutoff:          1E-12
    Fitting Condition:       1E-10

   => Auxiliary Basis Set <=

  Basis Set: (CC-PVDZ AUX)
    Blend: CC-PVDZ-JKFIT
    Number of shells: 72
    Number of basis functions: 224
    Number of Cartesian functions: 260
    Spherical Harmonics?: true
    Max angular momentum: 3

  ==> DFT Potential <==

   => LibXC <=

    Version 6.2.2
    S. Lehtola, C. Steigemann, M. J.T. Oliveira, and M. A.L. Marques.,  SoftwareX 7, 1â€“5 (2018) (10.1016/j.softx.2017.11.002)

   => Composite Functional: B3LYP <=

    B3LYP Hyb-GGA Exchange-Correlation Functional

    P. J. Stephens, F. J. Devlin, C. F. Chabalowski, and M. J. Frisch.,  J. Phys. Chem. 98, 11623 (1994) (10.1021/j100096a001)

    Deriv               =              1
    GGA                 =           TRUE
    Meta                =          FALSE

    Exchange Hybrid     =           TRUE
    MP2 Hybrid          =          FALSE

   => Exchange Functionals <=

    0.0800   Slater exchange
    0.7200         Becke 88

   => Exact (HF) Exchange <=

    0.2000               HF

   => Correlation Functionals <=

    0.1900   Vosko, Wilk & Nusair (VWN5_RPA)
    0.8100   Lee, Yang & Parr

   => LibXC Density Thresholds  <==

    XC_HYB_GGA_XC_B3LYP:  1.00E-15

   => Molecular Quadrature <=

    Radial Scheme          =       TREUTLER
    Pruning Scheme         =           NONE
    Nuclear Scheme         =       TREUTLER

    Blocking Scheme        =         OCTREE
    BS radius alpha        =              1
    Pruning alpha          =              1
    Radial Points          =             75
    Spherical Points       =            302
    Total Points           =          39644
    Total Blocks           =            352
    Max Points             =            255
    Max Functions          =             36
    Weights Tolerance      =       1.00E-15

  -Total Gradient:
     Atom            X                  Y                   Z
    ------   -----------------  -----------------  -----------------
       1        0.000000000000    -0.000000000000     0.000066878763
       2        0.000000000000    -0.000000000000    -0.000057927404

*** tstop() called on Joses-MacBook-Pro-2.local at Thu Jul 17 12:12:07 2025
Module time:
	user time   =       3.53 seconds =       0.06 minutes
	system time =       0.90 seconds =       0.01 minutes
	total time  =          1 seconds =       0.02 minutes
Total time:
	user time   =     159.37 seconds =       2.66 minutes
	system time =      34.20 seconds =       0.57 minutes
	total time  =         18 seconds =       0.30 minutes

    			-----------------------------------------

    			 OPTKING 3.0: for geometry optimizations

    			     By R.A. King, Bethel University

    			        with contributions from

    			    A.V. Copan, J. Cayton, A. Heide

    			-----------------------------------------

	                            ===> Fragment 1 <==

	 Z (Atomic Numbers)          Masses                          Geom
	      17.000000            34.968853          0.00000000  0.00000000  1.94473300
	      18.000000            39.962383          0.00000000  0.00000000 -1.70172738

	 - Coordinate -           - BOHR/RAD -       - ANG/DEG -
	 R(1,2)           =         3.646460           1.929624

	        --- Internal Coordinate Step in ANG or DEG, aJ/ANG or AJ/DEG ---
	-------------------------------------------------------------------------------
	           Coordinate      Previous         Force          Change          New
	           ----------      --------        ------          ------        ------
	               R(1,2)       1.92962       -0.00051       -0.00008       1.92955
	-------------------------------------------------------------------------------

	                                 ==> Convergence Check <==

	Measures of convergence in internal coordinates in au.

	Criteria marked as inactive (o), active & met (*), and active & unmet ( ).

	----------------------------------------------------------------------------------------------
	   Step    Total Energy     Delta E     Max Force     RMS Force      Max Disp      RMS Disp
	----------------------------------------------------------------------------------------------
	  Convergence Criteria     1.00e-06 *    3.00e-04 *             o    1.20e-03 *             o
	----------------------------------------------------------------------------------------------
	    13    -986.35031403   -9.23e-08 *    6.24e-05 *    6.24e-05 o    1.49e-04 *    1.49e-04 o  ~
	----------------------------------------------------------------------------------------------

Next Geometry in Ang
	Fragment 1 (Ang)

	   Cl   0.0000000000   0.0000000000   1.0290690499
	   Ar   0.0000000000   0.0000000000  -0.9004760172

    Final optimized geometry and variables:
    Molecular point group: c2v
    Full point group: C_inf_v

    Geometry (in Angstrom), charge = -1, multiplicity = 5:

    CL           0.000000000000     0.000000000000     1.029108383409
    AR           0.000000000000     0.000000000000    -0.900515350695

    Psi4 stopped on: Thursday, 17 July 2025 12:12PM
    Psi4 wall time for execution: 0:00:18.83

*** Psi4 exiting successfully. Buy a developer a beer!
