                               Psi4 1.9.1 release

  ==> Input File <==

--------------------------------------------------------------------------
molecule {
-1 5
C   0.00000        0.60000        0.00000
Al   0.00000       -0.60000        0.00000
}

set {
basis              cc-pvdz
reference          uks
maxiter            500
geom_maxiter       500
DAMPING_PERCENTAGE 1
guess              SAP
}

optimize('b3lyp')
--------------------------------------------------------------------------

    Molecular point group: c2v
  Charge       = -1
  Multiplicity = 5
  Basis Set: CC-PVDZ
    Blend: CC-PVDZ
  Basis Set: (CC-PVDZ AUX)
    Blend: CC-PVDZ-JKFIT
  @DF-UKS Final Energy:  -279.76517058489412
    Total Energy =                       -279.7651705848941219
 Dipole X            :          0.0000000            0.0000000            0.0000000
 Dipole Y            :          0.0000000            0.0000000            0.0000000
 Dipole Z            :         -0.1643255            0.3425940            0.1782685
 Magnitude           :                                                    0.1782685
    Molecular point group: c2v
  Basis Set: CC-PVDZ
    Blend: CC-PVDZ
  Basis Set: (CC-PVDZ AUX)
    Blend: CC-PVDZ-JKFIT
  Basis Set: CC-PVDZ
    Blend: CC-PVDZ
  Basis Set: (CC-PVDZ AUX)
    Blend: CC-PVDZ-JKFIT
  @DF-UKS Final Energy:  -280.00931196163799
    Total Energy =                       -280.0093119616379909
  Basis Set: CC-PVDZ
    Blend: CC-PVDZ
  Basis Set: (CC-PVDZ AUX)
    Blend: CC-PVDZ-JKFIT
  Basis Set: CC-PVDZ
    Blend: CC-PVDZ
  @DF-UKS Final Energy:  -280.14529646018781
    Total Energy =                       -280.1452964601878080
  @DF-UKS Final Energy:  -280.26078407114522
    Total Energy =                       -280.2607840711452241
  @DF-UKS Final Energy:  -280.32188454976585
    Total Energy =                       -280.3218845497658549
  @DF-UKS Final Energy:  -280.33050686684254
    Total Energy =                       -280.3305068668425406
  @DF-UKS Final Energy:  -280.33499815082763
    Total Energy =                       -280.3349981508275732
  @DF-UKS Final Energy:  -280.33582159033585
    Total Energy =                       -280.3358215903358541
  @DF-UKS Final Energy:  -280.33599888794015
    Total Energy =                       -280.3359988879401499
  @DF-UKS Final Energy:  -280.33604713279232
    Total Energy =                       -280.3360471327923165
  Basis Set: (CC-PVDZ AUX)
    Blend: CC-PVDZ-JKFIT
  Basis Set: CC-PVDZ
    Blend: CC-PVDZ
  Basis Set: (CC-PVDZ AUX)
    Blend: CC-PVDZ-JKFIT
  @DF-UKS Final Energy:  -280.33605371836484
    Total Energy =                       -280.3360537183648376
  Basis Set: CC-PVDZ
    Blend: CC-PVDZ
  Basis Set: (CC-PVDZ AUX)
    Blend: CC-PVDZ-JKFIT
  Charge       = -1
  Multiplicity = 5
  Basis Set: CC-PVDZ
    Blend: CC-PVDZ
  Basis Set: (CC-PVDZ AUX)
    Blend: CC-PVDZ-JKFIT

    Orbital Energies [Eh]
    ---------------------

    Alpha Occupied:

       1A1   -55.839841     2A1   -10.000874     3A1    -3.919578
       1B1    -2.474006     4A1    -2.471824     1B2    -2.471646
       5A1    -0.363389     6A1    -0.115086     2B2    -0.024134
       2B1    -0.016801     7A1    -0.008804     3B2     0.090186

    Alpha Virtual:

       3B1     0.138017     8A1     0.210466     9A1     0.350935
       4B2     0.402508     4B1     0.407436    10A1     0.438008
       1A2     0.463018    11A1     0.465929     5B2     0.501424
       5B1     0.504800    12A1     0.588371     6B2     0.731231
       6B1     0.732770    13A1     0.773062    14A1     1.055741
       2A2     1.370851    15A1     1.371065     7B1     1.454915
       7B2     1.455430    16A1     1.703688

    Beta Occupied:

       1A1   -55.837594     2A1    -9.969537     3A1    -3.916932
       1B1    -2.471980     4A1    -2.468087     1B2    -2.465681
       5A1    -0.240803     6A1    -0.049891

    Beta Virtual:

       2B1     0.106750     7A1     0.118690     2B2     0.123394
       3B1     0.199335     3B2     0.214028     8A1     0.243740
       9A1     0.371288     4B1     0.416433     4B2     0.433775
      10A1     0.470224     1A2     0.500513    11A1     0.501511
       5B1     0.537303     5B2     0.555163    12A1     0.630179
       6B1     0.802031     6B2     0.811152    13A1     0.838346
      14A1     1.124347    15A1     1.478625     2A2     1.478635
       7B1     1.546132     7B2     1.555773    16A1     1.786294

    Final Occupation by Irrep:
             A1    A2    B1    B2
    DOCC [     6,    0,    1,    1 ]
    SOCC [     1,    0,    1,    2 ]
    NA   [     7,    0,    2,    3 ]
    NB   [     6,    0,    1,    1 ]

  @DF-UKS Final Energy:  -280.33605475981682

   => Energetics <=

    Nuclear Repulsion Energy =             19.0115682738800267
    One-Electron Energy =                -429.7622697474674851
    Two-Electron Energy =                 149.8533705413674113
    DFT Exchange-Correlation Energy =     -19.4387238275967924
    Empirical Dispersion Energy =           0.0000000000000000
    VV10 Nonlocal Energy =                  0.0000000000000000
    Total Energy =                       -280.3360547598168182

  UHF NO Occupations:
  HONO-2 :    2 B1 1.0000000
  HONO-1 :    2 B2 1.0000000
  HONO-0 :    3 B2 1.0000000
  LUNO+0 :    8 A1 0.0015208
  LUNO+1 :    9 A1 0.0013309
  LUNO+2 :   10 A1 0.0000003
  LUNO+3 :   11 A1 0.0000000

Computation Completed

Properties will be evaluated at   0.000000,   0.000000,   0.000000 [a0]

Properties computed using the SCF density matrix

 Multipole Moments:

 ------------------------------------------------------------------------------------
     Multipole            Electronic (a.u.)      Nuclear  (a.u.)        Total (a.u.)
 ------------------------------------------------------------------------------------

 L = 1.  Multiply by 2.5417464519 to convert [e a0] to [Debye]
 Dipole X            :          0.0000000            0.0000000            0.0000000
 Dipole Y            :          0.0000000            0.0000000            0.0000000
 Dipole Z            :         -0.6550064            0.6198353           -0.0351711
 Magnitude           :                                                    0.0351711

 ------------------------------------------------------------------------------------

*** tstop() called on Joses-MacBook-Pro-2.local at Thu Jul 17 10:20:12 2025
Module time:
	user time   =       3.64 seconds =       0.06 minutes
	system time =       3.61 seconds =       0.06 minutes
	total time  =          1 seconds =       0.02 minutes
Total time:
	user time   =      66.29 seconds =       1.10 minutes
	system time =      71.93 seconds =       1.20 minutes
	total time  =         14 seconds =       0.23 minutes

*** tstart() called on Joses-MacBook-Pro-2.local
*** at Thu Jul 17 10:20:12 2025

         ------------------------------------------------------------
                                   SCF GRAD
                          Rob Parrish, Justin Turney,
                       Andy Simmonett, and Alex Sokolov
         ------------------------------------------------------------

  ==> Geometry <==

    Molecular point group: c2v
    Full point group: C_inf_v

    Geometry (in Angstrom), charge = -1, multiplicity = 5:

       Center              X                  Y                   Z               Mass
    ------------   -----------------  -----------------  -----------------  -----------------
         C            0.000000000000     0.000000000000     1.502745811685    12.000000000000
         AL           0.000000000000     0.000000000000    -0.668344013080    26.981538530000

  Nuclear repulsion =   19.011568273880027

  ==> Basis Set <==

  Basis Set: CC-PVDZ
    Blend: CC-PVDZ
    Number of shells: 14
    Number of basis functions: 32
    Number of Cartesian functions: 34
    Spherical Harmonics?: true
    Max angular momentum: 2

  ==> DFJKGrad: Density-Fitted SCF Gradients <==

    Gradient:                    1
    J tasked:                  Yes
    K tasked:                  Yes
    wK tasked:                  No
    OpenMP threads:              1
    Integrals threads:           1
    Memory [MiB]:              375
    Schwarz Cutoff:          1E-12
    Fitting Condition:       1E-10

   => Auxiliary Basis Set <=

  Basis Set: (CC-PVDZ AUX)
    Blend: CC-PVDZ-JKFIT
    Number of shells: 60
    Number of basis functions: 182
    Number of Cartesian functions: 211
    Spherical Harmonics?: true
    Max angular momentum: 3

  ==> DFT Potential <==

   => LibXC <=

    Version 6.2.2
    S. Lehtola, C. Steigemann, M. J.T. Oliveira, and M. A.L. Marques.,  SoftwareX 7, 1â€“5 (2018) (10.1016/j.softx.2017.11.002)

   => Composite Functional: B3LYP <=

    B3LYP Hyb-GGA Exchange-Correlation Functional

    P. J. Stephens, F. J. Devlin, C. F. Chabalowski, and M. J. Frisch.,  J. Phys. Chem. 98, 11623 (1994) (10.1021/j100096a001)

    Deriv               =              1
    GGA                 =           TRUE
    Meta                =          FALSE

    Exchange Hybrid     =           TRUE
    MP2 Hybrid          =          FALSE

   => Exchange Functionals <=

    0.0800   Slater exchange
    0.7200         Becke 88

   => Exact (HF) Exchange <=

    0.2000               HF

   => Correlation Functionals <=

    0.1900   Vosko, Wilk & Nusair (VWN5_RPA)
    0.8100   Lee, Yang & Parr

   => LibXC Density Thresholds  <==

    XC_HYB_GGA_XC_B3LYP:  1.00E-15

   => Molecular Quadrature <=

    Radial Scheme          =       TREUTLER
    Pruning Scheme         =           NONE
    Nuclear Scheme         =       TREUTLER

    Blocking Scheme        =         OCTREE
    BS radius alpha        =              1
    Pruning alpha          =              1
    Radial Points          =             75
    Spherical Points       =            302
    Total Points           =          43282
    Total Blocks           =            403
    Max Points             =            255
    Max Functions          =             32
    Weights Tolerance      =       1.00E-15

  -Total Gradient:
     Atom            X                  Y                   Z
    ------   -----------------  -----------------  -----------------
       1        0.000000000000     0.000000000000    -0.000076371437
       2        0.000000000000    -0.000000000000     0.000062429846

*** tstop() called on Joses-MacBook-Pro-2.local at Thu Jul 17 10:20:12 2025
Module time:
	user time   =       1.87 seconds =       0.03 minutes
	system time =       0.59 seconds =       0.01 minutes
	total time  =          0 seconds =       0.00 minutes
Total time:
	user time   =      68.17 seconds =       1.14 minutes
	system time =      72.53 seconds =       1.21 minutes
	total time  =         14 seconds =       0.23 minutes

    			-----------------------------------------

    			 OPTKING 3.0: for geometry optimizations

    			     By R.A. King, Bethel University

    			        with contributions from

    			    A.V. Copan, J. Cayton, A. Heide

    			-----------------------------------------

	                            ===> Fragment 1 <==

	 Z (Atomic Numbers)          Masses                          Geom
	       6.000000            12.000000          0.00000000  0.00000000  2.83977802
	      13.000000            26.981539          0.00000000  0.00000000 -1.26298714

	 - Coordinate -           - BOHR/RAD -       - ANG/DEG -
	 R(1,2)           =         4.102765           2.171090

	        --- Internal Coordinate Step in ANG or DEG, aJ/ANG or AJ/DEG ---
	-------------------------------------------------------------------------------
	           Coordinate      Previous         Force          Change          New
	           ----------      --------        ------          ------        ------
	               R(1,2)       2.17109        0.00057        0.00060       2.17169
	-------------------------------------------------------------------------------

	                                 ==> Convergence Check <==

	Measures of convergence in internal coordinates in au.

	Criteria marked as inactive (o), active & met (*), and active & unmet ( ).

	----------------------------------------------------------------------------------------------
	   Step    Total Energy     Delta E     Max Force     RMS Force      Max Disp      RMS Disp
	----------------------------------------------------------------------------------------------
	  Convergence Criteria     1.00e-06 *    3.00e-04 *             o    1.20e-03 *             o
	----------------------------------------------------------------------------------------------
	    12    -280.33605476   -1.04e-06      6.94e-05 *    6.94e-05 o    1.13e-03 *    1.13e-03 o  ~
	----------------------------------------------------------------------------------------------

Next Geometry in Ang
	Fragment 1 (Ang)

	    C   0.0000000000   0.0000000000   1.5030438781
	   Al   0.0000000000   0.0000000000  -0.6686420795

    Final optimized geometry and variables:
    Molecular point group: c2v
    Full point group: C_inf_v

    Geometry (in Angstrom), charge = -1, multiplicity = 5:

    C            0.000000000000     0.000000000000     1.502745811685
    AL           0.000000000000     0.000000000000    -0.668344013080

    Psi4 stopped on: Thursday, 17 July 2025 10:20AM
    Psi4 wall time for execution: 0:00:14.92

*** Psi4 exiting successfully. Buy a developer a beer!
