                               Psi4 1.9.1 release

  ==> Input File <==

--------------------------------------------------------------------------
molecule {
-1 5
C   0.00000        0.60000        0.00000
Cl   0.00000       -0.60000        0.00000
}

set {
basis              cc-pvdz
reference          uks
maxiter            500
geom_maxiter       500
DAMPING_PERCENTAGE 1
guess              SAP
}

optimize('b3lyp')
--------------------------------------------------------------------------

    Molecular point group: c2v
  Charge       = -1
  Multiplicity = 5
  Basis Set: CC-PVDZ
    Blend: CC-PVDZ
  Basis Set: (CC-PVDZ AUX)
    Blend: CC-PVDZ-JKFIT
  @DF-UKS Final Energy:  -497.44769083969055
    Total Energy =                       -497.4476908396905515
 Dipole X            :          0.0000000            0.0000000            0.0000000
 Dipole Y            :          0.0000000            0.0000000            0.0000000
 Dipole Z            :         -0.3660524            0.2806591           -0.0853933
 Magnitude           :                                                    0.0853933
    Molecular point group: c2v
  Basis Set: CC-PVDZ
    Blend: CC-PVDZ
  Basis Set: (CC-PVDZ AUX)
    Blend: CC-PVDZ-JKFIT
  Basis Set: CC-PVDZ
    Blend: CC-PVDZ
  Basis Set: (CC-PVDZ AUX)
    Blend: CC-PVDZ-JKFIT
  @DF-UKS Final Energy:  -497.67238985220655
    Total Energy =                       -497.6723898522065497
  Basis Set: CC-PVDZ
    Blend: CC-PVDZ
  Basis Set: (CC-PVDZ AUX)
    Blend: CC-PVDZ-JKFIT
  Basis Set: CC-PVDZ
    Blend: CC-PVDZ
  @DF-UKS Final Energy:  -497.80667466095395
    Total Energy =                       -497.8066746609539450
  @DF-UKS Final Energy:  -497.89971127913259
    Total Energy =                       -497.8997112791325890
  @DF-UKS Final Energy:  -497.97653844883445
    Total Energy =                       -497.9765384488344466
  @DF-UKS Final Energy:  -498.01608619028599
    Total Energy =                       -498.0160861902859892
  @DF-UKS Final Energy:  -498.03309647665861
    Total Energy =                       -498.0330964766586135
  @DF-UKS Final Energy:  -498.04040521486689
    Total Energy =                       -498.0404052148668939
  @DF-UKS Final Energy:  -498.04328180030308
    Total Energy =                       -498.0432818003030775
  @DF-UKS Final Energy:  -498.04421295158073
    Total Energy =                       -498.0442129515807324
  @DF-UKS Final Energy:  -498.04439401228080
    Total Energy =                       -498.0443940122808044
  @DF-UKS Final Energy:  -498.04444212420913
    Total Energy =                       -498.0444421242091266
  Basis Set: (CC-PVDZ AUX)
    Blend: CC-PVDZ-JKFIT
  Basis Set: CC-PVDZ
    Blend: CC-PVDZ
  Basis Set: (CC-PVDZ AUX)
    Blend: CC-PVDZ-JKFIT
  @DF-UKS Final Energy:  -498.04444763698558
    Total Energy =                       -498.0444476369855806
  Basis Set: CC-PVDZ
    Blend: CC-PVDZ
  Basis Set: (CC-PVDZ AUX)
    Blend: CC-PVDZ-JKFIT
  Charge       = -1
  Multiplicity = 5
  Basis Set: CC-PVDZ
    Blend: CC-PVDZ
  Basis Set: (CC-PVDZ AUX)
    Blend: CC-PVDZ-JKFIT

    Orbital Energies [Eh]
    ---------------------

    Alpha Occupied:

       1A1  -101.347173     2A1    -9.926712     3A1    -9.260190
       4A1    -7.029678     1B1    -7.012225     1B2    -7.012225
       5A1    -0.600463     6A1    -0.276350     7A1    -0.153141
       2B1    -0.120238     2B2    -0.120238     3B1     0.060401
       3B2     0.060401     8A1     0.071513

    Alpha Virtual:

       4B1     0.707669     4B2     0.707669     9A1     0.712049
      10A1     0.754529     5B1     0.777232     5B2     0.777232
      11A1     0.784489    12A1     0.871089     6B2     0.923845
       6B1     0.923845     1A2     0.943118    13A1     0.943120
      14A1     1.097749     2A2     1.432636    15A1     1.432647
       7B1     1.437764     7B2     1.437764    16A1     1.531363

    Beta Occupied:

       1A1  -101.341553     2A1    -9.885180     3A1    -9.254613
       4A1    -7.012090     1B1    -7.008720     1B2    -7.008720
       5A1    -0.559316     6A1    -0.111106     2B2    -0.107041
       2B1    -0.107041

    Beta Virtual:

       7A1    -0.009743     3B1     0.256584     3B2     0.256584
       8A1     0.268969     4B1     0.742679     4B2     0.742679
       9A1     0.754786    10A1     0.818328     5B1     0.844866
       5B2     0.844866    11A1     0.864616    12A1     0.930480
       1A2     0.950771    13A1     0.950774     6B2     0.970627
       6B1     0.970627    14A1     1.165366     2A2     1.558814
      15A1     1.558829     7B2     1.561826     7B1     1.561826
      16A1     1.641846

    Final Occupation by Irrep:
             A1    A2    B1    B2
    DOCC [     6,    0,    2,    2 ]
    SOCC [     2,    0,    1,    1 ]
    NA   [     8,    0,    3,    3 ]
    NB   [     6,    0,    2,    2 ]

  @DF-UKS Final Energy:  -498.04444829747996

   => Energetics <=

    Nuclear Repulsion Energy =             19.0272967490299258
    One-Electron Energy =                -729.7042922852008360
    Two-Electron Energy =                 239.8437027404722528
    DFT Exchange-Correlation Energy =     -27.2111555017813167
    Empirical Dispersion Energy =           0.0000000000000000
    VV10 Nonlocal Energy =                  0.0000000000000000
    Total Energy =                       -498.0444482974799598

  UHF NO Occupations:
  HONO-2 :    3 B1 1.0000000
  HONO-1 :    7 A1 1.0000000
  HONO-0 :    8 A1 1.0000000
  LUNO+0 :    9 A1 0.0015468
  LUNO+1 :   10 A1 0.0004681
  LUNO+2 :    4 B2 0.0000360
  LUNO+3 :    4 B1 0.0000360

Computation Completed

Properties will be evaluated at   0.000000,   0.000000,   0.000000 [a0]

Properties computed using the SCF density matrix

 Multipole Moments:

 ------------------------------------------------------------------------------------
     Multipole            Electronic (a.u.)      Nuclear  (a.u.)        Total (a.u.)
 ------------------------------------------------------------------------------------

 L = 1.  Multiply by 2.5417464519 to convert [e a0] to [Debye]
 Dipole X            :          0.0000000            0.0000000            0.0000000
 Dipole Y            :          0.0000000            0.0000000            0.0000000
 Dipole Z            :         -3.1288757            0.6634713           -2.4654044
 Magnitude           :                                                    2.4654044

 ------------------------------------------------------------------------------------

*** tstop() called on Joses-MacBook-Pro-2.local at Thu Jul 17 10:23:17 2025
Module time:
	user time   =       3.14 seconds =       0.05 minutes
	system time =       3.81 seconds =       0.06 minutes
	total time  =          0 seconds =       0.00 minutes
Total time:
	user time   =      64.14 seconds =       1.07 minutes
	system time =      86.86 seconds =       1.45 minutes
	total time  =         15 seconds =       0.25 minutes

*** tstart() called on Joses-MacBook-Pro-2.local
*** at Thu Jul 17 10:23:17 2025

         ------------------------------------------------------------
                                   SCF GRAD
                          Rob Parrish, Justin Turney,
                       Andy Simmonett, and Alex Sokolov
         ------------------------------------------------------------

  ==> Geometry <==

    Molecular point group: c2v
    Full point group: C_inf_v

    Geometry (in Angstrom), charge = -1, multiplicity = 5:

       Center              X                  Y                   Z               Mass
    ------------   -----------------  -----------------  -----------------  -----------------
         C            0.000000000000     0.000000000000     2.112008417738    12.000000000000
         CL           0.000000000000     0.000000000000    -0.724762154576    34.968852682000

  Nuclear repulsion =   19.027296749029926

  ==> Basis Set <==

  Basis Set: CC-PVDZ
    Blend: CC-PVDZ
    Number of shells: 14
    Number of basis functions: 32
    Number of Cartesian functions: 34
    Spherical Harmonics?: true
    Max angular momentum: 2

  ==> DFJKGrad: Density-Fitted SCF Gradients <==

    Gradient:                    1
    J tasked:                  Yes
    K tasked:                  Yes
    wK tasked:                  No
    OpenMP threads:              1
    Integrals threads:           1
    Memory [MiB]:              375
    Schwarz Cutoff:          1E-12
    Fitting Condition:       1E-10

   => Auxiliary Basis Set <=

  Basis Set: (CC-PVDZ AUX)
    Blend: CC-PVDZ-JKFIT
    Number of shells: 60
    Number of basis functions: 182
    Number of Cartesian functions: 211
    Spherical Harmonics?: true
    Max angular momentum: 3

  ==> DFT Potential <==

   => LibXC <=

    Version 6.2.2
    S. Lehtola, C. Steigemann, M. J.T. Oliveira, and M. A.L. Marques.,  SoftwareX 7, 1â€“5 (2018) (10.1016/j.softx.2017.11.002)

   => Composite Functional: B3LYP <=

    B3LYP Hyb-GGA Exchange-Correlation Functional

    P. J. Stephens, F. J. Devlin, C. F. Chabalowski, and M. J. Frisch.,  J. Phys. Chem. 98, 11623 (1994) (10.1021/j100096a001)

    Deriv               =              1
    GGA                 =           TRUE
    Meta                =          FALSE

    Exchange Hybrid     =           TRUE
    MP2 Hybrid          =          FALSE

   => Exchange Functionals <=

    0.0800   Slater exchange
    0.7200         Becke 88

   => Exact (HF) Exchange <=

    0.2000               HF

   => Correlation Functionals <=

    0.1900   Vosko, Wilk & Nusair (VWN5_RPA)
    0.8100   Lee, Yang & Parr

   => LibXC Density Thresholds  <==

    XC_HYB_GGA_XC_B3LYP:  1.00E-15

   => Molecular Quadrature <=

    Radial Scheme          =       TREUTLER
    Pruning Scheme         =           NONE
    Nuclear Scheme         =       TREUTLER

    Blocking Scheme        =         OCTREE
    BS radius alpha        =              1
    Pruning alpha          =              1
    Radial Points          =             75
    Spherical Points       =            302
    Total Points           =          41234
    Total Blocks           =            370
    Max Points             =            252
    Max Functions          =             32
    Weights Tolerance      =       1.00E-15

  -Total Gradient:
     Atom            X                  Y                   Z
    ------   -----------------  -----------------  -----------------
       1        0.000000000000     0.000000000000    -0.000046648296
       2       -0.000000000000    -0.000000000000     0.000047924039

*** tstop() called on Joses-MacBook-Pro-2.local at Thu Jul 17 10:23:17 2025
Module time:
	user time   =       1.50 seconds =       0.03 minutes
	system time =       0.95 seconds =       0.02 minutes
	total time  =          0 seconds =       0.00 minutes
Total time:
	user time   =      65.65 seconds =       1.09 minutes
	system time =      87.81 seconds =       1.46 minutes
	total time  =         15 seconds =       0.25 minutes

    			-----------------------------------------

    			 OPTKING 3.0: for geometry optimizations

    			     By R.A. King, Bethel University

    			        with contributions from

    			    A.V. Copan, J. Cayton, A. Heide

    			-----------------------------------------

	                            ===> Fragment 1 <==

	 Z (Atomic Numbers)          Masses                          Geom
	       6.000000            12.000000          0.00000000  0.00000000  3.99111748
	      17.000000            34.968853          0.00000000  0.00000000 -1.36960198

	 - Coordinate -           - BOHR/RAD -       - ANG/DEG -
	 R(1,2)           =         5.360719           2.836771

	        --- Internal Coordinate Step in ANG or DEG, aJ/ANG or AJ/DEG ---
	-------------------------------------------------------------------------------
	           Coordinate      Previous         Force          Change          New
	           ----------      --------        ------          ------        ------
	               R(1,2)       2.83677        0.00039        0.00192       2.83869
	-------------------------------------------------------------------------------

	                                 ==> Convergence Check <==

	Measures of convergence in internal coordinates in au.

	Criteria marked as inactive (o), active & met (*), and active & unmet ( ).

	----------------------------------------------------------------------------------------------
	   Step    Total Energy     Delta E     Max Force     RMS Force      Max Disp      RMS Disp
	----------------------------------------------------------------------------------------------
	  Convergence Criteria     1.00e-06 *    3.00e-04 *             o    1.20e-03 *             o
	----------------------------------------------------------------------------------------------
	    14    -498.04444830   -6.60e-07 *    4.73e-05 *    4.73e-05 o    3.63e-03      3.63e-03 o  ~
	----------------------------------------------------------------------------------------------

Next Geometry in Ang
	Fragment 1 (Ang)

	    C   0.0000000000   0.0000000000   2.1129677931
	   Cl   0.0000000000   0.0000000000  -0.7257215299

    Final optimized geometry and variables:
    Molecular point group: c2v
    Full point group: C_inf_v

    Geometry (in Angstrom), charge = -1, multiplicity = 5:

    C            0.000000000000     0.000000000000     2.112008417738
    CL           0.000000000000     0.000000000000    -0.724762154576

    Psi4 stopped on: Thursday, 17 July 2025 10:23AM
    Psi4 wall time for execution: 0:00:15.89

*** Psi4 exiting successfully. Buy a developer a beer!
