                               Psi4 1.9.1 release

  ==> Input File <==

--------------------------------------------------------------------------
molecule {
-1 5
B   0.00000        0.60000        0.00000
Ne   0.00000       -0.60000        0.00000
}

set {
basis              cc-pvdz
reference          uks
maxiter            500
geom_maxiter       500
DAMPING_PERCENTAGE 1
guess              SAP
}

optimize('b3lyp')
--------------------------------------------------------------------------

    Molecular point group: c2v
  Charge       = -1
  Multiplicity = 5
  Basis Set: CC-PVDZ
    Blend: CC-PVDZ
  Basis Set: (CC-PVDZ AUX)
    Blend: CC-PVDZ-JKFIT
  @DF-UKS Final Energy:  -153.15962623661017
    Total Energy =                       -153.1596262366101655
 Dipole X            :          0.0000000            0.0000000            0.0000000
 Dipole Y            :          0.0000000            0.0000000            0.0000000
 Dipole Z            :         -1.2309037           -0.7410371           -1.9719408
 Magnitude           :                                                    1.9719408
    Molecular point group: c2v
  Basis Set: CC-PVDZ
    Blend: CC-PVDZ
  Basis Set: (CC-PVDZ AUX)
    Blend: CC-PVDZ-JKFIT
  Basis Set: CC-PVDZ
    Blend: CC-PVDZ
  Basis Set: (CC-PVDZ AUX)
    Blend: CC-PVDZ-JKFIT
  @DF-UKS Final Energy:  -153.26038746842102
    Total Energy =                       -153.2603874684210439
  Basis Set: CC-PVDZ
    Blend: CC-PVDZ
  Basis Set: (CC-PVDZ AUX)
    Blend: CC-PVDZ-JKFIT
  Basis Set: CC-PVDZ
    Blend: CC-PVDZ
  @DF-UKS Final Energy:  -153.33014001587202
    Total Energy =                       -153.3301400158720185
  @DF-UKS Final Energy:  -153.39261989818311
    Total Energy =                       -153.3926198981831135
  @DF-UKS Final Energy:  -153.41188340461264
    Total Energy =                       -153.4118834046126665
  @DF-UKS Final Energy:  -153.43141562407149
    Total Energy =                       -153.4314156240714908
  @DF-UKS Final Energy:  -153.44096444713261
    Total Energy =                       -153.4409644471326146
  @DF-UKS Final Energy:  -153.44629062739824
    Total Energy =                       -153.4462906273982412
  @DF-UKS Final Energy:  -153.44898350428161
    Total Energy =                       -153.4489835042816139
  @DF-UKS Final Energy:  -153.45028539726701
    Total Energy =                       -153.4502853972670096
  @DF-UKS Final Energy:  -153.45088306292953
    Total Energy =                       -153.4508830629295346
  @DF-UKS Final Energy:  -153.45113106413268
    Total Energy =                       -153.4511310641326531
  @DF-UKS Final Energy:  -153.45121754193659
    Total Energy =                       -153.4512175419365860
  @DF-UKS Final Energy:  -153.45124033947079
    Total Energy =                       -153.4512403394707860
  Basis Set: (CC-PVDZ AUX)
    Blend: CC-PVDZ-JKFIT
  Basis Set: CC-PVDZ
    Blend: CC-PVDZ
  Basis Set: (CC-PVDZ AUX)
    Blend: CC-PVDZ-JKFIT
  @DF-UKS Final Energy:  -153.45124401885832
    Total Energy =                       -153.4512440188583184
  Basis Set: CC-PVDZ
    Blend: CC-PVDZ
  Basis Set: (CC-PVDZ AUX)
    Blend: CC-PVDZ-JKFIT
  Charge       = -1
  Multiplicity = 5
  Basis Set: CC-PVDZ
    Blend: CC-PVDZ
  Basis Set: (CC-PVDZ AUX)
    Blend: CC-PVDZ-JKFIT

    Orbital Energies [Eh]
    ---------------------

    Alpha Occupied:

       1A1   -30.819258     2A1    -6.525658     3A1    -1.284745
       1B1    -0.393654     1B2    -0.393654     4A1    -0.392186
       5A1    -0.137465     2B2     0.092091     2B1     0.092091
       6A1     0.092410

    Alpha Virtual:

       3B2     0.532105     3B1     0.532105     7A1     0.532751
       8A1     0.592123     9A1     0.955754     4B2     0.955879
       4B1     0.955879     1A2     0.955908    10A1     0.955909
       5B1     1.504764     5B2     1.504764    11A1     1.520799
      12A1     1.972096     2A2     4.871897    13A1     4.871974
       6B1     4.872767     6B2     4.872767    14A1     4.873271

    Beta Occupied:

       1A1   -30.819161     2A1    -6.487844     3A1    -1.284591
       1B1    -0.393596     1B2    -0.393596     4A1    -0.391925

    Beta Virtual:

       5A1     0.130622     6A1     0.297747     2B2     0.303192
       2B1     0.303192     7A1     0.637765     3B2     0.642710
       3B1     0.642710     8A1     0.708725     9A1     1.135836
       4B1     1.136463     4B2     1.136463    10A1     1.136991
       1A2     1.137021     5B1     1.504713     5B2     1.504713
      11A1     1.521662    12A1     1.972625     2A2     4.871951
      13A1     4.872028     6B1     4.872913     6B2     4.872913
      14A1     4.873449

    Final Occupation by Irrep:
             A1    A2    B1    B2
    DOCC [     4,    0,    1,    1 ]
    SOCC [     2,    0,    1,    1 ]
    NA   [     6,    0,    2,    2 ]
    NB   [     4,    0,    1,    1 ]

  @DF-UKS Final Energy:  -153.45124464923938

   => Energetics <=

    Nuclear Repulsion Energy =              7.0155778608965242
    One-Electron Energy =                -231.8312711715597914
    Two-Electron Energy =                  84.8455088718104662
    DFT Exchange-Correlation Energy =     -13.4810602103865698
    Empirical Dispersion Energy =           0.0000000000000000
    VV10 Nonlocal Energy =                  0.0000000000000000
    Total Energy =                       -153.4512446492393849

  UHF NO Occupations:
  HONO-2 :    2 B2 1.0000000
  HONO-1 :    6 A1 1.0000000
  HONO-0 :    2 B1 1.0000000
  LUNO+0 :    7 A1 0.0000005
  LUNO+1 :    8 A1 0.0000001
  LUNO+2 :    3 B1 0.0000000
  LUNO+3 :    3 B2 0.0000000

Computation Completed

Properties will be evaluated at   0.000000,   0.000000,   0.000000 [a0]

Properties computed using the SCF density matrix

 Multipole Moments:

 ------------------------------------------------------------------------------------
     Multipole            Electronic (a.u.)      Nuclear  (a.u.)        Total (a.u.)
 ------------------------------------------------------------------------------------

 L = 1.  Multiply by 2.5417464519 to convert [e a0] to [Debye]
 Dipole X            :          0.0000000            0.0000000            0.0000000
 Dipole Y            :          0.0000000            0.0000000            0.0000000
 Dipole Z            :         -2.2669778           -2.3289835           -4.5959613
 Magnitude           :                                                    4.5959613

 ------------------------------------------------------------------------------------

*** tstop() called on Joses-MacBook-Pro-2.local at Thu Jul 17 09:51:33 2025
Module time:
	user time   =       2.30 seconds =       0.04 minutes
	system time =       2.97 seconds =       0.05 minutes
	total time  =          1 seconds =       0.02 minutes
Total time:
	user time   =      57.46 seconds =       0.96 minutes
	system time =      73.79 seconds =       1.23 minutes
	total time  =         13 seconds =       0.22 minutes

*** tstart() called on Joses-MacBook-Pro-2.local
*** at Thu Jul 17 09:51:33 2025

         ------------------------------------------------------------
                                   SCF GRAD
                          Rob Parrish, Justin Turney,
                       Andy Simmonett, and Alex Sokolov
         ------------------------------------------------------------

  ==> Geometry <==

    Molecular point group: c2v
    Full point group: C_inf_v

    Geometry (in Angstrom), charge = -1, multiplicity = 5:

       Center              X                  Y                   Z               Mass
    ------------   -----------------  -----------------  -----------------  -----------------
         B            0.000000000000     0.000000000000     2.432133143741    11.009305360000
         NE           0.000000000000     0.000000000000    -1.339311070566    19.992440176200

  Nuclear repulsion =    7.015577860896524

  ==> Basis Set <==

  Basis Set: CC-PVDZ
    Blend: CC-PVDZ
    Number of shells: 12
    Number of basis functions: 28
    Number of Cartesian functions: 30
    Spherical Harmonics?: true
    Max angular momentum: 2

  ==> DFJKGrad: Density-Fitted SCF Gradients <==

    Gradient:                    1
    J tasked:                  Yes
    K tasked:                  Yes
    wK tasked:                  No
    OpenMP threads:              1
    Integrals threads:           1
    Memory [MiB]:              375
    Schwarz Cutoff:          1E-12
    Fitting Condition:       1E-10

   => Auxiliary Basis Set <=

  Basis Set: (CC-PVDZ AUX)
    Blend: CC-PVDZ-JKFIT
    Number of shells: 48
    Number of basis functions: 140
    Number of Cartesian functions: 162
    Spherical Harmonics?: true
    Max angular momentum: 3

  ==> DFT Potential <==

   => LibXC <=

    Version 6.2.2
    S. Lehtola, C. Steigemann, M. J.T. Oliveira, and M. A.L. Marques.,  SoftwareX 7, 1â€“5 (2018) (10.1016/j.softx.2017.11.002)

   => Composite Functional: B3LYP <=

    B3LYP Hyb-GGA Exchange-Correlation Functional

    P. J. Stephens, F. J. Devlin, C. F. Chabalowski, and M. J. Frisch.,  J. Phys. Chem. 98, 11623 (1994) (10.1021/j100096a001)

    Deriv               =              1
    GGA                 =           TRUE
    Meta                =          FALSE

    Exchange Hybrid     =           TRUE
    MP2 Hybrid          =          FALSE

   => Exchange Functionals <=

    0.0800   Slater exchange
    0.7200         Becke 88

   => Exact (HF) Exchange <=

    0.2000               HF

   => Correlation Functionals <=

    0.1900   Vosko, Wilk & Nusair (VWN5_RPA)
    0.8100   Lee, Yang & Parr

   => LibXC Density Thresholds  <==

    XC_HYB_GGA_XC_B3LYP:  1.00E-15

   => Molecular Quadrature <=

    Radial Scheme          =       TREUTLER
    Pruning Scheme         =           NONE
    Nuclear Scheme         =       TREUTLER

    Blocking Scheme        =         OCTREE
    BS radius alpha        =              1
    Pruning alpha          =              1
    Radial Points          =             75
    Spherical Points       =            302
    Total Points           =          43674
    Total Blocks           =            404
    Max Points             =            250
    Max Functions          =             28
    Weights Tolerance      =       1.00E-15

  -Total Gradient:
     Atom            X                  Y                   Z
    ------   -----------------  -----------------  -----------------
       1        0.000000000000     0.000000000000    -0.000028827762
       2        0.000000000000     0.000000000000    -0.000008673009

*** tstop() called on Joses-MacBook-Pro-2.local at Thu Jul 17 09:51:33 2025
Module time:
	user time   =       0.63 seconds =       0.01 minutes
	system time =       0.92 seconds =       0.02 minutes
	total time  =          0 seconds =       0.00 minutes
Total time:
	user time   =      58.09 seconds =       0.97 minutes
	system time =      74.71 seconds =       1.25 minutes
	total time  =         13 seconds =       0.22 minutes

    			-----------------------------------------

    			 OPTKING 3.0: for geometry optimizations

    			     By R.A. King, Bethel University

    			        with contributions from

    			    A.V. Copan, J. Cayton, A. Heide

    			-----------------------------------------

	                            ===> Fragment 1 <==

	 Z (Atomic Numbers)          Masses                          Geom
	       5.000000            11.009305          0.00000000  0.00000000  4.59606554
	      10.000000            19.992440          0.00000000  0.00000000 -2.53093112

	 - Coordinate -           - BOHR/RAD -       - ANG/DEG -
	 R(1,2)           =         7.126997           3.771444

	        --- Internal Coordinate Step in ANG or DEG, aJ/ANG or AJ/DEG ---
	-------------------------------------------------------------------------------
	           Coordinate      Previous         Force          Change          New
	           ----------      --------        ------          ------        ------
	               R(1,2)       3.77144        0.00008        0.00514       3.77658
	-------------------------------------------------------------------------------

	                                 ==> Convergence Check <==

	Measures of convergence in internal coordinates in au.

	Criteria marked as inactive (o), active & met (*), and active & unmet ( ).

	----------------------------------------------------------------------------------------------
	   Step    Total Energy     Delta E     Max Force     RMS Force      Max Disp      RMS Disp
	----------------------------------------------------------------------------------------------
	  Convergence Criteria     1.00e-06 *    3.00e-04 *             o    1.20e-03 *             o
	----------------------------------------------------------------------------------------------
	    16    -153.45124465   -6.30e-07 *    1.01e-05 *    1.01e-05 o    9.71e-03      9.71e-03 o  ~
	----------------------------------------------------------------------------------------------

Next Geometry in Ang
	Fragment 1 (Ang)

	    B   0.0000000000   0.0000000000   2.4347028347
	   Ne   0.0000000000   0.0000000000  -1.3418807615

    Final optimized geometry and variables:
    Molecular point group: c2v
    Full point group: C_inf_v

    Geometry (in Angstrom), charge = -1, multiplicity = 5:

    B            0.000000000000     0.000000000000     2.432133143741
    NE           0.000000000000     0.000000000000    -1.339311070566

    Psi4 stopped on: Thursday, 17 July 2025 09:51AM
    Psi4 wall time for execution: 0:00:13.18

*** Psi4 exiting successfully. Buy a developer a beer!
