                               Psi4 1.9.1 release

  ==> Input File <==

--------------------------------------------------------------------------
molecule {
-1 5
Be   0.00000        0.60000        0.00000
Cl   0.00000       -0.60000        0.00000
}

set {
basis              cc-pvdz
reference          uks
maxiter            500
geom_maxiter       500
DAMPING_PERCENTAGE 1
guess              SAP
}

optimize('b3lyp')
--------------------------------------------------------------------------

    Molecular point group: c2v
  Charge       = -1
  Multiplicity = 5
  Basis Set: CC-PVDZ
    Blend: CC-PVDZ
  Basis Set: (CC-PVDZ AUX)
    Blend: CC-PVDZ-JKFIT + DEF2-UNIVERSAL-JKFIT
  @DF-UKS Final Energy:  -474.13136091292620
    Total Energy =                       -474.1313609129261977
 Dipole X            :          0.0000000            0.0000000            0.0000000
 Dipole Y            :          0.0000000            0.0000000            0.0000000
 Dipole Z            :         -3.2071777           -0.6873853           -3.8945630
 Magnitude           :                                                    3.8945630
    Molecular point group: c2v
  Basis Set: CC-PVDZ
    Blend: CC-PVDZ
  Basis Set: (CC-PVDZ AUX)
    Blend: CC-PVDZ-JKFIT + DEF2-UNIVERSAL-JKFIT
  Basis Set: CC-PVDZ
    Blend: CC-PVDZ
  Basis Set: (CC-PVDZ AUX)
    Blend: CC-PVDZ-JKFIT + DEF2-UNIVERSAL-JKFIT
  @DF-UKS Final Energy:  -474.34656179954135
    Total Energy =                       -474.3465617995413481
  Basis Set: CC-PVDZ
    Blend: CC-PVDZ
  Basis Set: (CC-PVDZ AUX)
    Blend: CC-PVDZ-JKFIT + DEF2-UNIVERSAL-JKFIT
  Basis Set: CC-PVDZ
    Blend: CC-PVDZ
  @DF-UKS Final Energy:  -474.49158964825091
    Total Energy =                       -474.4915896482509083
  @DF-UKS Final Energy:  -474.57922283033702
    Total Energy =                       -474.5792228303370166
  @DF-UKS Final Energy:  -474.63206743371501
    Total Energy =                       -474.6320674337149512
  @DF-UKS Final Energy:  -474.66656964676019
    Total Energy =                       -474.6665696467601947
  @DF-UKS Final Energy:  -474.69118011472796
    Total Energy =                       -474.6911801147279562
  @DF-UKS Final Energy:  -474.70830551744780
    Total Energy =                       -474.7083055174477977
  @DF-UKS Final Energy:  -474.70973586050161
    Total Energy =                       -474.7097358605016666
  @DF-UKS Final Energy:  -474.72020717876745
    Total Energy =                       -474.7202071787674527
  @DF-UKS Final Energy:  -474.72063755503171
    Total Energy =                       -474.7206375550317148
  @DF-UKS Final Energy:  -474.72548870576566
    Total Energy =                       -474.7254887057655992
  @DF-UKS Final Energy:  -474.72560442624535
    Total Energy =                       -474.7256044262453543
  @DF-UKS Final Energy:  -474.72776506598944
    Total Energy =                       -474.7277650659894448
  @DF-UKS Final Energy:  -474.72779338271681
    Total Energy =                       -474.7277933827168113
  @DF-UKS Final Energy:  -474.72871121159000
    Total Energy =                       -474.7287112115899959
  @DF-UKS Final Energy:  -474.72871735000263
    Total Energy =                       -474.7287173500026825
  @DF-UKS Final Energy:  -474.72872338511223
    Total Energy =                       -474.7287233851121755
  @DF-UKS Final Energy:  -474.72907186496263
    Total Energy =                       -474.7290718649625774
  @DF-UKS Final Energy:  -474.72916397609089
    Total Energy =                       -474.7291639760908879
  @DF-UKS Final Energy:  -474.72919470631979
    Total Energy =                       -474.7291947063197881
  Basis Set: (CC-PVDZ AUX)
    Blend: CC-PVDZ-JKFIT + DEF2-UNIVERSAL-JKFIT
  Basis Set: CC-PVDZ
    Blend: CC-PVDZ
  Basis Set: (CC-PVDZ AUX)
    Blend: CC-PVDZ-JKFIT + DEF2-UNIVERSAL-JKFIT
  @DF-UKS Final Energy:  -474.72919940274431
    Total Energy =                       -474.7291994027442570
  Basis Set: CC-PVDZ
    Blend: CC-PVDZ
  Basis Set: (CC-PVDZ AUX)
    Blend: CC-PVDZ-JKFIT + DEF2-UNIVERSAL-JKFIT
  Charge       = -1
  Multiplicity = 5
  Basis Set: CC-PVDZ
    Blend: CC-PVDZ
  Basis Set: (CC-PVDZ AUX)
    Blend: CC-PVDZ-JKFIT + DEF2-UNIVERSAL-JKFIT

    Orbital Energies [Eh]
    ---------------------

    Alpha Occupied:

       1A1  -101.480268     2A1    -9.394217     3A1    -7.167976
       1B1    -7.144466     1B2    -7.144466     4A1    -3.849561
       5A1    -0.731393     6A1    -0.292196     2B2    -0.238658
       2B1    -0.238658     7A1    -0.044208     3B1     0.088041
       3B2     0.088041

    Alpha Virtual:

       8A1     0.144908     9A1     0.372070     4B1     0.375987
       4B2     0.375987    10A1     0.392537    11A1     0.619604
       5B1     0.641089     5B2     0.641089     1A2     0.673637
      12A1     0.673639     6B1     0.680095     6B2     0.680095
      13A1     0.685523    14A1     0.740725     7B2     0.779575
       7B1     0.779575    15A1     0.781139    16A1     0.822259
       2A2     0.822272

    Beta Occupied:

       1A1  -101.473495     2A1    -9.387523     3A1    -7.145958
       1B1    -7.140425     1B2    -7.140425     4A1    -3.832351
       5A1    -0.677981     2B2    -0.222717     2B1    -0.222717

    Beta Virtual:

       6A1    -0.130666     7A1     0.119793     8A1     0.208964
       3B1     0.233770     3B2     0.233770     9A1     0.419024
      10A1     0.438208     4B1     0.448655     4B2     0.448655
       5B2     0.649257     5B1     0.649257    11A1     0.663532
      12A1     0.740955     6B1     0.784351     6B2     0.784351
      13A1     0.801780    14A1     0.805710     1A2     0.805713
      15A1     0.830664     2A2     0.830677     7B2     0.837362
       7B1     0.837362    16A1     0.853214

    Final Occupation by Irrep:
             A1    A2    B1    B2
    DOCC [     5,    0,    2,    2 ]
    SOCC [     2,    0,    1,    1 ]
    NA   [     7,    0,    3,    3 ]
    NB   [     5,    0,    2,    2 ]

  @DF-UKS Final Energy:  -474.72919964632626

   => Energetics <=

    Nuclear Repulsion Energy =              8.2207202102884587
    One-Electron Energy =                -673.2373725745603679
    Two-Electron Energy =                 215.3934954514266451
    DFT Exchange-Correlation Energy =     -25.1060427334810292
    Empirical Dispersion Energy =           0.0000000000000000
    VV10 Nonlocal Energy =                  0.0000000000000000
    Total Energy =                       -474.7291996463262649

  UHF NO Occupations:
  HONO-2 :    3 B1 1.0000000
  HONO-1 :    7 A1 1.0000000
  HONO-0 :    3 B2 1.0000000
  LUNO+0 :    8 A1 0.0008613
  LUNO+1 :    4 B2 0.0000301
  LUNO+2 :    4 B1 0.0000301
  LUNO+3 :    9 A1 0.0000003

Computation Completed

Properties will be evaluated at   0.000000,   0.000000,   0.000000 [a0]

Properties computed using the SCF density matrix

 Multipole Moments:

 ------------------------------------------------------------------------------------
     Multipole            Electronic (a.u.)      Nuclear  (a.u.)        Total (a.u.)
 ------------------------------------------------------------------------------------

 L = 1.  Multiply by 2.5417464519 to convert [e a0] to [Debye]
 Dipole X            :          0.0000000            0.0000000            0.0000000
 Dipole Y            :          0.0000000            0.0000000            0.0000000
 Dipole Z            :         -3.9756517           -2.5073743           -6.4830260
 Magnitude           :                                                    6.4830260

 ------------------------------------------------------------------------------------

*** tstop() called on Joses-MacBook-Pro-2.local at Thu Jul 17 09:47:46 2025
Module time:
	user time   =       2.76 seconds =       0.05 minutes
	system time =       3.33 seconds =       0.06 minutes
	total time  =          0 seconds =       0.00 minutes
Total time:
	user time   =      93.06 seconds =       1.55 minutes
	system time =     129.31 seconds =       2.16 minutes
	total time  =         21 seconds =       0.35 minutes

*** tstart() called on Joses-MacBook-Pro-2.local
*** at Thu Jul 17 09:47:46 2025

         ------------------------------------------------------------
                                   SCF GRAD
                          Rob Parrish, Justin Turney,
                       Andy Simmonett, and Alex Sokolov
         ------------------------------------------------------------

  ==> Geometry <==

    Molecular point group: c2v
    Full point group: C_inf_v

    Geometry (in Angstrom), charge = -1, multiplicity = 5:

       Center              X                  Y                   Z               Mass
    ------------   -----------------  -----------------  -----------------  -----------------
         BE           0.000000000000     0.000000000000     3.480295410850     9.012183065000
         CL           0.000000000000     0.000000000000    -0.896942763553    34.968852682000

  Nuclear repulsion =    8.220720210288459

  ==> Basis Set <==

  Basis Set: CC-PVDZ
    Blend: CC-PVDZ
    Number of shells: 14
    Number of basis functions: 32
    Number of Cartesian functions: 34
    Spherical Harmonics?: true
    Max angular momentum: 2

  ==> DFJKGrad: Density-Fitted SCF Gradients <==

    Gradient:                    1
    J tasked:                  Yes
    K tasked:                  Yes
    wK tasked:                  No
    OpenMP threads:              1
    Integrals threads:           1
    Memory [MiB]:              375
    Schwarz Cutoff:          1E-12
    Fitting Condition:       1E-10

   => Auxiliary Basis Set <=

  Basis Set: (CC-PVDZ AUX)
    Blend: CC-PVDZ-JKFIT + DEF2-UNIVERSAL-JKFIT
    Number of shells: 53
    Number of basis functions: 163
    Number of Cartesian functions: 190
    Spherical Harmonics?: true
    Max angular momentum: 3

  ==> DFT Potential <==

   => LibXC <=

    Version 6.2.2
    S. Lehtola, C. Steigemann, M. J.T. Oliveira, and M. A.L. Marques.,  SoftwareX 7, 1â€“5 (2018) (10.1016/j.softx.2017.11.002)

   => Composite Functional: B3LYP <=

    B3LYP Hyb-GGA Exchange-Correlation Functional

    P. J. Stephens, F. J. Devlin, C. F. Chabalowski, and M. J. Frisch.,  J. Phys. Chem. 98, 11623 (1994) (10.1021/j100096a001)

    Deriv               =              1
    GGA                 =           TRUE
    Meta                =          FALSE

    Exchange Hybrid     =           TRUE
    MP2 Hybrid          =          FALSE

   => Exchange Functionals <=

    0.0800   Slater exchange
    0.7200         Becke 88

   => Exact (HF) Exchange <=

    0.2000               HF

   => Correlation Functionals <=

    0.1900   Vosko, Wilk & Nusair (VWN5_RPA)
    0.8100   Lee, Yang & Parr

   => LibXC Density Thresholds  <==

    XC_HYB_GGA_XC_B3LYP:  1.00E-15

   => Molecular Quadrature <=

    Radial Scheme          =       TREUTLER
    Pruning Scheme         =           NONE
    Nuclear Scheme         =       TREUTLER

    Blocking Scheme        =         OCTREE
    BS radius alpha        =              1
    Pruning alpha          =              1
    Radial Points          =             75
    Spherical Points       =            302
    Total Points           =          42916
    Total Blocks           =            444
    Max Points             =            256
    Max Functions          =             32
    Weights Tolerance      =       1.00E-15

  -Total Gradient:
     Atom            X                  Y                   Z
    ------   -----------------  -----------------  -----------------
       1        0.000000000000     0.000000000000    -0.000005373594
       2        0.000000000000     0.000000000000     0.000004691656

*** tstop() called on Joses-MacBook-Pro-2.local at Thu Jul 17 09:47:47 2025
Module time:
	user time   =       0.71 seconds =       0.01 minutes
	system time =       1.70 seconds =       0.03 minutes
	total time  =          1 seconds =       0.02 minutes
Total time:
	user time   =      93.77 seconds =       1.56 minutes
	system time =     131.01 seconds =       2.18 minutes
	total time  =         22 seconds =       0.37 minutes

    			-----------------------------------------

    			 OPTKING 3.0: for geometry optimizations

    			     By R.A. King, Bethel University

    			        with contributions from

    			    A.V. Copan, J. Cayton, A. Heide

    			-----------------------------------------

	                            ===> Fragment 1 <==

	 Z (Atomic Numbers)          Masses                          Geom
	       4.000000             9.012183          0.00000000  0.00000000  6.57680516
	      17.000000            34.968853          0.00000000  0.00000000 -1.69497617

	 - Coordinate -           - BOHR/RAD -       - ANG/DEG -
	 R(1,2)           =         8.271781           4.377238

	        --- Internal Coordinate Step in ANG or DEG, aJ/ANG or AJ/DEG ---
	-------------------------------------------------------------------------------
	           Coordinate      Previous         Force          Change          New
	           ----------      --------        ------          ------        ------
	               R(1,2)       4.37724        0.00004        0.00466       4.38189
	-------------------------------------------------------------------------------

	                                 ==> Convergence Check <==

	Measures of convergence in internal coordinates in au.

	Criteria marked as inactive (o), active & met (*), and active & unmet ( ).

	----------------------------------------------------------------------------------------------
	   Step    Total Energy     Delta E     Max Force     RMS Force      Max Disp      RMS Disp
	----------------------------------------------------------------------------------------------
	  Convergence Criteria     1.00e-06 *    3.00e-04 *             o    1.20e-03 *             o
	----------------------------------------------------------------------------------------------
	    23    -474.72919965   -2.44e-07 *    5.03e-06 *    5.03e-06 o    8.80e-03      8.80e-03 o  ~
	----------------------------------------------------------------------------------------------

Next Geometry in Ang
	Fragment 1 (Ang)

	   Be   0.0000000000   0.0000000000   3.4826231854
	   Cl   0.0000000000   0.0000000000  -0.8992705381

    Final optimized geometry and variables:
    Molecular point group: c2v
    Full point group: C_inf_v

    Geometry (in Angstrom), charge = -1, multiplicity = 5:

    BE           0.000000000000     0.000000000000     3.480295410850
    CL           0.000000000000     0.000000000000    -0.896942763553

    Psi4 stopped on: Thursday, 17 July 2025 09:47AM
    Psi4 wall time for execution: 0:00:22.25

*** Psi4 exiting successfully. Buy a developer a beer!
