                               Psi4 1.9.1 release

  ==> Input File <==

--------------------------------------------------------------------------
molecule {
-1 5
Ne   0.00000        0.60000        0.00000
Al   0.00000       -0.60000        0.00000
}

set {
basis              cc-pvdz
reference          uks
maxiter            500
geom_maxiter       500
DAMPING_PERCENTAGE 1
guess              SAP
}

optimize('b3lyp')
--------------------------------------------------------------------------

    Molecular point group: c2v
  Charge       = -1
  Multiplicity = 5
  Basis Set: CC-PVDZ
    Blend: CC-PVDZ
  Basis Set: (CC-PVDZ AUX)
    Blend: CC-PVDZ-JKFIT
  @DF-UKS Final Energy:  -370.67483260195741
    Total Energy =                       -370.6748326019574051
 Dipole X            :          0.0000000            0.0000000            0.0000000
 Dipole Y            :          0.0000000            0.0000000            0.0000000
 Dipole Z            :          0.8521749            0.4785826            1.3307575
 Magnitude           :                                                    1.3307575
    Molecular point group: c2v
  Basis Set: CC-PVDZ
    Blend: CC-PVDZ
  Basis Set: (CC-PVDZ AUX)
    Blend: CC-PVDZ-JKFIT
  Basis Set: CC-PVDZ
    Blend: CC-PVDZ
  Basis Set: (CC-PVDZ AUX)
    Blend: CC-PVDZ-JKFIT
  @DF-UKS Final Energy:  -370.88643800377162
    Total Energy =                       -370.8864380037716160
  Basis Set: CC-PVDZ
    Blend: CC-PVDZ
  Basis Set: (CC-PVDZ AUX)
    Blend: CC-PVDZ-JKFIT
  Basis Set: CC-PVDZ
    Blend: CC-PVDZ
  @DF-UKS Final Energy:  -370.99852115613027
    Total Energy =                       -370.9985211561302663
  @DF-UKS Final Energy:  -371.06363203029593
    Total Energy =                       -371.0636320302959348
  @DF-UKS Final Energy:  -371.10294783074073
    Total Energy =                       -371.1029478307407885
  @DF-UKS Final Energy:  -371.12861547046555
    Total Energy =                       -371.1286154704654905
  @DF-UKS Final Energy:  -371.14770117177267
    Total Energy =                       -371.1477011717726100
  @DF-UKS Final Energy:  -371.16210473757349
    Total Energy =                       -371.1621047375734861
  @DF-UKS Final Energy:  -371.16310086239810
    Total Energy =                       -371.1631008623980961
  @DF-UKS Final Energy:  -371.17284598658608
    Total Energy =                       -371.1728459865861396
  @DF-UKS Final Energy:  -371.17318333096517
    Total Energy =                       -371.1731833309652302
  @DF-UKS Final Energy:  -371.17801682858158
    Total Energy =                       -371.1780168285815762
  @DF-UKS Final Energy:  -371.17811944510714
    Total Energy =                       -371.1781194451071428
  @DF-UKS Final Energy:  -371.18040313245319
    Total Energy =                       -371.1804031324531934
  @DF-UKS Final Energy:  -371.18043008384728
    Total Energy =                       -371.1804300838472841
  @DF-UKS Final Energy:  -371.18141625632410
    Total Energy =                       -371.1814162563240984
  @DF-UKS Final Energy:  -371.18142230748873
    Total Energy =                       -371.1814223074887309
  @DF-UKS Final Energy:  -371.18142826861924
    Total Energy =                       -371.1814282686192428
  @DF-UKS Final Energy:  -371.18180337873480
    Total Energy =                       -371.1818033787347417
  @DF-UKS Final Energy:  -371.18189795265334
    Total Energy =                       -371.1818979526534008
  @DF-UKS Final Energy:  -371.18192916313808
    Total Energy =                       -371.1819291631380793
  @DF-UKS Final Energy:  -371.18193331937141
    Total Energy =                       -371.1819333193713533
  @DF-UKS Final Energy:  -371.18193215061086
    Total Energy =                       -371.1819321506108054
  Basis Set: (CC-PVDZ AUX)
    Blend: CC-PVDZ-JKFIT
  Basis Set: CC-PVDZ
    Blend: CC-PVDZ
  Basis Set: (CC-PVDZ AUX)
    Blend: CC-PVDZ-JKFIT
  @DF-UKS Final Energy:  -371.18193046674827
    Total Energy =                       -371.1819304667482697
  Basis Set: CC-PVDZ
    Blend: CC-PVDZ
  Basis Set: (CC-PVDZ AUX)
    Blend: CC-PVDZ-JKFIT
  Charge       = -1
  Multiplicity = 5
  Basis Set: CC-PVDZ
    Blend: CC-PVDZ
  Basis Set: (CC-PVDZ AUX)
    Blend: CC-PVDZ-JKFIT

    Orbital Energies [Eh]
    ---------------------

    Alpha Occupied:

       1A1   -55.868857     2A1   -30.840594     3A1    -3.948945
       1B2    -2.502152     1B1    -2.502152     4A1    -2.502143
       5A1    -1.306052     2B1    -0.414770     2B2    -0.414770
       6A1    -0.413992     7A1    -0.146335     3B2     0.050004
       3B1     0.050004     8A1     0.050317

    Alpha Virtual:

       9A1     0.332246     4B2     0.387903     4B1     0.387903
      10A1     0.388924    11A1     0.442733     5B1     0.442759
       5B2     0.442759    12A1     0.442794     1A2     0.442794
       6B2     1.483843     6B1     1.483843    13A1     1.493656
      14A1     1.949485     2A2     4.850792    15A1     4.850862
       7B2     4.851323     7B1     4.851323    16A1     4.851545

    Beta Occupied:

       1A1   -55.859868     2A1   -30.840521     3A1    -3.936053
       1B2    -2.489416     1B1    -2.489416     4A1    -2.489371
       5A1    -1.305923     2B1    -0.414717     2B2    -0.414717
       6A1    -0.413777

    Beta Virtual:

       7A1     0.027762     8A1     0.186965     3B1     0.189837
       3B2     0.189837     9A1     0.395852    10A1     0.452855
       4B2     0.455322     4B1     0.455322     5B2     0.553304
       5B1     0.553304    11A1     0.553629     1A2     0.554237
      12A1     0.554239     6B2     1.483826     6B1     1.483826
      13A1     1.494033    14A1     1.949852     2A2     4.850837
      15A1     4.850907     7B2     4.851437     7B1     4.851437
      16A1     4.851683

    Final Occupation by Irrep:
             A1    A2    B1    B2
    DOCC [     6,    0,    2,    2 ]
    SOCC [     2,    0,    1,    1 ]
    NA   [     8,    0,    3,    3 ]
    NB   [     6,    0,    2,    2 ]

  @DF-UKS Final Energy:  -371.18192952602499

   => Energetics <=

    Nuclear Repulsion Energy =             15.4859306598599211
    One-Electron Energy =                -553.9547211808483098
    Two-Electron Energy =                 192.5196000047426708
    DFT Exchange-Correlation Energy =     -25.2327390097792517
    Empirical Dispersion Energy =           0.0000000000000000
    VV10 Nonlocal Energy =                  0.0000000000000000
    Total Energy =                       -371.1819295260249874

  UHF NO Occupations:
  HONO-2 :    7 A1 1.0000000
  HONO-1 :    3 B2 1.0000000
  HONO-0 :    8 A1 1.0000000
  LUNO+0 :    9 A1 0.0000002
  LUNO+1 :    4 B1 0.0000002
  LUNO+2 :    4 B2 0.0000002
  LUNO+3 :   10 A1 0.0000001

Computation Completed

Properties will be evaluated at   0.000000,   0.000000,   0.000000 [a0]

Properties computed using the SCF density matrix

 Multipole Moments:

 ------------------------------------------------------------------------------------
     Multipole            Electronic (a.u.)      Nuclear  (a.u.)        Total (a.u.)
 ------------------------------------------------------------------------------------

 L = 1.  Multiply by 2.5417464519 to convert [e a0] to [Debye]
 Dipole X            :          0.0000000            0.0000000            0.0000000
 Dipole Y            :          0.0000000            0.0000000            0.0000000
 Dipole Z            :          1.8087554            1.7716701            3.5804255
 Magnitude           :                                                    3.5804255

 ------------------------------------------------------------------------------------

*** tstop() called on Joses-MacBook-Pro-2.local at Thu Jul 17 11:00:30 2025
Module time:
	user time   =       2.62 seconds =       0.04 minutes
	system time =       3.16 seconds =       0.05 minutes
	total time  =          1 seconds =       0.02 minutes
Total time:
	user time   =     113.63 seconds =       1.89 minutes
	system time =     124.07 seconds =       2.07 minutes
	total time  =         24 seconds =       0.40 minutes

*** tstart() called on Joses-MacBook-Pro-2.local
*** at Thu Jul 17 11:00:30 2025

         ------------------------------------------------------------
                                   SCF GRAD
                          Rob Parrish, Justin Turney,
                       Andy Simmonett, and Alex Sokolov
         ------------------------------------------------------------

  ==> Geometry <==

    Molecular point group: c2v
    Full point group: C_inf_v

    Geometry (in Angstrom), charge = -1, multiplicity = 5:

       Center              X                  Y                   Z               Mass
    ------------   -----------------  -----------------  -----------------  -----------------
         NE           0.000000000000     0.000000000000     2.551623177447    19.992440176200
         AL           0.000000000000     0.000000000000    -1.890669565437    26.981538530000

  Nuclear repulsion =   15.485930659859923

  ==> Basis Set <==

  Basis Set: CC-PVDZ
    Blend: CC-PVDZ
    Number of shells: 14
    Number of basis functions: 32
    Number of Cartesian functions: 34
    Spherical Harmonics?: true
    Max angular momentum: 2

  ==> DFJKGrad: Density-Fitted SCF Gradients <==

    Gradient:                    1
    J tasked:                  Yes
    K tasked:                  Yes
    wK tasked:                  No
    OpenMP threads:              1
    Integrals threads:           1
    Memory [MiB]:              375
    Schwarz Cutoff:          1E-12
    Fitting Condition:       1E-10

   => Auxiliary Basis Set <=

  Basis Set: (CC-PVDZ AUX)
    Blend: CC-PVDZ-JKFIT
    Number of shells: 60
    Number of basis functions: 182
    Number of Cartesian functions: 211
    Spherical Harmonics?: true
    Max angular momentum: 3

  ==> DFT Potential <==

   => LibXC <=

    Version 6.2.2
    S. Lehtola, C. Steigemann, M. J.T. Oliveira, and M. A.L. Marques.,  SoftwareX 7, 1â€“5 (2018) (10.1016/j.softx.2017.11.002)

   => Composite Functional: B3LYP <=

    B3LYP Hyb-GGA Exchange-Correlation Functional

    P. J. Stephens, F. J. Devlin, C. F. Chabalowski, and M. J. Frisch.,  J. Phys. Chem. 98, 11623 (1994) (10.1021/j100096a001)

    Deriv               =              1
    GGA                 =           TRUE
    Meta                =          FALSE

    Exchange Hybrid     =           TRUE
    MP2 Hybrid          =          FALSE

   => Exchange Functionals <=

    0.0800   Slater exchange
    0.7200         Becke 88

   => Exact (HF) Exchange <=

    0.2000               HF

   => Correlation Functionals <=

    0.1900   Vosko, Wilk & Nusair (VWN5_RPA)
    0.8100   Lee, Yang & Parr

   => LibXC Density Thresholds  <==

    XC_HYB_GGA_XC_B3LYP:  1.00E-15

   => Molecular Quadrature <=

    Radial Scheme          =       TREUTLER
    Pruning Scheme         =           NONE
    Nuclear Scheme         =       TREUTLER

    Blocking Scheme        =         OCTREE
    BS radius alpha        =              1
    Pruning alpha          =              1
    Radial Points          =             75
    Spherical Points       =            302
    Total Points           =          43602
    Total Blocks           =            433
    Max Points             =            255
    Max Functions          =             32
    Weights Tolerance      =       1.00E-15

  -Total Gradient:
     Atom            X                  Y                   Z
    ------   -----------------  -----------------  -----------------
       1        0.000000000000    -0.000000000000    -0.000034923914
       2        0.000000000000    -0.000000000000    -0.000029960916

*** tstop() called on Joses-MacBook-Pro-2.local at Thu Jul 17 11:00:30 2025
Module time:
	user time   =       0.96 seconds =       0.02 minutes
	system time =       1.38 seconds =       0.02 minutes
	total time  =          0 seconds =       0.00 minutes
Total time:
	user time   =     114.61 seconds =       1.91 minutes
	system time =     125.45 seconds =       2.09 minutes
	total time  =         24 seconds =       0.40 minutes

    			-----------------------------------------

    			 OPTKING 3.0: for geometry optimizations

    			     By R.A. King, Bethel University

    			        with contributions from

    			    A.V. Copan, J. Cayton, A. Heide

    			-----------------------------------------

	                            ===> Fragment 1 <==

	 Z (Atomic Numbers)          Masses                          Geom
	      10.000000            19.992440          0.00000000  0.00000000  4.82186898
	      13.000000            26.981539          0.00000000  0.00000000 -3.57284767

	 - Coordinate -           - BOHR/RAD -       - ANG/DEG -
	 R(1,2)           =         8.394717           4.442293

	        --- Internal Coordinate Step in ANG or DEG, aJ/ANG or AJ/DEG ---
	-------------------------------------------------------------------------------
	           Coordinate      Previous         Force          Change          New
	           ----------      --------        ------          ------        ------
	               R(1,2)       4.44229        0.00002        0.00462       4.44691
	-------------------------------------------------------------------------------

	                                 ==> Convergence Check <==

	Measures of convergence in internal coordinates in au.

	Criteria marked as inactive (o), active & met (*), and active & unmet ( ).

	----------------------------------------------------------------------------------------------
	   Step    Total Energy     Delta E     Max Force     RMS Force      Max Disp      RMS Disp
	----------------------------------------------------------------------------------------------
	  Convergence Criteria     1.00e-06 *    3.00e-04 *             o    1.20e-03 *             o
	----------------------------------------------------------------------------------------------
	    25    -371.18192953    9.41e-07 *    2.48e-06 *    2.48e-06 o    8.73e-03      8.73e-03 o  ~
	----------------------------------------------------------------------------------------------

Next Geometry in Ang
	Fragment 1 (Ang)

	   Ne   0.0000000000   0.0000000000   2.5539337239
	   Al   0.0000000000   0.0000000000  -1.8929801118

    Final optimized geometry and variables:
    Molecular point group: c2v
    Full point group: C_inf_v

    Geometry (in Angstrom), charge = -1, multiplicity = 5:

    NE           0.000000000000     0.000000000000     2.551623177447
    AL           0.000000000000     0.000000000000    -1.890669565437

    Psi4 stopped on: Thursday, 17 July 2025 11:00AM
    Psi4 wall time for execution: 0:00:24.97

*** Psi4 exiting successfully. Buy a developer a beer!
