                               Psi4 1.9.1 release

  ==> Input File <==

--------------------------------------------------------------------------
molecule {
-1 5
B   0.00000        0.60000        0.00000
Ar   0.00000       -0.60000        0.00000
}

set {
basis              cc-pvdz
reference          uks
maxiter            500
geom_maxiter       500
DAMPING_PERCENTAGE 1
guess              SAP
}

optimize('b3lyp')
--------------------------------------------------------------------------

    Molecular point group: c2v
  Charge       = -1
  Multiplicity = 5
  Basis Set: CC-PVDZ
    Blend: CC-PVDZ
  Basis Set: (CC-PVDZ AUX)
    Blend: CC-PVDZ-JKFIT
  @DF-UKS Final Energy:  -551.45890792715818
    Total Energy =                       -551.4589079271581795
 Dipole X            :          0.0000000            0.0000000            0.0000000
 Dipole Y            :          0.0000000            0.0000000            0.0000000
 Dipole Z            :         -2.7381227            0.0731583           -2.6649644
 Magnitude           :                                                    2.6649644
    Molecular point group: c2v
  Basis Set: CC-PVDZ
    Blend: CC-PVDZ
  Basis Set: (CC-PVDZ AUX)
    Blend: CC-PVDZ-JKFIT
  Basis Set: CC-PVDZ
    Blend: CC-PVDZ
  Basis Set: (CC-PVDZ AUX)
    Blend: CC-PVDZ-JKFIT
  @DF-UKS Final Energy:  -551.67936520175147
    Total Energy =                       -551.6793652017515797
  Basis Set: CC-PVDZ
    Blend: CC-PVDZ
  Basis Set: (CC-PVDZ AUX)
    Blend: CC-PVDZ-JKFIT
  Basis Set: CC-PVDZ
    Blend: CC-PVDZ
  @DF-UKS Final Energy:  -551.79622580555963
    Total Energy =                       -551.7962258055596294
  @DF-UKS Final Energy:  -551.87360684506802
    Total Energy =                       -551.8736068450680250
  @DF-UKS Final Energy:  -551.96250843918097
    Total Energy =                       -551.9625084391809651
  @DF-UKS Final Energy:  -552.02625256032638
    Total Energy =                       -552.0262525603263839
  @DF-UKS Final Energy:  -552.03501259312861
    Total Energy =                       -552.0350125931286129
  @DF-UKS Final Energy:  -552.05975682714359
    Total Energy =                       -552.0597568271437012
  @DF-UKS Final Energy:  -552.06202500412383
    Total Energy =                       -552.0620250041237114
  @DF-UKS Final Energy:  -552.07356234311214
    Total Energy =                       -552.0735623431120302
  @DF-UKS Final Energy:  -552.07415541399109
    Total Energy =                       -552.0741554139910932
  @DF-UKS Final Energy:  -552.07957657947850
    Total Energy =                       -552.0795765794784984
  @DF-UKS Final Energy:  -552.07973040930460
    Total Energy =                       -552.0797304093046023
  @DF-UKS Final Energy:  -552.08227642264910
    Total Energy =                       -552.0822764226491017
  @DF-UKS Final Energy:  -552.08231548537879
    Total Energy =                       -552.0823154853787855
  @DF-UKS Final Energy:  -552.08348022738824
    Total Energy =                       -552.0834802273881223
  @DF-UKS Final Energy:  -552.08348935888989
    Total Energy =                       -552.0834893588898922
  @DF-UKS Final Energy:  -552.08349832205931
    Total Energy =                       -552.0834983220593131
  @DF-UKS Final Energy:  -552.08397371940805
    Total Energy =                       -552.0839737194081636
  @DF-UKS Final Energy:  -552.08411029905915
    Total Energy =                       -552.0841102990591480
  @DF-UKS Final Energy:  -552.08415821481833
    Total Energy =                       -552.0841582148183306
  Basis Set: (CC-PVDZ AUX)
    Blend: CC-PVDZ-JKFIT
  Basis Set: CC-PVDZ
    Blend: CC-PVDZ
  Basis Set: (CC-PVDZ AUX)
    Blend: CC-PVDZ-JKFIT
  @DF-UKS Final Energy:  -552.08416800069426
    Total Energy =                       -552.0841680006942624
  Basis Set: CC-PVDZ
    Blend: CC-PVDZ
  Basis Set: (CC-PVDZ AUX)
    Blend: CC-PVDZ-JKFIT
  Charge       = -1
  Multiplicity = 5
  Basis Set: CC-PVDZ
    Blend: CC-PVDZ
  Basis Set: (CC-PVDZ AUX)
    Blend: CC-PVDZ-JKFIT

    Orbital Energies [Eh]
    ---------------------

    Alpha Occupied:

       1A1  -114.977001     2A1   -11.013077     1B2    -8.563029
       1B1    -8.563029     3A1    -8.562795     4A1    -6.527159
       5A1    -0.841528     2B1    -0.300199     2B2    -0.300199
       6A1    -0.297088     7A1    -0.138662     8A1     0.090960
       3B2     0.090968     3B1     0.090968

    Alpha Virtual:

       9A1     0.521064     4B2     0.530682     4B1     0.530682
      10A1     0.586501     5B1     0.702950     5B2     0.702950
      11A1     0.731541    12A1     0.861605     6B2     0.954740
       6B1     0.954740     1A2     0.954781    13A1     0.954786
      14A1     0.955787     2A2     0.957697    15A1     0.957702
       7B1     0.959382     7B2     0.959382    16A1     0.961214

    Beta Occupied:

       1A1  -114.976956     2A1   -11.013032     1B2    -8.562993
       1B1    -8.562993     3A1    -8.562690     4A1    -6.489357
       5A1    -0.841376     2B1    -0.300170     2B2    -0.300170
       6A1    -0.296999

    Beta Virtual:

       7A1     0.129079     8A1     0.298248     3B1     0.301952
       3B2     0.301952     9A1     0.615857     4B1     0.641028
       4B2     0.641028    10A1     0.696737     5B1     0.703552
       5B2     0.703552    11A1     0.750199    12A1     0.866108
       1A2     0.957753    13A1     0.957757     6B1     0.959523
       6B2     0.959523    14A1     0.961562     2A2     1.132635
      15A1     1.132670     7B2     1.133950     7B1     1.133950
      16A1     1.134777

    Final Occupation by Irrep:
             A1    A2    B1    B2
    DOCC [     6,    0,    2,    2 ]
    SOCC [     2,    0,    1,    1 ]
    NA   [     8,    0,    3,    3 ]
    NB   [     6,    0,    2,    2 ]

  @DF-UKS Final Energy:  -552.08416894871675

   => Energetics <=

    Nuclear Repulsion Energy =             10.8607067431441546
    One-Electron Energy =                -786.0802371638062596
    Two-Electron Energy =                 251.3896946379497592
    DFT Exchange-Correlation Energy =     -28.2543331660043719
    Empirical Dispersion Energy =           0.0000000000000000
    VV10 Nonlocal Energy =                  0.0000000000000000
    Total Energy =                       -552.0841689487166377

  UHF NO Occupations:
  HONO-2 :    3 B1 1.0000000
  HONO-1 :    7 A1 1.0000000
  HONO-0 :    8 A1 1.0000000
  LUNO+0 :    9 A1 0.0000006
  LUNO+1 :   10 A1 0.0000005
  LUNO+2 :    4 B1 0.0000000
  LUNO+3 :    4 B2 0.0000000

Computation Completed

Properties will be evaluated at   0.000000,   0.000000,   0.000000 [a0]

Properties computed using the SCF density matrix

 Multipole Moments:

 ------------------------------------------------------------------------------------
     Multipole            Electronic (a.u.)      Nuclear  (a.u.)        Total (a.u.)
 ------------------------------------------------------------------------------------

 L = 1.  Multiply by 2.5417464519 to convert [e a0] to [Debye]
 Dipole X            :          0.0000000            0.0000000            0.0000000
 Dipole Y            :          0.0000000            0.0000000            0.0000000
 Dipole Z            :         -6.6985029            0.2673425           -6.4311604
 Magnitude           :                                                    6.4311604

 ------------------------------------------------------------------------------------

*** tstop() called on Joses-MacBook-Pro-2.local at Thu Jul 17 09:57:47 2025
Module time:
	user time   =       3.35 seconds =       0.06 minutes
	system time =       2.83 seconds =       0.05 minutes
	total time  =          0 seconds =       0.00 minutes
Total time:
	user time   =      91.35 seconds =       1.52 minutes
	system time =     129.84 seconds =       2.16 minutes
	total time  =         21 seconds =       0.35 minutes

*** tstart() called on Joses-MacBook-Pro-2.local
*** at Thu Jul 17 09:57:47 2025

         ------------------------------------------------------------
                                   SCF GRAD
                          Rob Parrish, Justin Turney,
                       Andy Simmonett, and Alex Sokolov
         ------------------------------------------------------------

  ==> Geometry <==

    Molecular point group: c2v
    Full point group: C_inf_v

    Geometry (in Angstrom), charge = -1, multiplicity = 5:

       Center              X                  Y                   Z               Mass
    ------------   -----------------  -----------------  -----------------  -----------------
         B            0.000000000000     0.000000000000     3.438016161582    11.009305360000
         AR           0.000000000000     0.000000000000    -0.947144959757    39.962383123700

  Nuclear repulsion =   10.860706743144155

  ==> Basis Set <==

  Basis Set: CC-PVDZ
    Blend: CC-PVDZ
    Number of shells: 14
    Number of basis functions: 32
    Number of Cartesian functions: 34
    Spherical Harmonics?: true
    Max angular momentum: 2

  ==> DFJKGrad: Density-Fitted SCF Gradients <==

    Gradient:                    1
    J tasked:                  Yes
    K tasked:                  Yes
    wK tasked:                  No
    OpenMP threads:              1
    Integrals threads:           1
    Memory [MiB]:              375
    Schwarz Cutoff:          1E-12
    Fitting Condition:       1E-10

   => Auxiliary Basis Set <=

  Basis Set: (CC-PVDZ AUX)
    Blend: CC-PVDZ-JKFIT
    Number of shells: 60
    Number of basis functions: 182
    Number of Cartesian functions: 211
    Spherical Harmonics?: true
    Max angular momentum: 3

  ==> DFT Potential <==

   => LibXC <=

    Version 6.2.2
    S. Lehtola, C. Steigemann, M. J.T. Oliveira, and M. A.L. Marques.,  SoftwareX 7, 1â€“5 (2018) (10.1016/j.softx.2017.11.002)

   => Composite Functional: B3LYP <=

    B3LYP Hyb-GGA Exchange-Correlation Functional

    P. J. Stephens, F. J. Devlin, C. F. Chabalowski, and M. J. Frisch.,  J. Phys. Chem. 98, 11623 (1994) (10.1021/j100096a001)

    Deriv               =              1
    GGA                 =           TRUE
    Meta                =          FALSE

    Exchange Hybrid     =           TRUE
    MP2 Hybrid          =          FALSE

   => Exchange Functionals <=

    0.0800   Slater exchange
    0.7200         Becke 88

   => Exact (HF) Exchange <=

    0.2000               HF

   => Correlation Functionals <=

    0.1900   Vosko, Wilk & Nusair (VWN5_RPA)
    0.8100   Lee, Yang & Parr

   => LibXC Density Thresholds  <==

    XC_HYB_GGA_XC_B3LYP:  1.00E-15

   => Molecular Quadrature <=

    Radial Scheme          =       TREUTLER
    Pruning Scheme         =           NONE
    Nuclear Scheme         =       TREUTLER

    Blocking Scheme        =         OCTREE
    BS radius alpha        =              1
    Pruning alpha          =              1
    Radial Points          =             75
    Spherical Points       =            302
    Total Points           =          42156
    Total Blocks           =            436
    Max Points             =            255
    Max Functions          =             32
    Weights Tolerance      =       1.00E-15

  -Total Gradient:
     Atom            X                  Y                   Z
    ------   -----------------  -----------------  -----------------
       1        0.000000000000    -0.000000000000    -0.000008974753
       2        0.000000000000    -0.000000000000     0.000009699899

*** tstop() called on Joses-MacBook-Pro-2.local at Thu Jul 17 09:57:47 2025
Module time:
	user time   =       0.73 seconds =       0.01 minutes
	system time =       1.52 seconds =       0.03 minutes
	total time  =          0 seconds =       0.00 minutes
Total time:
	user time   =      92.08 seconds =       1.53 minutes
	system time =     131.36 seconds =       2.19 minutes
	total time  =         21 seconds =       0.35 minutes

    			-----------------------------------------

    			 OPTKING 3.0: for geometry optimizations

    			     By R.A. King, Bethel University

    			        with contributions from

    			    A.V. Copan, J. Cayton, A. Heide

    			-----------------------------------------

	                            ===> Fragment 1 <==

	 Z (Atomic Numbers)          Masses                          Geom
	       5.000000            11.009305          0.00000000  0.00000000  6.49690896
	      18.000000            39.962383          0.00000000  0.00000000 -1.78984458

	 - Coordinate -           - BOHR/RAD -       - ANG/DEG -
	 R(1,2)           =         8.286754           4.385161

	        --- Internal Coordinate Step in ANG or DEG, aJ/ANG or AJ/DEG ---
	-------------------------------------------------------------------------------
	           Coordinate      Previous         Force          Change          New
	           ----------      --------        ------          ------        ------
	               R(1,2)       4.38516        0.00008        0.00792       4.39308
	-------------------------------------------------------------------------------

	                                 ==> Convergence Check <==

	Measures of convergence in internal coordinates in au.

	Criteria marked as inactive (o), active & met (*), and active & unmet ( ).

	----------------------------------------------------------------------------------------------
	   Step    Total Energy     Delta E     Max Force     RMS Force      Max Disp      RMS Disp
	----------------------------------------------------------------------------------------------
	  Convergence Criteria     1.00e-06 *    3.00e-04 *             o    1.20e-03 *             o
	----------------------------------------------------------------------------------------------
	    23    -552.08416895   -9.48e-07 *    9.34e-06 *    9.34e-06 o    1.50e-02      1.50e-02 o  ~
	----------------------------------------------------------------------------------------------

Next Geometry in Ang
	Fragment 1 (Ang)

	    B   0.0000000000   0.0000000000   3.4419780102
	   Ar   0.0000000000   0.0000000000  -0.9511068083

    Final optimized geometry and variables:
    Molecular point group: c2v
    Full point group: C_inf_v

    Geometry (in Angstrom), charge = -1, multiplicity = 5:

    B            0.000000000000     0.000000000000     3.438016161582
    AR           0.000000000000     0.000000000000    -0.947144959757

    Psi4 stopped on: Thursday, 17 July 2025 09:57AM
    Psi4 wall time for execution: 0:00:22.43

*** Psi4 exiting successfully. Buy a developer a beer!
