                               Psi4 1.9.1 release

  ==> Input File <==

--------------------------------------------------------------------------
molecule {
-1 5
Mg   0.00000        0.60000        0.00000
P   0.00000       -0.60000        0.00000
}

set {
basis              cc-pvdz
reference          uks
maxiter            500
geom_maxiter       500
DAMPING_PERCENTAGE 1
guess              SAP
}

optimize('b3lyp')
--------------------------------------------------------------------------

    Molecular point group: c2v
  Charge       = -1
  Multiplicity = 5
  Basis Set: CC-PVDZ
    Blend: CC-PVDZ
  Basis Set: (CC-PVDZ AUX)
    Blend: CC-PVDZ-JKFIT + DEF2-UNIVERSAL-JKFIT
  @DF-UKS Final Energy:  -540.21816711077838
    Total Energy =                       -540.2181671107783814
 Dipole X            :          0.0000000            0.0000000            0.0000000
 Dipole Y            :          0.0000000            0.0000000            0.0000000
 Dipole Z            :         -2.6184945            0.4914021           -2.1270923
 Magnitude           :                                                    2.1270923
    Molecular point group: c2v
  Basis Set: CC-PVDZ
    Blend: CC-PVDZ
  Basis Set: (CC-PVDZ AUX)
    Blend: CC-PVDZ-JKFIT + DEF2-UNIVERSAL-JKFIT
  Basis Set: CC-PVDZ
    Blend: CC-PVDZ
  Basis Set: (CC-PVDZ AUX)
    Blend: CC-PVDZ-JKFIT + DEF2-UNIVERSAL-JKFIT
  @DF-UKS Final Energy:  -540.23371114638508
    Total Energy =                       -540.2337111463850761
  Basis Set: CC-PVDZ
    Blend: CC-PVDZ
  Basis Set: (CC-PVDZ AUX)
    Blend: CC-PVDZ-JKFIT + DEF2-UNIVERSAL-JKFIT
  Basis Set: CC-PVDZ
    Blend: CC-PVDZ
  @DF-UKS Final Energy:  -540.26373186344256
    Total Energy =                       -540.2637318634425583
  @DF-UKS Final Energy:  -540.37271644900591
    Total Energy =                       -540.3727164490059067
  @DF-UKS Final Energy:  -540.84534837493550
    Total Energy =                       -540.8453483749354973
  @DF-UKS Final Energy:  -541.08753467523582
    Total Energy =                       -541.0875346752358155
  @DF-UKS Final Energy:  -541.21746212908158
    Total Energy =                       -541.2174621290815821
  @DF-UKS Final Energy:  -541.27758446695168
    Total Energy =                       -541.2775844669516800
  @DF-UKS Final Energy:  -541.30670099212284
    Total Energy =                       -541.3067009921228419
  @DF-UKS Final Energy:  -541.31942420641883
    Total Energy =                       -541.3194242064188302
  @DF-UKS Final Energy:  -541.32418600620122
    Total Energy =                       -541.3241860062012165
  @DF-UKS Final Energy:  -541.32551534802315
    Total Energy =                       -541.3255153480231456
  @DF-UKS Final Energy:  -541.32570581678567
    Total Energy =                       -541.3257058167856712
  @DF-UKS Final Energy:  -541.32573590352399
    Total Energy =                       -541.3257359035239915
  Basis Set: (CC-PVDZ AUX)
    Blend: CC-PVDZ-JKFIT + DEF2-UNIVERSAL-JKFIT
  Basis Set: CC-PVDZ
    Blend: CC-PVDZ
  Basis Set: (CC-PVDZ AUX)
    Blend: CC-PVDZ-JKFIT + DEF2-UNIVERSAL-JKFIT
  @DF-UKS Final Energy:  -541.32574149614095
    Total Energy =                       -541.3257414961409495
  Basis Set: CC-PVDZ
    Blend: CC-PVDZ
  Basis Set: (CC-PVDZ AUX)
    Blend: CC-PVDZ-JKFIT + DEF2-UNIVERSAL-JKFIT
  Charge       = -1
  Multiplicity = 5
  Basis Set: CC-PVDZ
    Blend: CC-PVDZ
  Basis Set: (CC-PVDZ AUX)
    Blend: CC-PVDZ-JKFIT + DEF2-UNIVERSAL-JKFIT

    Orbital Energies [Eh]
    ---------------------

    Alpha Occupied:

       1A1   -76.886798     2A1   -46.694863     3A1    -6.355167
       4A1    -4.522096     1B1    -4.521206     1B2    -4.508961
       5A1    -2.973895     2B2    -1.718139     6A1    -1.717696
       2B1    -1.716542     7A1    -0.375820     8A1    -0.110405
       3B1    -0.056670     9A1    -0.024230     3B2    -0.021381
       4B1     0.066139

    Alpha Virtual:

       4B2     0.114145    10A1     0.156991    11A1     0.226353
       5B1     0.281602     5B2     0.292120    12A1     0.309732
       6B1     0.430890     6B2     0.443391     1A2     0.452039
      13A1     0.453770    14A1     0.468090     7B1     0.611366
      15A1     0.631143     7B2     0.635882     2A2     0.674114
      16A1     0.674576    17A1     0.690857     8B1     0.736926
       8B2     0.761121    18A1     1.005247

    Beta Occupied:

       1A1   -76.879409     2A1   -46.691039     3A1    -6.347172
       4A1    -4.507890     1B1    -4.505554     1B2    -4.504275
       5A1    -2.967632     2B2    -1.714458     6A1    -1.712207
       2B1    -1.709748     7A1    -0.300010     3B2    -0.000533

    Beta Virtual:

       8A1     0.008625     3B1     0.071553     9A1     0.089379
       4B2     0.139468     4B1     0.166143    10A1     0.186530
      11A1     0.254471     5B2     0.310927     5B1     0.329343
      12A1     0.355630     6B2     0.486149    13A1     0.504427
       1A2     0.505608     6B1     0.506853    14A1     0.523087
       7B2     0.648745     7B1     0.660276    15A1     0.679367
       2A2     0.723560    16A1     0.726414    17A1     0.732989
       8B2     0.799885     8B1     0.815176    18A1     1.050779

    Final Occupation by Irrep:
             A1    A2    B1    B2
    DOCC [     7,    0,    2,    3 ]
    SOCC [     2,    0,    2,    0 ]
    NA   [     9,    0,    4,    3 ]
    NB   [     7,    0,    2,    3 ]

  @DF-UKS Final Energy:  -541.32574179500693

   => Energetics <=

    Nuclear Repulsion Energy =             36.0512891350693465
    One-Electron Energy =                -827.8923753384137854
    Two-Electron Energy =                 282.6238600447483691
    DFT Exchange-Correlation Energy =     -32.1085156364108926
    Empirical Dispersion Energy =           0.0000000000000000
    VV10 Nonlocal Energy =                  0.0000000000000000
    Total Energy =                       -541.3257417950069339

  UHF NO Occupations:
  HONO-2 :    8 A1 1.0000000
  HONO-1 :    4 B1 1.0000000
  HONO-0 :    9 A1 1.0000000
  LUNO+0 :   10 A1 0.0011512
  LUNO+1 :    4 B2 0.0003248
  LUNO+2 :    5 B2 0.0000005
  LUNO+3 :    5 B1 0.0000004

Computation Completed

Properties will be evaluated at   0.000000,   0.000000,   0.000000 [a0]

Properties computed using the SCF density matrix

 Multipole Moments:

 ------------------------------------------------------------------------------------
     Multipole            Electronic (a.u.)      Nuclear  (a.u.)        Total (a.u.)
 ------------------------------------------------------------------------------------

 L = 1.  Multiply by 2.5417464519 to convert [e a0] to [Debye]
 Dipole X            :          0.0000000            0.0000000            0.0000000
 Dipole Y            :          0.0000000            0.0000000            0.0000000
 Dipole Z            :         -2.1240416            1.0819536           -1.0420879
 Magnitude           :                                                    1.0420879

 ------------------------------------------------------------------------------------

*** tstop() called on Joses-MacBook-Pro-2.local at Thu Jul 17 11:27:41 2025
Module time:
	user time   =       7.07 seconds =       0.12 minutes
	system time =       2.93 seconds =       0.05 minutes
	total time  =          1 seconds =       0.02 minutes
Total time:
	user time   =     188.41 seconds =       3.14 minutes
	system time =      69.06 seconds =       1.15 minutes
	total time  =         25 seconds =       0.42 minutes

*** tstart() called on Joses-MacBook-Pro-2.local
*** at Thu Jul 17 11:27:41 2025

         ------------------------------------------------------------
                                   SCF GRAD
                          Rob Parrish, Justin Turney,
                       Andy Simmonett, and Alex Sokolov
         ------------------------------------------------------------

  ==> Geometry <==

    Molecular point group: c2v
    Full point group: C_inf_v

    Geometry (in Angstrom), charge = -1, multiplicity = 5:

       Center              X                  Y                   Z               Mass
    ------------   -----------------  -----------------  -----------------  -----------------
         MG           0.000000000000     0.000000000000     1.489050837032    23.985041697000
         P            0.000000000000     0.000000000000    -1.153070990117    30.973761998420

  Nuclear repulsion =   36.051289135069347

  ==> Basis Set <==

  Basis Set: CC-PVDZ
    Blend: CC-PVDZ
    Number of shells: 16
    Number of basis functions: 36
    Number of Cartesian functions: 38
    Spherical Harmonics?: true
    Max angular momentum: 2

  ==> DFJKGrad: Density-Fitted SCF Gradients <==

    Gradient:                    1
    J tasked:                  Yes
    K tasked:                  Yes
    wK tasked:                  No
    OpenMP threads:              1
    Integrals threads:           1
    Memory [MiB]:              375
    Schwarz Cutoff:          1E-12
    Fitting Condition:       1E-10

   => Auxiliary Basis Set <=

  Basis Set: (CC-PVDZ AUX)
    Blend: CC-PVDZ-JKFIT + DEF2-UNIVERSAL-JKFIT
    Number of shells: 70
    Number of basis functions: 224
    Number of Cartesian functions: 267
    Spherical Harmonics?: true
    Max angular momentum: 4

  ==> DFT Potential <==

   => LibXC <=

    Version 6.2.2
    S. Lehtola, C. Steigemann, M. J.T. Oliveira, and M. A.L. Marques.,  SoftwareX 7, 1â€“5 (2018) (10.1016/j.softx.2017.11.002)

   => Composite Functional: B3LYP <=

    B3LYP Hyb-GGA Exchange-Correlation Functional

    P. J. Stephens, F. J. Devlin, C. F. Chabalowski, and M. J. Frisch.,  J. Phys. Chem. 98, 11623 (1994) (10.1021/j100096a001)

    Deriv               =              1
    GGA                 =           TRUE
    Meta                =          FALSE

    Exchange Hybrid     =           TRUE
    MP2 Hybrid          =          FALSE

   => Exchange Functionals <=

    0.0800   Slater exchange
    0.7200         Becke 88

   => Exact (HF) Exchange <=

    0.2000               HF

   => Correlation Functionals <=

    0.1900   Vosko, Wilk & Nusair (VWN5_RPA)
    0.8100   Lee, Yang & Parr

   => LibXC Density Thresholds  <==

    XC_HYB_GGA_XC_B3LYP:  1.00E-15

   => Molecular Quadrature <=

    Radial Scheme          =       TREUTLER
    Pruning Scheme         =           NONE
    Nuclear Scheme         =       TREUTLER

    Blocking Scheme        =         OCTREE
    BS radius alpha        =              1
    Pruning alpha          =              1
    Radial Points          =             75
    Spherical Points       =            302
    Total Points           =          43025
    Total Blocks           =            420
    Max Points             =            255
    Max Functions          =             36
    Weights Tolerance      =       1.00E-15

  -Total Gradient:
     Atom            X                  Y                   Z
    ------   -----------------  -----------------  -----------------
       1       -0.000000000000    -0.000000000000    -0.000011315078
       2        0.000000000000    -0.000000000000     0.000066345334

*** tstop() called on Joses-MacBook-Pro-2.local at Thu Jul 17 11:27:41 2025
Module time:
	user time   =       2.52 seconds =       0.04 minutes
	system time =       1.58 seconds =       0.03 minutes
	total time  =          0 seconds =       0.00 minutes
Total time:
	user time   =     190.95 seconds =       3.18 minutes
	system time =      70.64 seconds =       1.18 minutes
	total time  =         25 seconds =       0.42 minutes

    			-----------------------------------------

    			 OPTKING 3.0: for geometry optimizations

    			     By R.A. King, Bethel University

    			        with contributions from

    			    A.V. Copan, J. Cayton, A. Heide

    			-----------------------------------------

	                            ===> Fragment 1 <==

	 Z (Atomic Numbers)          Masses                          Geom
	      12.000000            23.985042          0.00000000  0.00000000  2.81389827
	      15.000000            30.973762          0.00000000  0.00000000 -2.17898837

	 - Coordinate -           - BOHR/RAD -       - ANG/DEG -
	 R(1,2)           =         4.992887           2.642122

	        --- Internal Coordinate Step in ANG or DEG, aJ/ANG or AJ/DEG ---
	-------------------------------------------------------------------------------
	           Coordinate      Previous         Force          Change          New
	           ----------      --------        ------          ------        ------
	               R(1,2)       2.64212        0.00032        0.00058       2.64271
	-------------------------------------------------------------------------------

	                                 ==> Convergence Check <==

	Measures of convergence in internal coordinates in au.

	Criteria marked as inactive (o), active & met (*), and active & unmet ( ).

	----------------------------------------------------------------------------------------------
	   Step    Total Energy     Delta E     Max Force     RMS Force      Max Disp      RMS Disp
	----------------------------------------------------------------------------------------------
	  Convergence Criteria     1.00e-06 *    3.00e-04 *             o    1.20e-03 *             o
	----------------------------------------------------------------------------------------------
	    16    -541.32574180   -2.99e-07 *    3.88e-05 *    3.88e-05 o    1.10e-03 *    1.10e-03 o  ~
	----------------------------------------------------------------------------------------------

Next Geometry in Ang
	Fragment 1 (Ang)

	   Mg   0.0000000000   0.0000000000   1.4893431024
	    P   0.0000000000   0.0000000000  -1.1533632555

    Final optimized geometry and variables:
    Molecular point group: c2v
    Full point group: C_inf_v

    Geometry (in Angstrom), charge = -1, multiplicity = 5:

    MG           0.000000000000     0.000000000000     1.489050837032
    P            0.000000000000     0.000000000000    -1.153070990117

    Psi4 stopped on: Thursday, 17 July 2025 11:27AM
    Psi4 wall time for execution: 0:00:25.89

*** Psi4 exiting successfully. Buy a developer a beer!
