                               Psi4 1.9.1 release

  ==> Input File <==

--------------------------------------------------------------------------
molecule {
-1 5
B   0.00000        0.60000        0.00000
Si   0.00000       -0.60000        0.00000
}

set {
basis              cc-pvdz
reference          uks
maxiter            500
geom_maxiter       500
DAMPING_PERCENTAGE 1
guess              SAP
}

optimize('b3lyp')
--------------------------------------------------------------------------

    Molecular point group: c2v
  Charge       = -1
  Multiplicity = 5
  Basis Set: CC-PVDZ
    Blend: CC-PVDZ
  Basis Set: (CC-PVDZ AUX)
    Blend: CC-PVDZ-JKFIT
  @DF-UKS Final Energy:  -313.54779006666973
    Total Energy =                       -313.5477900666697337
 Dipole X            :          0.0000000            0.0000000            0.0000000
 Dipole Y            :          0.0000000            0.0000000            0.0000000
 Dipole Z            :          0.2029510           -0.8286114           -0.6256604
 Magnitude           :                                                    0.6256604
    Molecular point group: c2v
  Basis Set: CC-PVDZ
    Blend: CC-PVDZ
  Basis Set: (CC-PVDZ AUX)
    Blend: CC-PVDZ-JKFIT
  Basis Set: CC-PVDZ
    Blend: CC-PVDZ
  Basis Set: (CC-PVDZ AUX)
    Blend: CC-PVDZ-JKFIT
  @DF-UKS Final Energy:  -313.79379478345294
    Total Energy =                       -313.7937947834529382
  Basis Set: CC-PVDZ
    Blend: CC-PVDZ
  Basis Set: (CC-PVDZ AUX)
    Blend: CC-PVDZ-JKFIT
  Basis Set: CC-PVDZ
    Blend: CC-PVDZ
  @DF-UKS Final Energy:  -313.94336607880848
    Total Energy =                       -313.9433660788084239
  @DF-UKS Final Energy:  -314.07921788043990
    Total Energy =                       -314.0792178804398986
  @DF-UKS Final Energy:  -314.13789066229128
    Total Energy =                       -314.1378906622913405
  @DF-UKS Final Energy:  -314.14621875508675
    Total Energy =                       -314.1462187550867498
  @DF-UKS Final Energy:  -314.14995190611535
    Total Energy =                       -314.1499519061153478
  @DF-UKS Final Energy:  -314.15056183022045
    Total Energy =                       -314.1505618302204539
  @DF-UKS Final Energy:  -314.15068267524833
    Total Energy =                       -314.1506826752483903
  @DF-UKS Final Energy:  -314.15070920549141
    Total Energy =                       -314.1507092054914665
  Basis Set: (CC-PVDZ AUX)
    Blend: CC-PVDZ-JKFIT
  Basis Set: CC-PVDZ
    Blend: CC-PVDZ
  Basis Set: (CC-PVDZ AUX)
    Blend: CC-PVDZ-JKFIT
  @DF-UKS Final Energy:  -314.15071623554275
    Total Energy =                       -314.1507162355427454
  Basis Set: CC-PVDZ
    Blend: CC-PVDZ
  Basis Set: (CC-PVDZ AUX)
    Blend: CC-PVDZ-JKFIT
  Charge       = -1
  Multiplicity = 5
  Basis Set: CC-PVDZ
    Blend: CC-PVDZ
  Basis Set: (CC-PVDZ AUX)
    Blend: CC-PVDZ-JKFIT

    Orbital Energies [Eh]
    ---------------------

    Alpha Occupied:

       1A1   -65.915663     2A1    -6.564009     3A1    -5.058347
       1B2    -3.419184     1B1    -3.417781     4A1    -3.415705
       5A1    -0.281427     6A1    -0.133658     2B1    -0.003783
       7A1     0.002572     2B2     0.006058     3B1     0.094176

    Alpha Virtual:

       3B2     0.152575     8A1     0.258222     9A1     0.442050
      10A1     0.469032     4B1     0.493382     4B2     0.494770
       5B1     0.522804    11A1     0.522867     5B2     0.534631
       1A2     0.561716    12A1     0.562191     6B1     0.596536
       6B2     0.597950    13A1     0.739832    14A1     0.863468
       2A2     0.929301    15A1     0.932560     7B1     1.076523
       7B2     1.079283    16A1     1.318022

    Beta Occupied:

       1A1   -65.910265     2A1    -6.548428     3A1    -5.052283
       1B2    -3.410588     4A1    -3.408906     1B1    -3.406613
       5A1    -0.210107     6A1    -0.055613

    Beta Virtual:

       2B2     0.102709     2B1     0.118921     7A1     0.119710
       3B2     0.202085     3B1     0.222727     8A1     0.294806
       9A1     0.476939    10A1     0.511993     4B2     0.526416
       4B1     0.539481     5B2     0.565163    11A1     0.565960
       5B1     0.582398     1A2     0.629796    12A1     0.629950
       6B2     0.644840     6B1     0.658997    13A1     0.777845
      14A1     0.909957     2A2     0.995236    15A1     0.995634
       7B2     1.130440     7B1     1.150741    16A1     1.371980

    Final Occupation by Irrep:
             A1    A2    B1    B2
    DOCC [     6,    0,    1,    1 ]
    SOCC [     1,    0,    2,    1 ]
    NA   [     7,    0,    3,    2 ]
    NB   [     6,    0,    1,    1 ]

  @DF-UKS Final Energy:  -314.15071718021358

   => Energetics <=

    Nuclear Repulsion Energy =             17.3897030670564412
    One-Electron Energy =                -472.5699213138928485
    Two-Electron Energy =                 161.2003116959658087
    DFT Exchange-Correlation Energy =     -20.1708106293429168
    Empirical Dispersion Energy =           0.0000000000000000
    VV10 Nonlocal Energy =                  0.0000000000000000
    Total Energy =                       -314.1507171802135190

  UHF NO Occupations:
  HONO-2 :    2 B2 1.0000000
  HONO-1 :    3 B1 1.0000000
  HONO-0 :    7 A1 1.0000000
  LUNO+0 :    8 A1 0.0010353
  LUNO+1 :    9 A1 0.0003845
  LUNO+2 :   10 A1 0.0000002
  LUNO+3 :    3 B2 0.0000000

Computation Completed

Properties will be evaluated at   0.000000,   0.000000,   0.000000 [a0]

Properties computed using the SCF density matrix

 Multipole Moments:

 ------------------------------------------------------------------------------------
     Multipole            Electronic (a.u.)      Nuclear  (a.u.)        Total (a.u.)
 ------------------------------------------------------------------------------------

 L = 1.  Multiply by 2.5417464519 to convert [e a0] to [Debye]
 Dipole X            :          0.0000000            0.0000000            0.0000000
 Dipole Y            :          0.0000000            0.0000000            0.0000000
 Dipole Z            :          0.6935941           -1.4708780           -0.7772839
 Magnitude           :                                                    0.7772839

 ------------------------------------------------------------------------------------

*** tstop() called on Joses-MacBook-Pro-2.local at Thu Jul 17 09:54:34 2025
Module time:
	user time   =       3.95 seconds =       0.07 minutes
	system time =       3.43 seconds =       0.06 minutes
	total time  =          1 seconds =       0.02 minutes
Total time:
	user time   =      64.87 seconds =       1.08 minutes
	system time =      72.89 seconds =       1.21 minutes
	total time  =         14 seconds =       0.23 minutes

*** tstart() called on Joses-MacBook-Pro-2.local
*** at Thu Jul 17 09:54:34 2025

         ------------------------------------------------------------
                                   SCF GRAD
                          Rob Parrish, Justin Turney,
                       Andy Simmonett, and Alex Sokolov
         ------------------------------------------------------------

  ==> Geometry <==

    Molecular point group: c2v
    Full point group: C_inf_v

    Geometry (in Angstrom), charge = -1, multiplicity = 5:

       Center              X                  Y                   Z               Mass
    ------------   -----------------  -----------------  -----------------  -----------------
         B            0.000000000000     0.000000000000     1.528606658881    11.009305360000
         SI           0.000000000000     0.000000000000    -0.601527743303    27.976926534650

  Nuclear repulsion =   17.389703067056441

  ==> Basis Set <==

  Basis Set: CC-PVDZ
    Blend: CC-PVDZ
    Number of shells: 14
    Number of basis functions: 32
    Number of Cartesian functions: 34
    Spherical Harmonics?: true
    Max angular momentum: 2

  ==> DFJKGrad: Density-Fitted SCF Gradients <==

    Gradient:                    1
    J tasked:                  Yes
    K tasked:                  Yes
    wK tasked:                  No
    OpenMP threads:              1
    Integrals threads:           1
    Memory [MiB]:              375
    Schwarz Cutoff:          1E-12
    Fitting Condition:       1E-10

   => Auxiliary Basis Set <=

  Basis Set: (CC-PVDZ AUX)
    Blend: CC-PVDZ-JKFIT
    Number of shells: 60
    Number of basis functions: 182
    Number of Cartesian functions: 211
    Spherical Harmonics?: true
    Max angular momentum: 3

  ==> DFT Potential <==

   => LibXC <=

    Version 6.2.2
    S. Lehtola, C. Steigemann, M. J.T. Oliveira, and M. A.L. Marques.,  SoftwareX 7, 1â€“5 (2018) (10.1016/j.softx.2017.11.002)

   => Composite Functional: B3LYP <=

    B3LYP Hyb-GGA Exchange-Correlation Functional

    P. J. Stephens, F. J. Devlin, C. F. Chabalowski, and M. J. Frisch.,  J. Phys. Chem. 98, 11623 (1994) (10.1021/j100096a001)

    Deriv               =              1
    GGA                 =           TRUE
    Meta                =          FALSE

    Exchange Hybrid     =           TRUE
    MP2 Hybrid          =          FALSE

   => Exchange Functionals <=

    0.0800   Slater exchange
    0.7200         Becke 88

   => Exact (HF) Exchange <=

    0.2000               HF

   => Correlation Functionals <=

    0.1900   Vosko, Wilk & Nusair (VWN5_RPA)
    0.8100   Lee, Yang & Parr

   => LibXC Density Thresholds  <==

    XC_HYB_GGA_XC_B3LYP:  1.00E-15

   => Molecular Quadrature <=

    Radial Scheme          =       TREUTLER
    Pruning Scheme         =           NONE
    Nuclear Scheme         =       TREUTLER

    Blocking Scheme        =         OCTREE
    BS radius alpha        =              1
    Pruning alpha          =              1
    Radial Points          =             75
    Spherical Points       =            302
    Total Points           =          42137
    Total Blocks           =            389
    Max Points             =            255
    Max Functions          =             32
    Weights Tolerance      =       1.00E-15

  -Total Gradient:
     Atom            X                  Y                   Z
    ------   -----------------  -----------------  -----------------
       1       -0.000000000000    -0.000000000000    -0.000068893655
       2        0.000000000000    -0.000000000000     0.000062612725

*** tstop() called on Joses-MacBook-Pro-2.local at Thu Jul 17 09:54:34 2025
Module time:
	user time   =       0.61 seconds =       0.01 minutes
	system time =       1.81 seconds =       0.03 minutes
	total time  =          0 seconds =       0.00 minutes
Total time:
	user time   =      65.48 seconds =       1.09 minutes
	system time =      74.70 seconds =       1.25 minutes
	total time  =         14 seconds =       0.23 minutes

    			-----------------------------------------

    			 OPTKING 3.0: for geometry optimizations

    			     By R.A. King, Bethel University

    			        with contributions from

    			    A.V. Copan, J. Cayton, A. Heide

    			-----------------------------------------

	                            ===> Fragment 1 <==

	 Z (Atomic Numbers)          Masses                          Geom
	       5.000000            11.009305          0.00000000  0.00000000  2.88864794
	      14.000000            27.976927          0.00000000  0.00000000 -1.13672269

	 - Coordinate -           - BOHR/RAD -       - ANG/DEG -
	 R(1,2)           =         4.025371           2.130134

	        --- Internal Coordinate Step in ANG or DEG, aJ/ANG or AJ/DEG ---
	-------------------------------------------------------------------------------
	           Coordinate      Previous         Force          Change          New
	           ----------      --------        ------          ------        ------
	               R(1,2)       2.13013        0.00054        0.00046       2.13060
	-------------------------------------------------------------------------------

	                                 ==> Convergence Check <==

	Measures of convergence in internal coordinates in au.

	Criteria marked as inactive (o), active & met (*), and active & unmet ( ).

	----------------------------------------------------------------------------------------------
	   Step    Total Energy     Delta E     Max Force     RMS Force      Max Disp      RMS Disp
	----------------------------------------------------------------------------------------------
	  Convergence Criteria     1.00e-06 *    3.00e-04 *             o    1.20e-03 *             o
	----------------------------------------------------------------------------------------------
	    12    -314.15071718   -9.45e-07 *    6.58e-05 *    6.58e-05 o    8.71e-04 *    8.71e-04 o  ~
	----------------------------------------------------------------------------------------------

Next Geometry in Ang
	Fragment 1 (Ang)

	    B   0.0000000000   0.0000000000   1.5288371346
	   Si   0.0000000000   0.0000000000  -0.6017582190

    Final optimized geometry and variables:
    Molecular point group: c2v
    Full point group: C_inf_v

    Geometry (in Angstrom), charge = -1, multiplicity = 5:

    B            0.000000000000     0.000000000000     1.528606658881
    SI           0.000000000000     0.000000000000    -0.601527743303

    Psi4 stopped on: Thursday, 17 July 2025 09:54AM
    Psi4 wall time for execution: 0:00:14.32

*** Psi4 exiting successfully. Buy a developer a beer!
