                               Psi4 1.9.1 release

  ==> Input File <==

--------------------------------------------------------------------------
molecule {
-1 5
Na   0.00000        0.60000        0.00000
Si   0.00000       -0.60000        0.00000
}

set {
basis              cc-pvdz
reference          uks
maxiter            500
geom_maxiter       500
DAMPING_PERCENTAGE 1
guess              SAP
}

optimize('b3lyp')
--------------------------------------------------------------------------

    Molecular point group: c2v
  Charge       = -1
  Multiplicity = 5
  Basis Set: CC-PVDZ
    Blend: CC-PVDZ
  Basis Set: (CC-PVDZ AUX)
    Blend: CC-PVDZ-JKFIT + DEF2-UNIVERSAL-JKFIT
  @DF-UKS Final Energy:  -450.89245096285549
    Total Energy =                       -450.8924509628554915
 Dipole X            :          0.0000000            0.0000000            0.0000000
 Dipole Y            :          0.0000000            0.0000000            0.0000000
 Dipole Z            :         -0.3761683           -0.6278248           -1.0039930
 Magnitude           :                                                    1.0039930
    Molecular point group: c2v
  Basis Set: CC-PVDZ
    Blend: CC-PVDZ
  Basis Set: (CC-PVDZ AUX)
    Blend: CC-PVDZ-JKFIT + DEF2-UNIVERSAL-JKFIT
  Basis Set: CC-PVDZ
    Blend: CC-PVDZ
  Basis Set: (CC-PVDZ AUX)
    Blend: CC-PVDZ-JKFIT + DEF2-UNIVERSAL-JKFIT
  @DF-UKS Final Energy:  -450.90111125574606
    Total Energy =                       -450.9011112557460592
  Basis Set: CC-PVDZ
    Blend: CC-PVDZ
  Basis Set: (CC-PVDZ AUX)
    Blend: CC-PVDZ-JKFIT + DEF2-UNIVERSAL-JKFIT
  Basis Set: CC-PVDZ
    Blend: CC-PVDZ
  @DF-UKS Final Energy:  -450.91788762114720
    Total Energy =                       -450.9178876211472016
  @DF-UKS Final Energy:  -450.97936118318751
    Total Energy =                       -450.9793611831875069
  @DF-UKS Final Energy:  -451.27181100105270
    Total Energy =                       -451.2718110010526971
  @DF-UKS Final Energy:  -451.46252996463841
    Total Energy =                       -451.4625299646384065
  @DF-UKS Final Energy:  -451.60466294187506
    Total Energy =                       -451.6046629418750058
  @DF-UKS Final Energy:  -451.68080592709362
    Total Energy =                       -451.6808059270936155
  @DF-UKS Final Energy:  -451.71763053893676
    Total Energy =                       -451.7176305389367599
  @DF-UKS Final Energy:  -451.73479982187382
    Total Energy =                       -451.7347998218738212
  @DF-UKS Final Energy:  -451.74249627205398
    Total Energy =                       -451.7424962720540407
  @DF-UKS Final Energy:  -451.74555706292585
    Total Energy =                       -451.7455570629257977
  @DF-UKS Final Energy:  -451.74647048784942
    Total Energy =                       -451.7464704878494217
  @DF-UKS Final Energy:  -451.74661533521396
    Total Energy =                       -451.7466153352139600
  @DF-UKS Final Energy:  -451.74664231291848
    Total Energy =                       -451.7466423129184818
  Basis Set: (CC-PVDZ AUX)
    Blend: CC-PVDZ-JKFIT + DEF2-UNIVERSAL-JKFIT
  Basis Set: CC-PVDZ
    Blend: CC-PVDZ
  Basis Set: (CC-PVDZ AUX)
    Blend: CC-PVDZ-JKFIT + DEF2-UNIVERSAL-JKFIT
  @DF-UKS Final Energy:  -451.74664389700246
    Total Energy =                       -451.7466438970024569
  Basis Set: CC-PVDZ
    Blend: CC-PVDZ
  Basis Set: (CC-PVDZ AUX)
    Blend: CC-PVDZ-JKFIT + DEF2-UNIVERSAL-JKFIT
  Charge       = -1
  Multiplicity = 5
  Basis Set: CC-PVDZ
    Blend: CC-PVDZ
  Basis Set: (CC-PVDZ AUX)
    Blend: CC-PVDZ-JKFIT + DEF2-UNIVERSAL-JKFIT

    Orbital Energies [Eh]
    ---------------------

    Alpha Occupied:

       1A1   -65.943163     2A1   -38.329524     3A1    -5.086950
       4A1    -3.446501     1B1    -3.446358     1B2    -3.446358
       5A1    -2.075526     2B1    -1.007066     2B2    -1.007066
       6A1    -1.005809     7A1    -0.263635     8A1    -0.028576
       3B1    -0.005485     3B2    -0.005485     9A1     0.027278

    Alpha Virtual:

       4B1     0.100796     4B2     0.100796    10A1     0.118451
      11A1     0.167400     5B2     0.196949     5B1     0.196949
      12A1     0.242703     1A2     0.297677    13A1     0.297677
       6B1     0.303077     6B2     0.303077    14A1     0.346017
       7B1     0.497007     7B2     0.497007    15A1     0.512159
      16A1     0.536669    17A1     0.542611     2A2     0.542614
       8B2     0.611081     8B1     0.611081    18A1     0.795712

    Beta Occupied:

       1A1   -65.936271     2A1   -38.328114     3A1    -5.079169
       1B1    -3.435223     1B2    -3.435223     4A1    -3.435134
       5A1    -2.072912     2B2    -1.005443     2B1    -1.005443
       6A1    -1.003120     7A1    -0.179607

    Beta Virtual:

       8A1     0.062888     3B2     0.089884     3B1     0.089884
       9A1     0.109556    10A1     0.133732     4B2     0.133915
       4B1     0.133915    11A1     0.188466     5B2     0.217093
       5B1     0.217093    12A1     0.277042    13A1     0.320429
       1A2     0.320430     6B1     0.342410     6B2     0.342410
      14A1     0.384759     7B1     0.538470     7B2     0.538470
      15A1     0.557046    16A1     0.578512    17A1     0.612766
       2A2     0.612767     8B2     0.672015     8B1     0.672015
      18A1     0.840138

    Final Occupation by Irrep:
             A1    A2    B1    B2
    DOCC [     7,    0,    2,    2 ]
    SOCC [     2,    0,    1,    1 ]
    NA   [     9,    0,    3,    3 ]
    NB   [     7,    0,    2,    2 ]

  @DF-UKS Final Energy:  -451.74664395399247

   => Energetics <=

    Nuclear Repulsion Energy =             27.3184549842554993
    One-Electron Energy =                -687.7614196069747550
    Two-Electron Energy =                 237.2660092705802981
    DFT Exchange-Correlation Energy =     -28.5696886018535032
    Empirical Dispersion Energy =           0.0000000000000000
    VV10 Nonlocal Energy =                  0.0000000000000000
    Total Energy =                       -451.7466439539924750

  UHF NO Occupations:
  HONO-2 :    3 B1 1.0000000
  HONO-1 :    9 A1 1.0000000
  HONO-0 :    3 B2 1.0000000
  LUNO+0 :   10 A1 0.0001693
  LUNO+1 :   11 A1 0.0000003
  LUNO+2 :    4 B2 0.0000002
  LUNO+3 :    4 B1 0.0000002

Computation Completed

Properties will be evaluated at   0.000000,   0.000000,   0.000000 [a0]

Properties computed using the SCF density matrix

 Multipole Moments:

 ------------------------------------------------------------------------------------
     Multipole            Electronic (a.u.)      Nuclear  (a.u.)        Total (a.u.)
 ------------------------------------------------------------------------------------

 L = 1.  Multiply by 2.5417464519 to convert [e a0] to [Debye]
 Dipole X            :          0.0000000            0.0000000            0.0000000
 Dipole Y            :          0.0000000            0.0000000            0.0000000
 Dipole Z            :          0.3006703           -1.5607125           -1.2600423
 Magnitude           :                                                    1.2600423

 ------------------------------------------------------------------------------------

*** tstop() called on Joses-MacBook-Pro-2.local at Thu Jul 17 11:11:49 2025
Module time:
	user time   =       8.82 seconds =       0.15 minutes
	system time =       1.84 seconds =       0.03 minutes
	total time  =          1 seconds =       0.02 minutes
Total time:
	user time   =     230.44 seconds =       3.84 minutes
	system time =      66.77 seconds =       1.11 minutes
	total time  =         29 seconds =       0.48 minutes

*** tstart() called on Joses-MacBook-Pro-2.local
*** at Thu Jul 17 11:11:49 2025

         ------------------------------------------------------------
                                   SCF GRAD
                          Rob Parrish, Justin Turney,
                       Andy Simmonett, and Alex Sokolov
         ------------------------------------------------------------

  ==> Geometry <==

    Molecular point group: c2v
    Full point group: C_inf_v

    Geometry (in Angstrom), charge = -1, multiplicity = 5:

       Center              X                  Y                   Z               Mass
    ------------   -----------------  -----------------  -----------------  -----------------
         NA           0.000000000000     0.000000000000     1.637492211813    22.989769282000
         SI           0.000000000000     0.000000000000    -1.345593416204    27.976926534650

  Nuclear repulsion =   27.318454984255499

  ==> Basis Set <==

  Basis Set: CC-PVDZ
    Blend: CC-PVDZ
    Number of shells: 16
    Number of basis functions: 36
    Number of Cartesian functions: 38
    Spherical Harmonics?: true
    Max angular momentum: 2

  ==> DFJKGrad: Density-Fitted SCF Gradients <==

    Gradient:                    1
    J tasked:                  Yes
    K tasked:                  Yes
    wK tasked:                  No
    OpenMP threads:              1
    Integrals threads:           1
    Memory [MiB]:              375
    Schwarz Cutoff:          1E-12
    Fitting Condition:       1E-10

   => Auxiliary Basis Set <=

  Basis Set: (CC-PVDZ AUX)
    Blend: CC-PVDZ-JKFIT + DEF2-UNIVERSAL-JKFIT
    Number of shells: 70
    Number of basis functions: 224
    Number of Cartesian functions: 267
    Spherical Harmonics?: true
    Max angular momentum: 4

  ==> DFT Potential <==

   => LibXC <=

    Version 6.2.2
    S. Lehtola, C. Steigemann, M. J.T. Oliveira, and M. A.L. Marques.,  SoftwareX 7, 1â€“5 (2018) (10.1016/j.softx.2017.11.002)

   => Composite Functional: B3LYP <=

    B3LYP Hyb-GGA Exchange-Correlation Functional

    P. J. Stephens, F. J. Devlin, C. F. Chabalowski, and M. J. Frisch.,  J. Phys. Chem. 98, 11623 (1994) (10.1021/j100096a001)

    Deriv               =              1
    GGA                 =           TRUE
    Meta                =          FALSE

    Exchange Hybrid     =           TRUE
    MP2 Hybrid          =          FALSE

   => Exchange Functionals <=

    0.0800   Slater exchange
    0.7200         Becke 88

   => Exact (HF) Exchange <=

    0.2000               HF

   => Correlation Functionals <=

    0.1900   Vosko, Wilk & Nusair (VWN5_RPA)
    0.8100   Lee, Yang & Parr

   => LibXC Density Thresholds  <==

    XC_HYB_GGA_XC_B3LYP:  1.00E-15

   => Molecular Quadrature <=

    Radial Scheme          =       TREUTLER
    Pruning Scheme         =           NONE
    Nuclear Scheme         =       TREUTLER

    Blocking Scheme        =         OCTREE
    BS radius alpha        =              1
    Pruning alpha          =              1
    Radial Points          =             75
    Spherical Points       =            302
    Total Points           =          43857
    Total Blocks           =            454
    Max Points             =            256
    Max Functions          =             36
    Weights Tolerance      =       1.00E-15

  -Total Gradient:
     Atom            X                  Y                   Z
    ------   -----------------  -----------------  -----------------
       1        0.000000000000    -0.000000000000     0.000005342421
       2        0.000000000000     0.000000000000     0.000037333791

*** tstop() called on Joses-MacBook-Pro-2.local at Thu Jul 17 11:11:50 2025
Module time:
	user time   =       2.32 seconds =       0.04 minutes
	system time =       2.16 seconds =       0.04 minutes
	total time  =          1 seconds =       0.02 minutes
Total time:
	user time   =     232.76 seconds =       3.88 minutes
	system time =      68.95 seconds =       1.15 minutes
	total time  =         30 seconds =       0.50 minutes

    			-----------------------------------------

    			 OPTKING 3.0: for geometry optimizations

    			     By R.A. King, Bethel University

    			        with contributions from

    			    A.V. Copan, J. Cayton, A. Heide

    			-----------------------------------------

	                            ===> Fragment 1 <==

	 Z (Atomic Numbers)          Masses                          Geom
	      11.000000            22.989769          0.00000000  0.00000000  3.09441181
	      14.000000            27.976927          0.00000000  0.00000000 -2.54280303

	 - Coordinate -           - BOHR/RAD -       - ANG/DEG -
	 R(1,2)           =         5.637215           2.983086

	        --- Internal Coordinate Step in ANG or DEG, aJ/ANG or AJ/DEG ---
	-------------------------------------------------------------------------------
	           Coordinate      Previous         Force          Change          New
	           ----------      --------        ------          ------        ------
	               R(1,2)       2.98309        0.00013        0.00055       2.98363
	-------------------------------------------------------------------------------

	                                 ==> Convergence Check <==

	Measures of convergence in internal coordinates in au.

	Criteria marked as inactive (o), active & met (*), and active & unmet ( ).

	----------------------------------------------------------------------------------------------
	   Step    Total Energy     Delta E     Max Force     RMS Force      Max Disp      RMS Disp
	----------------------------------------------------------------------------------------------
	  Convergence Criteria     1.00e-06 *    3.00e-04 *             o    1.20e-03 *             o
	----------------------------------------------------------------------------------------------
	    17    -451.74664395   -5.70e-08 *    1.60e-05 *    1.60e-05 o    1.04e-03 *    1.04e-03 o  ~
	----------------------------------------------------------------------------------------------

Next Geometry in Ang
	Fragment 1 (Ang)

	   Na   0.0000000000   0.0000000000   1.6377665636
	   Si   0.0000000000   0.0000000000  -1.3458677680

    Final optimized geometry and variables:
    Molecular point group: c2v
    Full point group: C_inf_v

    Geometry (in Angstrom), charge = -1, multiplicity = 5:

    NA           0.000000000000     0.000000000000     1.637492211813
    SI           0.000000000000     0.000000000000    -1.345593416204

    Psi4 stopped on: Thursday, 17 July 2025 11:11AM
    Psi4 wall time for execution: 0:00:30.43

*** Psi4 exiting successfully. Buy a developer a beer!
