                               Psi4 1.9.1 release

  ==> Input File <==

--------------------------------------------------------------------------
molecule {
-1 5
C   0.00000        0.60000        0.00000
F   0.00000       -0.60000        0.00000
}

set {
basis              cc-pvdz
reference          uks
maxiter            500
geom_maxiter       500
DAMPING_PERCENTAGE 1
guess              SAP
}

optimize('b3lyp')
--------------------------------------------------------------------------

    Molecular point group: c2v
  Charge       = -1
  Multiplicity = 5
  Basis Set: CC-PVDZ
    Blend: CC-PVDZ
  Basis Set: (CC-PVDZ AUX)
    Blend: CC-PVDZ-JKFIT
  @DF-UKS Final Energy:  -137.34465883355040
    Total Energy =                       -137.3446588335503975
 Dipole X            :          0.0000000            0.0000000            0.0000000
 Dipole Y            :          0.0000000            0.0000000            0.0000000
 Dipole Z            :         -1.3867215            0.4382258           -0.9484956
 Magnitude           :                                                    0.9484956
    Molecular point group: c2v
  Basis Set: CC-PVDZ
    Blend: CC-PVDZ
  Basis Set: (CC-PVDZ AUX)
    Blend: CC-PVDZ-JKFIT
  Basis Set: CC-PVDZ
    Blend: CC-PVDZ
  Basis Set: (CC-PVDZ AUX)
    Blend: CC-PVDZ-JKFIT
  @DF-UKS Final Energy:  -137.42218608805175
    Total Energy =                       -137.4221860880517454
  Basis Set: CC-PVDZ
    Blend: CC-PVDZ
  Basis Set: (CC-PVDZ AUX)
    Blend: CC-PVDZ-JKFIT
  Basis Set: CC-PVDZ
    Blend: CC-PVDZ
  @DF-UKS Final Energy:  -137.54303026235183
    Total Energy =                       -137.5430302623518344
  @DF-UKS Final Energy:  -137.58044085303368
    Total Energy =                       -137.5804408530336786
  @DF-UKS Final Energy:  -137.59342178797363
    Total Energy =                       -137.5934217879736252
  @DF-UKS Final Energy:  -137.59961835913288
    Total Energy =                       -137.5996183591328759
  @DF-UKS Final Energy:  -137.60219112036032
    Total Energy =                       -137.6021911203603167
  @DF-UKS Final Energy:  -137.60316335152152
    Total Energy =                       -137.6031633515215162
  @DF-UKS Final Energy:  -137.60340101210161
    Total Energy =                       -137.6034010121016138
  @DF-UKS Final Energy:  -137.60348502903017
    Total Energy =                       -137.6034850290301677
  @DF-UKS Final Energy:  -137.60349979236909
    Total Energy =                       -137.6034997923690923
  Basis Set: (CC-PVDZ AUX)
    Blend: CC-PVDZ-JKFIT
  Basis Set: CC-PVDZ
    Blend: CC-PVDZ
  Basis Set: (CC-PVDZ AUX)
    Blend: CC-PVDZ-JKFIT
  @DF-UKS Final Energy:  -137.60350263876194
    Total Energy =                       -137.6035026387619382
  Basis Set: CC-PVDZ
    Blend: CC-PVDZ
  Basis Set: (CC-PVDZ AUX)
    Blend: CC-PVDZ-JKFIT
  Charge       = -1
  Multiplicity = 5
  Basis Set: CC-PVDZ
    Blend: CC-PVDZ
  Basis Set: (CC-PVDZ AUX)
    Blend: CC-PVDZ-JKFIT

    Orbital Energies [Eh]
    ---------------------

    Alpha Occupied:

       1A1   -24.493970     2A1    -9.899320     3A1    -0.931509
       4A1    -0.262618     5A1    -0.232422     1B1    -0.179070
       1B2    -0.179070     2B2     0.084859     2B1     0.084859
       6A1     0.092385

    Alpha Virtual:

       3B2     0.760249     3B1     0.760249     7A1     0.776591
       8A1     0.848428     9A1     1.312133     4B1     1.343035
       4B2     1.343035    10A1     1.458045     1A2     1.458046
       5B2     1.466585     5B1     1.466585    11A1     1.508818
      12A1     1.825894    13A1     3.736049     6B1     3.747297
       6B2     3.747297    14A1     3.801528     2A2     3.801568

    Beta Occupied:

       1A1   -24.468113     2A1    -9.860424     3A1    -0.857589
       1B1    -0.152984     1B2    -0.152984     4A1    -0.087111

    Beta Virtual:

       5A1     0.002948     2B2     0.276102     2B1     0.276102
       6A1     0.289068     3B2     0.855073     3B1     0.855073
       7A1     0.871723     8A1     0.937759     4B1     1.361569
       4B2     1.361569     9A1     1.410425    10A1     1.579961
       1A2     1.579962     5B2     1.584742     5B1     1.584742
      11A1     1.603991    12A1     1.881193    13A1     3.814707
       2A2     3.814748     6B2     3.825731     6B1     3.825731
      14A1     3.844533

    Final Occupation by Irrep:
             A1    A2    B1    B2
    DOCC [     4,    0,    1,    1 ]
    SOCC [     2,    0,    1,    1 ]
    NA   [     6,    0,    2,    2 ]
    NB   [     4,    0,    1,    1 ]

  @DF-UKS Final Energy:  -137.60350330358477

   => Energetics <=

    Nuclear Repulsion Energy =             10.7186419867511198
    One-Electron Energy =                -215.8873933385751513
    Two-Electron Energy =                  80.4598437196369787
    DFT Exchange-Correlation Energy =     -12.8945956713977115
    Empirical Dispersion Energy =           0.0000000000000000
    VV10 Nonlocal Energy =                  0.0000000000000000
    Total Energy =                       -137.6035033035847732

  UHF NO Occupations:
  HONO-2 :    2 B1 1.0000000
  HONO-1 :    2 B2 1.0000000
  HONO-0 :    6 A1 1.0000000
  LUNO+0 :    7 A1 0.0016549
  LUNO+1 :    8 A1 0.0002043
  LUNO+2 :    3 B2 0.0000488
  LUNO+3 :    3 B1 0.0000488

Computation Completed

Properties will be evaluated at   0.000000,   0.000000,   0.000000 [a0]

Properties computed using the SCF density matrix

 Multipole Moments:

 ------------------------------------------------------------------------------------
     Multipole            Electronic (a.u.)      Nuclear  (a.u.)        Total (a.u.)
 ------------------------------------------------------------------------------------

 L = 1.  Multiply by 2.5417464519 to convert [e a0] to [Debye]
 Dipole X            :          0.0000000            0.0000000            0.0000000
 Dipole Y            :          0.0000000            0.0000000            0.0000000
 Dipole Z            :         -3.1060229            0.9735805           -2.1324424
 Magnitude           :                                                    2.1324424

 ------------------------------------------------------------------------------------

*** tstop() called on Joses-MacBook-Pro-2.local at Thu Jul 17 09:59:31 2025
Module time:
	user time   =       3.17 seconds =       0.05 minutes
	system time =       2.64 seconds =       0.04 minutes
	total time  =          0 seconds =       0.00 minutes
Total time:
	user time   =      54.44 seconds =       0.91 minutes
	system time =      58.13 seconds =       0.97 minutes
	total time  =         10 seconds =       0.17 minutes

*** tstart() called on Joses-MacBook-Pro-2.local
*** at Thu Jul 17 09:59:31 2025

         ------------------------------------------------------------
                                   SCF GRAD
                          Rob Parrish, Justin Turney,
                       Andy Simmonett, and Alex Sokolov
         ------------------------------------------------------------

  ==> Geometry <==

    Molecular point group: c2v
    Full point group: C_inf_v

    Geometry (in Angstrom), charge = -1, multiplicity = 5:

       Center              X                  Y                   Z               Mass
    ------------   -----------------  -----------------  -----------------  -----------------
         C            0.000000000000     0.000000000000     1.633927959723    12.000000000000
         F            0.000000000000     0.000000000000    -1.032041237821    18.998403162730

  Nuclear repulsion =   10.718641986751120

  ==> Basis Set <==

  Basis Set: CC-PVDZ
    Blend: CC-PVDZ
    Number of shells: 12
    Number of basis functions: 28
    Number of Cartesian functions: 30
    Spherical Harmonics?: true
    Max angular momentum: 2

  ==> DFJKGrad: Density-Fitted SCF Gradients <==

    Gradient:                    1
    J tasked:                  Yes
    K tasked:                  Yes
    wK tasked:                  No
    OpenMP threads:              1
    Integrals threads:           1
    Memory [MiB]:              375
    Schwarz Cutoff:          1E-12
    Fitting Condition:       1E-10

   => Auxiliary Basis Set <=

  Basis Set: (CC-PVDZ AUX)
    Blend: CC-PVDZ-JKFIT
    Number of shells: 48
    Number of basis functions: 140
    Number of Cartesian functions: 162
    Spherical Harmonics?: true
    Max angular momentum: 3

  ==> DFT Potential <==

   => LibXC <=

    Version 6.2.2
    S. Lehtola, C. Steigemann, M. J.T. Oliveira, and M. A.L. Marques.,  SoftwareX 7, 1â€“5 (2018) (10.1016/j.softx.2017.11.002)

   => Composite Functional: B3LYP <=

    B3LYP Hyb-GGA Exchange-Correlation Functional

    P. J. Stephens, F. J. Devlin, C. F. Chabalowski, and M. J. Frisch.,  J. Phys. Chem. 98, 11623 (1994) (10.1021/j100096a001)

    Deriv               =              1
    GGA                 =           TRUE
    Meta                =          FALSE

    Exchange Hybrid     =           TRUE
    MP2 Hybrid          =          FALSE

   => Exchange Functionals <=

    0.0800   Slater exchange
    0.7200         Becke 88

   => Exact (HF) Exchange <=

    0.2000               HF

   => Correlation Functionals <=

    0.1900   Vosko, Wilk & Nusair (VWN5_RPA)
    0.8100   Lee, Yang & Parr

   => LibXC Density Thresholds  <==

    XC_HYB_GGA_XC_B3LYP:  1.00E-15

   => Molecular Quadrature <=

    Radial Scheme          =       TREUTLER
    Pruning Scheme         =           NONE
    Nuclear Scheme         =       TREUTLER

    Blocking Scheme        =         OCTREE
    BS radius alpha        =              1
    Pruning alpha          =              1
    Radial Points          =             75
    Spherical Points       =            302
    Total Points           =          43379
    Total Blocks           =            388
    Max Points             =            256
    Max Functions          =             28
    Weights Tolerance      =       1.00E-15

  -Total Gradient:
     Atom            X                  Y                   Z
    ------   -----------------  -----------------  -----------------
       1        0.000000000000     0.000000000000    -0.000031308308
       2        0.000000000000     0.000000000000     0.000024807608

*** tstop() called on Joses-MacBook-Pro-2.local at Thu Jul 17 09:59:31 2025
Module time:
	user time   =       0.54 seconds =       0.01 minutes
	system time =       1.14 seconds =       0.02 minutes
	total time  =          0 seconds =       0.00 minutes
Total time:
	user time   =      54.98 seconds =       0.92 minutes
	system time =      59.27 seconds =       0.99 minutes
	total time  =         10 seconds =       0.17 minutes

    			-----------------------------------------

    			 OPTKING 3.0: for geometry optimizations

    			     By R.A. King, Bethel University

    			        with contributions from

    			    A.V. Copan, J. Cayton, A. Heide

    			-----------------------------------------

	                            ===> Fragment 1 <==

	 Z (Atomic Numbers)          Masses                          Geom
	       6.000000            12.000000          0.00000000  0.00000000  3.08767635
	       9.000000            18.998403          0.00000000  0.00000000 -1.95027529

	 - Coordinate -           - BOHR/RAD -       - ANG/DEG -
	 R(1,2)           =         5.037952           2.665969

	        --- Internal Coordinate Step in ANG or DEG, aJ/ANG or AJ/DEG ---
	-------------------------------------------------------------------------------
	           Coordinate      Previous         Force          Change          New
	           ----------      --------        ------          ------        ------
	               R(1,2)       2.66597        0.00023        0.00182       2.66779
	-------------------------------------------------------------------------------

	                                 ==> Convergence Check <==

	Measures of convergence in internal coordinates in au.

	Criteria marked as inactive (o), active & met (*), and active & unmet ( ).

	----------------------------------------------------------------------------------------------
	   Step    Total Energy     Delta E     Max Force     RMS Force      Max Disp      RMS Disp
	----------------------------------------------------------------------------------------------
	  Convergence Criteria     1.00e-06 *    3.00e-04 *             o    1.20e-03 *             o
	----------------------------------------------------------------------------------------------
	    13    -137.60350330   -6.65e-07 *    2.81e-05 *    2.81e-05 o    3.43e-03      3.43e-03 o  ~
	----------------------------------------------------------------------------------------------

Next Geometry in Ang
	Fragment 1 (Ang)

	    C   0.0000000000   0.0000000000   1.6348366663
	    F   0.0000000000   0.0000000000  -1.0329499444

    Final optimized geometry and variables:
    Molecular point group: c2v
    Full point group: C_inf_v

    Geometry (in Angstrom), charge = -1, multiplicity = 5:

    C            0.000000000000     0.000000000000     1.633927959723
    F            0.000000000000     0.000000000000    -1.032041237821

    Psi4 stopped on: Thursday, 17 July 2025 09:59AM
    Psi4 wall time for execution: 0:00:11.33

*** Psi4 exiting successfully. Buy a developer a beer!
