                               Psi4 1.9.1 release

  ==> Input File <==

--------------------------------------------------------------------------
molecule {
-1 5
Na   0.00000        0.60000        0.00000
Ar   0.00000       -0.60000        0.00000
}

set {
basis              cc-pvdz
reference          uks
maxiter            500
geom_maxiter       500
DAMPING_PERCENTAGE 1
guess              SAP
}

optimize('b3lyp')
--------------------------------------------------------------------------

    Molecular point group: c2v
  Charge       = -1
  Multiplicity = 5
  Basis Set: CC-PVDZ
    Blend: CC-PVDZ
  Basis Set: (CC-PVDZ AUX)
    Blend: CC-PVDZ-JKFIT + DEF2-UNIVERSAL-JKFIT
  @DF-UKS Final Energy:  -688.32592447446575
    Total Energy =                       -688.3259244744657508
 Dipole X            :          0.0000000            0.0000000            0.0000000
 Dipole Y            :          0.0000000            0.0000000            0.0000000
 Dipole Z            :         -3.7382407            0.9283038           -2.8099369
 Magnitude           :                                                    2.8099369
    Molecular point group: c2v
  Basis Set: CC-PVDZ
    Blend: CC-PVDZ
  Basis Set: (CC-PVDZ AUX)
    Blend: CC-PVDZ-JKFIT + DEF2-UNIVERSAL-JKFIT
  Basis Set: CC-PVDZ
    Blend: CC-PVDZ
  Basis Set: (CC-PVDZ AUX)
    Blend: CC-PVDZ-JKFIT + DEF2-UNIVERSAL-JKFIT
  @DF-UKS Final Energy:  -688.34370127545435
    Total Energy =                       -688.3437012754544639
  Basis Set: CC-PVDZ
    Blend: CC-PVDZ
  Basis Set: (CC-PVDZ AUX)
    Blend: CC-PVDZ-JKFIT + DEF2-UNIVERSAL-JKFIT
  Basis Set: CC-PVDZ
    Blend: CC-PVDZ
  @DF-UKS Final Energy:  -688.37767920475653
    Total Energy =                       -688.3776792047565323
  @DF-UKS Final Energy:  -688.49751686383900
    Total Energy =                       -688.4975168638391096
  @DF-UKS Final Energy:  -688.93548873902103
    Total Energy =                       -688.9354887390210251
  @DF-UKS Final Energy:  -689.09399706629677
    Total Energy =                       -689.0939970662966516
  @DF-UKS Final Energy:  -689.19704802574847
    Total Energy =                       -689.1970480257484724
  @DF-UKS Final Energy:  -689.26076222556571
    Total Energy =                       -689.2607622255657134
  @DF-UKS Final Energy:  -689.29920927601290
    Total Energy =                       -689.2992092760127889
  @DF-UKS Final Energy:  -689.32422809800300
    Total Energy =                       -689.3242280980031182
  @DF-UKS Final Energy:  -689.34035144048823
    Total Energy =                       -689.3403514404882344
  @DF-UKS Final Energy:  -689.34943369854534
    Total Energy =                       -689.3494336985453401
  @DF-UKS Final Energy:  -689.35302298793795
    Total Energy =                       -689.3530229879381750
  @DF-UKS Final Energy:  -689.35375540078155
    Total Energy =                       -689.3537554007816652
  Basis Set: (CC-PVDZ AUX)
    Blend: CC-PVDZ-JKFIT + DEF2-UNIVERSAL-JKFIT
  Basis Set: CC-PVDZ
    Blend: CC-PVDZ
  Basis Set: (CC-PVDZ AUX)
    Blend: CC-PVDZ-JKFIT + DEF2-UNIVERSAL-JKFIT
  @DF-UKS Final Energy:  -689.35379967590677
    Total Energy =                       -689.3537996759067710
  Basis Set: CC-PVDZ
    Blend: CC-PVDZ
  Basis Set: (CC-PVDZ AUX)
    Blend: CC-PVDZ-JKFIT + DEF2-UNIVERSAL-JKFIT
  Charge       = -1
  Multiplicity = 5
  Basis Set: CC-PVDZ
    Blend: CC-PVDZ
  Basis Set: (CC-PVDZ AUX)
    Blend: CC-PVDZ-JKFIT + DEF2-UNIVERSAL-JKFIT

    Orbital Energies [Eh]
    ---------------------

    Alpha Occupied:

       1A1  -115.342758     2A1   -38.351363     3A1   -11.369170
       4A1    -8.941842     1B1    -8.911661     1B2    -8.911661
       5A1    -2.097502     6A1    -1.167911     7A1    -1.030726
       2B1    -1.027574     2B2    -1.027574     8A1    -0.647833
       3B1    -0.579897     3B2    -0.579897     9A1    -0.026509
       4B1     0.049998     4B2     0.049998

    Alpha Virtual:

      10A1     0.071815    11A1     0.128317     5B2     0.176345
       5B1     0.176345    12A1     0.183934     6B2     0.269193
       6B1     0.269193    13A1     0.286275     1A2     0.286276
      14A1     0.287544    15A1     0.518728     7B1     0.532613
       7B2     0.532613    16A1     0.625284     8B1     0.643537
       8B2     0.643537    17A1     0.677727     2A2     0.677805
      18A1     0.874032

    Beta Occupied:

       1A1  -115.333257     2A1   -38.349877     3A1   -11.359963
       4A1    -8.913216     1B1    -8.905798     1B2    -8.905798
       5A1    -2.094774     6A1    -1.103093     7A1    -1.028796
       2B1    -1.025336     2B2    -1.025336     3B1    -0.558574
       3B2    -0.558574

    Beta Virtual:

       8A1    -0.456003     9A1     0.050139    10A1     0.088522
       4B2     0.116780     4B1     0.116780    11A1     0.166833
      12A1     0.196185     5B2     0.211997     5B1     0.211997
       6B2     0.292769     6B1     0.292769    13A1     0.309652
      14A1     0.329166     1A2     0.329174     7B1     0.545332
       7B2     0.545332    15A1     0.562356    16A1     0.689380
       2A2     0.689453     8B1     0.708992     8B2     0.708992
      17A1     0.712429    18A1     0.905712

    Final Occupation by Irrep:
             A1    A2    B1    B2
    DOCC [     7,    0,    3,    3 ]
    SOCC [     2,    0,    1,    1 ]
    NA   [     9,    0,    4,    4 ]
    NB   [     7,    0,    3,    3 ]

  @DF-UKS Final Energy:  -689.35379995069161

   => Energetics <=

    Nuclear Repulsion Energy =             32.3138588437492729
    One-Electron Energy =               -1018.3654306737872730
    Two-Electron Energy =                 333.0873716005561960
    DFT Exchange-Correlation Energy =     -36.3895997212096773
    Empirical Dispersion Energy =           0.0000000000000000
    VV10 Nonlocal Energy =                  0.0000000000000000
    Total Energy =                       -689.3537999506914957

  UHF NO Occupations:
  HONO-2 :    9 A1 1.0000000
  HONO-1 :    4 B2 1.0000000
  HONO-0 :    4 B1 1.0000000
  LUNO+0 :   10 A1 0.0008096
  LUNO+1 :    5 B2 0.0000353
  LUNO+2 :    5 B1 0.0000353
  LUNO+3 :   11 A1 0.0000003

Computation Completed

Properties will be evaluated at   0.000000,   0.000000,   0.000000 [a0]

Properties computed using the SCF density matrix

 Multipole Moments:

 ------------------------------------------------------------------------------------
     Multipole            Electronic (a.u.)      Nuclear  (a.u.)        Total (a.u.)
 ------------------------------------------------------------------------------------

 L = 1.  Multiply by 2.5417464519 to convert [e a0] to [Debye]
 Dipole X            :          0.0000000            0.0000000            0.0000000
 Dipole Y            :          0.0000000            0.0000000            0.0000000
 Dipole Z            :         -9.5981559            2.5083399           -7.0898160
 Magnitude           :                                                    7.0898160

 ------------------------------------------------------------------------------------

*** tstop() called on Joses-MacBook-Pro-2.local at Thu Jul 17 11:21:36 2025
Module time:
	user time   =       6.32 seconds =       0.11 minutes
	system time =       3.30 seconds =       0.05 minutes
	total time  =          0 seconds =       0.00 minutes
Total time:
	user time   =     163.77 seconds =       2.73 minutes
	system time =      88.99 seconds =       1.48 minutes
	total time  =         24 seconds =       0.40 minutes

*** tstart() called on Joses-MacBook-Pro-2.local
*** at Thu Jul 17 11:21:36 2025

         ------------------------------------------------------------
                                   SCF GRAD
                          Rob Parrish, Justin Turney,
                       Andy Simmonett, and Alex Sokolov
         ------------------------------------------------------------

  ==> Geometry <==

    Molecular point group: c2v
    Full point group: C_inf_v

    Geometry (in Angstrom), charge = -1, multiplicity = 5:

       Center              X                  Y                   Z               Mass
    ------------   -----------------  -----------------  -----------------  -----------------
         NA           0.000000000000     0.000000000000     2.058345597715    22.989769282000
         AR           0.000000000000     0.000000000000    -1.184135847144    39.962383123700

  Nuclear repulsion =   32.313858843749273

  ==> Basis Set <==

  Basis Set: CC-PVDZ
    Blend: CC-PVDZ
    Number of shells: 16
    Number of basis functions: 36
    Number of Cartesian functions: 38
    Spherical Harmonics?: true
    Max angular momentum: 2

  ==> DFJKGrad: Density-Fitted SCF Gradients <==

    Gradient:                    1
    J tasked:                  Yes
    K tasked:                  Yes
    wK tasked:                  No
    OpenMP threads:              1
    Integrals threads:           1
    Memory [MiB]:              375
    Schwarz Cutoff:          1E-12
    Fitting Condition:       1E-10

   => Auxiliary Basis Set <=

  Basis Set: (CC-PVDZ AUX)
    Blend: CC-PVDZ-JKFIT + DEF2-UNIVERSAL-JKFIT
    Number of shells: 70
    Number of basis functions: 224
    Number of Cartesian functions: 267
    Spherical Harmonics?: true
    Max angular momentum: 4

  ==> DFT Potential <==

   => LibXC <=

    Version 6.2.2
    S. Lehtola, C. Steigemann, M. J.T. Oliveira, and M. A.L. Marques.,  SoftwareX 7, 1â€“5 (2018) (10.1016/j.softx.2017.11.002)

   => Composite Functional: B3LYP <=

    B3LYP Hyb-GGA Exchange-Correlation Functional

    P. J. Stephens, F. J. Devlin, C. F. Chabalowski, and M. J. Frisch.,  J. Phys. Chem. 98, 11623 (1994) (10.1021/j100096a001)

    Deriv               =              1
    GGA                 =           TRUE
    Meta                =          FALSE

    Exchange Hybrid     =           TRUE
    MP2 Hybrid          =          FALSE

   => Exchange Functionals <=

    0.0800   Slater exchange
    0.7200         Becke 88

   => Exact (HF) Exchange <=

    0.2000               HF

   => Correlation Functionals <=

    0.1900   Vosko, Wilk & Nusair (VWN5_RPA)
    0.8100   Lee, Yang & Parr

   => LibXC Density Thresholds  <==

    XC_HYB_GGA_XC_B3LYP:  1.00E-15

   => Molecular Quadrature <=

    Radial Scheme          =       TREUTLER
    Pruning Scheme         =           NONE
    Nuclear Scheme         =       TREUTLER

    Blocking Scheme        =         OCTREE
    BS radius alpha        =              1
    Pruning alpha          =              1
    Radial Points          =             75
    Spherical Points       =            302
    Total Points           =          43869
    Total Blocks           =            448
    Max Points             =            256
    Max Functions          =             36
    Weights Tolerance      =       1.00E-15

  -Total Gradient:
     Atom            X                  Y                   Z
    ------   -----------------  -----------------  -----------------
       1        0.000000000000    -0.000000000000     0.000026612176
       2        0.000000000000     0.000000000000     0.000056680704

*** tstop() called on Joses-MacBook-Pro-2.local at Thu Jul 17 11:21:37 2025
Module time:
	user time   =       1.68 seconds =       0.03 minutes
	system time =       2.54 seconds =       0.04 minutes
	total time  =          1 seconds =       0.02 minutes
Total time:
	user time   =     165.46 seconds =       2.76 minutes
	system time =      91.54 seconds =       1.53 minutes
	total time  =         25 seconds =       0.42 minutes

    			-----------------------------------------

    			 OPTKING 3.0: for geometry optimizations

    			     By R.A. King, Bethel University

    			        with contributions from

    			    A.V. Copan, J. Cayton, A. Heide

    			-----------------------------------------

	                            ===> Fragment 1 <==

	 Z (Atomic Numbers)          Masses                          Geom
	      11.000000            22.989769          0.00000000  0.00000000  3.88970945
	      18.000000            39.962383          0.00000000  0.00000000 -2.23769245

	 - Coordinate -           - BOHR/RAD -       - ANG/DEG -
	 R(1,2)           =         6.127402           3.242481

	        --- Internal Coordinate Step in ANG or DEG, aJ/ANG or AJ/DEG ---
	-------------------------------------------------------------------------------
	           Coordinate      Previous         Force          Change          New
	           ----------      --------        ------          ------        ------
	               R(1,2)       3.24248        0.00012        0.00050       3.24298
	-------------------------------------------------------------------------------

	                                 ==> Convergence Check <==

	Measures of convergence in internal coordinates in au.

	Criteria marked as inactive (o), active & met (*), and active & unmet ( ).

	----------------------------------------------------------------------------------------------
	   Step    Total Energy     Delta E     Max Force     RMS Force      Max Disp      RMS Disp
	----------------------------------------------------------------------------------------------
	  Convergence Criteria     1.00e-06 *    3.00e-04 *             o    1.20e-03 *             o
	----------------------------------------------------------------------------------------------
	    16    -689.35379995   -2.75e-07 *    1.50e-05 *    1.50e-05 o    9.51e-04 *    9.51e-04 o  ~
	----------------------------------------------------------------------------------------------

Next Geometry in Ang
	Fragment 1 (Ang)

	   Na   0.0000000000   0.0000000000   2.0585973358
	   Ar   0.0000000000   0.0000000000  -1.1843875852

    Final optimized geometry and variables:
    Molecular point group: c2v
    Full point group: C_inf_v

    Geometry (in Angstrom), charge = -1, multiplicity = 5:

    NA           0.000000000000     0.000000000000     2.058345597715
    AR           0.000000000000     0.000000000000    -1.184135847144

    Psi4 stopped on: Thursday, 17 July 2025 11:21AM
    Psi4 wall time for execution: 0:00:25.68

*** Psi4 exiting successfully. Buy a developer a beer!
