                               Psi4 1.9.1 release

  ==> Input File <==

--------------------------------------------------------------------------
molecule {
-1 5
B   0.00000        0.60000        0.00000
S   0.00000       -0.60000        0.00000
}

set {
basis              cc-pvdz
reference          uks
maxiter            500
geom_maxiter       500
DAMPING_PERCENTAGE 1
guess              SAP
}

optimize('b3lyp')
--------------------------------------------------------------------------

    Molecular point group: c2v
  Charge       = -1
  Multiplicity = 5
  Basis Set: CC-PVDZ
    Blend: CC-PVDZ
  Basis Set: (CC-PVDZ AUX)
    Blend: CC-PVDZ-JKFIT
  @DF-UKS Final Energy:  -422.28061952760504
    Total Energy =                       -422.2806195276049834
 Dipole X            :          0.0000000            0.0000000            0.0000000
 Dipole Y            :          0.0000000            0.0000000            0.0000000
 Dipole Z            :         -1.1839602           -0.8593730           -2.0433332
 Magnitude           :                                                    2.0433332
    Molecular point group: c2v
  Basis Set: CC-PVDZ
    Blend: CC-PVDZ
  Basis Set: (CC-PVDZ AUX)
    Blend: CC-PVDZ-JKFIT
  Basis Set: CC-PVDZ
    Blend: CC-PVDZ
  Basis Set: (CC-PVDZ AUX)
    Blend: CC-PVDZ-JKFIT
  @DF-UKS Final Energy:  -422.51713521606871
    Total Energy =                       -422.5171352160687093
  Basis Set: CC-PVDZ
    Blend: CC-PVDZ
  Basis Set: (CC-PVDZ AUX)
    Blend: CC-PVDZ-JKFIT
  Basis Set: CC-PVDZ
    Blend: CC-PVDZ
  @DF-UKS Final Energy:  -422.73097466340050
    Total Energy =                       -422.7309746634005023
  @DF-UKS Final Energy:  -422.80914603540924
    Total Energy =                       -422.8091460354092419
  @DF-UKS Final Energy:  -422.83257186758885
    Total Energy =                       -422.8325718675888538
  @DF-UKS Final Energy:  -422.84205018553337
    Total Energy =                       -422.8420501855332532
  @DF-UKS Final Energy:  -422.84410310886926
    Total Energy =                       -422.8441031088692625
  @DF-UKS Final Energy:  -422.84463842236698
    Total Energy =                       -422.8446384223669270
  @DF-UKS Final Energy:  -422.84482689334902
    Total Energy =                       -422.8448268933490226
  @DF-UKS Final Energy:  -422.84485821539033
    Total Energy =                       -422.8448582153903885
  Basis Set: (CC-PVDZ AUX)
    Blend: CC-PVDZ-JKFIT
  Basis Set: CC-PVDZ
    Blend: CC-PVDZ
  Basis Set: (CC-PVDZ AUX)
    Blend: CC-PVDZ-JKFIT
  @DF-UKS Final Energy:  -422.84486447621379
    Total Energy =                       -422.8448644762137860
  Basis Set: CC-PVDZ
    Blend: CC-PVDZ
  Basis Set: (CC-PVDZ AUX)
    Blend: CC-PVDZ-JKFIT
  Charge       = -1
  Multiplicity = 5
  Basis Set: CC-PVDZ
    Blend: CC-PVDZ
  Basis Set: (CC-PVDZ AUX)
    Blend: CC-PVDZ-JKFIT

    Orbital Energies [Eh]
    ---------------------

    Alpha Occupied:

       1A1   -88.672900     2A1    -7.730884     3A1    -6.536625
       1B2    -5.702142     4A1    -5.691012     1B1    -5.684524
       5A1    -0.485260     6A1    -0.188083     2B2    -0.103237
       2B1    -0.061708     7A1    -0.040219     3B2     0.088431
       3B1     0.099006

    Alpha Virtual:

       8A1     0.285081     9A1     0.478185     4B2     0.517315
       4B1     0.522478    10A1     0.568385    11A1     0.655005
       5B2     0.681184     5B1     0.710732     6B2     0.736748
       6B1     0.763430     1A2     0.780269    12A1     0.780312
      13A1     0.876846     2A2     0.956222    14A1     0.956460
      15A1     1.120660     7B2     1.167012     7B1     1.184907
      16A1     1.413065

    Beta Occupied:

       1A1   -88.666167     2A1    -7.723929     3A1    -6.510630
       4A1    -5.684453     1B2    -5.683547     1B1    -5.679087
       5A1    -0.428626     6A1    -0.122040     2B1    -0.032762

    Beta Virtual:

       2B2     0.043348     7A1     0.129568     3B1     0.244286
       3B2     0.247305     8A1     0.331433     9A1     0.510715
       4B2     0.593926     4B1     0.593953    10A1     0.646334
      11A1     0.688905     5B1     0.731401     5B2     0.737164
       6B1     0.802730     6B2     0.807104     1A2     0.840716
      12A1     0.845064    13A1     0.912869     2A2     1.060676
      14A1     1.061304    15A1     1.169347     7B1     1.250096
       7B2     1.250640    16A1     1.470766

    Final Occupation by Irrep:
             A1    A2    B1    B2
    DOCC [     6,    0,    2,    1 ]
    SOCC [     1,    0,    1,    2 ]
    NA   [     7,    0,    3,    3 ]
    NB   [     6,    0,    2,    1 ]

  @DF-UKS Final Energy:  -422.84486487483042

   => Energetics <=

    Nuclear Repulsion Energy =             21.3899465711467585
    One-Electron Energy =                -630.0730754591163532
    Two-Electron Energy =                 209.9180465988667095
    DFT Exchange-Correlation Energy =     -24.0797825857275463
    Empirical Dispersion Energy =           0.0000000000000000
    VV10 Nonlocal Energy =                  0.0000000000000000
    Total Energy =                       -422.8448648748304777

  UHF NO Occupations:
  HONO-2 :    2 B2 1.0000000
  HONO-1 :    3 B2 1.0000000
  HONO-0 :    7 A1 1.0000000
  LUNO+0 :    8 A1 0.0008694
  LUNO+1 :    9 A1 0.0004776
  LUNO+2 :    4 B1 0.0003741
  LUNO+3 :   10 A1 0.0000001

Computation Completed

Properties will be evaluated at   0.000000,   0.000000,   0.000000 [a0]

Properties computed using the SCF density matrix

 Multipole Moments:

 ------------------------------------------------------------------------------------
     Multipole            Electronic (a.u.)      Nuclear  (a.u.)        Total (a.u.)
 ------------------------------------------------------------------------------------

 L = 1.  Multiply by 2.5417464519 to convert [e a0] to [Debye]
 Dipole X            :          0.0000000            0.0000000            0.0000000
 Dipole Y            :          0.0000000            0.0000000            0.0000000
 Dipole Z            :         -0.3104783           -1.4173655           -1.7278438
 Magnitude           :                                                    1.7278438

 ------------------------------------------------------------------------------------

*** tstop() called on Joses-MacBook-Pro-2.local at Thu Jul 17 09:55:50 2025
Module time:
	user time   =       3.94 seconds =       0.07 minutes
	system time =       4.32 seconds =       0.07 minutes
	total time  =          1 seconds =       0.02 minutes
Total time:
	user time   =      58.54 seconds =       0.98 minutes
	system time =      65.13 seconds =       1.09 minutes
	total time  =         12 seconds =       0.20 minutes

*** tstart() called on Joses-MacBook-Pro-2.local
*** at Thu Jul 17 09:55:50 2025

         ------------------------------------------------------------
                                   SCF GRAD
                          Rob Parrish, Justin Turney,
                       Andy Simmonett, and Alex Sokolov
         ------------------------------------------------------------

  ==> Geometry <==

    Molecular point group: c2v
    Full point group: C_inf_v

    Geometry (in Angstrom), charge = -1, multiplicity = 5:

       Center              X                  Y                   Z               Mass
    ------------   -----------------  -----------------  -----------------  -----------------
         B            0.000000000000     0.000000000000     1.472217144251    11.009305360000
         S            0.000000000000     0.000000000000    -0.506945202545    31.972071174400

  Nuclear repulsion =   21.389946571146758

  ==> Basis Set <==

  Basis Set: CC-PVDZ
    Blend: CC-PVDZ
    Number of shells: 14
    Number of basis functions: 32
    Number of Cartesian functions: 34
    Spherical Harmonics?: true
    Max angular momentum: 2

  ==> DFJKGrad: Density-Fitted SCF Gradients <==

    Gradient:                    1
    J tasked:                  Yes
    K tasked:                  Yes
    wK tasked:                  No
    OpenMP threads:              1
    Integrals threads:           1
    Memory [MiB]:              375
    Schwarz Cutoff:          1E-12
    Fitting Condition:       1E-10

   => Auxiliary Basis Set <=

  Basis Set: (CC-PVDZ AUX)
    Blend: CC-PVDZ-JKFIT
    Number of shells: 60
    Number of basis functions: 182
    Number of Cartesian functions: 211
    Spherical Harmonics?: true
    Max angular momentum: 3

  ==> DFT Potential <==

   => LibXC <=

    Version 6.2.2
    S. Lehtola, C. Steigemann, M. J.T. Oliveira, and M. A.L. Marques.,  SoftwareX 7, 1â€“5 (2018) (10.1016/j.softx.2017.11.002)

   => Composite Functional: B3LYP <=

    B3LYP Hyb-GGA Exchange-Correlation Functional

    P. J. Stephens, F. J. Devlin, C. F. Chabalowski, and M. J. Frisch.,  J. Phys. Chem. 98, 11623 (1994) (10.1021/j100096a001)

    Deriv               =              1
    GGA                 =           TRUE
    Meta                =          FALSE

    Exchange Hybrid     =           TRUE
    MP2 Hybrid          =          FALSE

   => Exchange Functionals <=

    0.0800   Slater exchange
    0.7200         Becke 88

   => Exact (HF) Exchange <=

    0.2000               HF

   => Correlation Functionals <=

    0.1900   Vosko, Wilk & Nusair (VWN5_RPA)
    0.8100   Lee, Yang & Parr

   => LibXC Density Thresholds  <==

    XC_HYB_GGA_XC_B3LYP:  1.00E-15

   => Molecular Quadrature <=

    Radial Scheme          =       TREUTLER
    Pruning Scheme         =           NONE
    Nuclear Scheme         =       TREUTLER

    Blocking Scheme        =         OCTREE
    BS radius alpha        =              1
    Pruning alpha          =              1
    Radial Points          =             75
    Spherical Points       =            302
    Total Points           =          42015
    Total Blocks           =            383
    Max Points             =            255
    Max Functions          =             32
    Weights Tolerance      =       1.00E-15

  -Total Gradient:
     Atom            X                  Y                   Z
    ------   -----------------  -----------------  -----------------
       1        0.000000000000     0.000000000000    -0.000042638180
       2        0.000000000000     0.000000000000     0.000043458383

*** tstop() called on Joses-MacBook-Pro-2.local at Thu Jul 17 09:55:50 2025
Module time:
	user time   =       1.30 seconds =       0.02 minutes
	system time =       1.99 seconds =       0.03 minutes
	total time  =          0 seconds =       0.00 minutes
Total time:
	user time   =      59.84 seconds =       1.00 minutes
	system time =      67.12 seconds =       1.12 minutes
	total time  =         12 seconds =       0.20 minutes

    			-----------------------------------------

    			 OPTKING 3.0: for geometry optimizations

    			     By R.A. King, Bethel University

    			        with contributions from

    			    A.V. Copan, J. Cayton, A. Heide

    			-----------------------------------------

	                            ===> Fragment 1 <==

	 Z (Atomic Numbers)          Masses                          Geom
	       5.000000            11.009305          0.00000000  0.00000000  2.78208720
	      16.000000            31.972071          0.00000000  0.00000000 -0.95798759

	 - Coordinate -           - BOHR/RAD -       - ANG/DEG -
	 R(1,2)           =         3.740075           1.979162

	        --- Internal Coordinate Step in ANG or DEG, aJ/ANG or AJ/DEG ---
	-------------------------------------------------------------------------------
	           Coordinate      Previous         Force          Change          New
	           ----------      --------        ------          ------        ------
	               R(1,2)       1.97916        0.00035        0.00020       1.97936
	-------------------------------------------------------------------------------

	                                 ==> Convergence Check <==

	Measures of convergence in internal coordinates in au.

	Criteria marked as inactive (o), active & met (*), and active & unmet ( ).

	----------------------------------------------------------------------------------------------
	   Step    Total Energy     Delta E     Max Force     RMS Force      Max Disp      RMS Disp
	----------------------------------------------------------------------------------------------
	  Convergence Criteria     1.00e-06 *    3.00e-04 *             o    1.20e-03 *             o
	----------------------------------------------------------------------------------------------
	    12    -422.84486487   -3.99e-07 *    4.30e-05 *    4.30e-05 o    3.75e-04 *    3.75e-04 o  ~
	----------------------------------------------------------------------------------------------

Next Geometry in Ang
	Fragment 1 (Ang)

	    B   0.0000000000   0.0000000000   1.4723162692
	    S   0.0000000000   0.0000000000  -0.5070443275

    Final optimized geometry and variables:
    Molecular point group: c2v
    Full point group: C_inf_v

    Geometry (in Angstrom), charge = -1, multiplicity = 5:

    B            0.000000000000     0.000000000000     1.472217144251
    S            0.000000000000     0.000000000000    -0.506945202545

    Psi4 stopped on: Thursday, 17 July 2025 09:55AM
    Psi4 wall time for execution: 0:00:12.78

*** Psi4 exiting successfully. Buy a developer a beer!
