                               Psi4 1.9.1 release

  ==> Input File <==

--------------------------------------------------------------------------
molecule {
-1 5
Li   0.00000        0.60000        0.00000
O   0.00000       -0.60000        0.00000
}

set {
basis              cc-pvdz
reference          uks
maxiter            500
geom_maxiter       500
DAMPING_PERCENTAGE 1
guess              SAP
}

optimize('b3lyp')
--------------------------------------------------------------------------

    Molecular point group: c2v
  Charge       = -1
  Multiplicity = 5
  Basis Set: CC-PVDZ
    Blend: CC-PVDZ
  Basis Set: (CC-PVDZ AUX)
    Blend: CC-PVDZ-JKFIT + DEF2-UNIVERSAL-JKFIT
  @DF-UKS Final Energy:   -82.35000306202426
    Total Energy =                        -82.3500030620242711
 Dipole X            :          0.0000000            0.0000000            0.0000000
 Dipole Y            :          0.0000000            0.0000000            0.0000000
 Dipole Z            :         -1.8828315           -0.8025013           -2.6853327
 Magnitude           :                                                    2.6853327
    Molecular point group: c2v
  Basis Set: CC-PVDZ
    Blend: CC-PVDZ
  Basis Set: (CC-PVDZ AUX)
    Blend: CC-PVDZ-JKFIT + DEF2-UNIVERSAL-JKFIT
  Basis Set: CC-PVDZ
    Blend: CC-PVDZ
  Basis Set: (CC-PVDZ AUX)
    Blend: CC-PVDZ-JKFIT + DEF2-UNIVERSAL-JKFIT
  @DF-UKS Final Energy:   -82.45721784732635
    Total Energy =                        -82.4572178473263477
  Basis Set: CC-PVDZ
    Blend: CC-PVDZ
  Basis Set: (CC-PVDZ AUX)
    Blend: CC-PVDZ-JKFIT + DEF2-UNIVERSAL-JKFIT
  Basis Set: CC-PVDZ
    Blend: CC-PVDZ
  @DF-UKS Final Energy:   -82.49338134022946
    Total Energy =                        -82.4933813402294618
  @DF-UKS Final Energy:   -82.51502535571402
    Total Energy =                        -82.5150253557140161
  @DF-UKS Final Energy:   -82.52627159133175
    Total Energy =                        -82.5262715913317493
  @DF-UKS Final Energy:   -82.53281341125630
    Total Energy =                        -82.5328134112563134
  @DF-UKS Final Energy:   -82.53690272388575
    Total Energy =                        -82.5369027238857456
  @DF-UKS Final Energy:   -82.53982393965887
    Total Energy =                        -82.5398239396588735
  @DF-UKS Final Energy:   -82.54218055208914
    Total Energy =                        -82.5421805520891354
  @DF-UKS Final Energy:   -82.54404662456122
    Total Energy =                        -82.5440466245612186
  @DF-UKS Final Energy:   -82.54409302659647
    Total Energy =                        -82.5440930265964710
  @DF-UKS Final Energy:   -82.54544511893248
    Total Energy =                        -82.5454451189324629
  @DF-UKS Final Energy:   -82.54546439657693
    Total Energy =                        -82.5454643965769463
  @DF-UKS Final Energy:   -82.54621498675287
    Total Energy =                        -82.5462149867528581
  @DF-UKS Final Energy:   -82.54622196586490
    Total Energy =                        -82.5462219658649019
  @DF-UKS Final Energy:   -82.54622884914760
    Total Energy =                        -82.5462288491475817
  @DF-UKS Final Energy:   -82.54660562786825
    Total Energy =                        -82.5466056278682316
  @DF-UKS Final Energy:   -82.54660785072079
    Total Energy =                        -82.5466078507208039
  @DF-UKS Final Energy:   -82.54661005414310
    Total Energy =                        -82.5466100541431018
  @DF-UKS Final Energy:   -82.54661223631585
    Total Energy =                        -82.5466122363158661
  Basis Set: (CC-PVDZ AUX)
    Blend: CC-PVDZ-JKFIT + DEF2-UNIVERSAL-JKFIT
  Basis Set: CC-PVDZ
    Blend: CC-PVDZ
  Basis Set: (CC-PVDZ AUX)
    Blend: CC-PVDZ-JKFIT + DEF2-UNIVERSAL-JKFIT
  @DF-UKS Final Energy:   -82.54680280197469
    Total Energy =                        -82.5468028019746924
  Basis Set: CC-PVDZ
    Blend: CC-PVDZ
  Basis Set: (CC-PVDZ AUX)
    Blend: CC-PVDZ-JKFIT + DEF2-UNIVERSAL-JKFIT
  Charge       = -1
  Multiplicity = 5
  Basis Set: CC-PVDZ
    Blend: CC-PVDZ
  Basis Set: (CC-PVDZ AUX)
    Blend: CC-PVDZ-JKFIT + DEF2-UNIVERSAL-JKFIT

    Orbital Energies [Eh]
    ---------------------

    Alpha Occupied:

       1A1   -19.171155     2A1    -1.865748     3A1    -0.901468
       1B2    -0.339478     4A1    -0.339374     1B1    -0.263094
       5A1     0.010921     2B2     0.059339

    Alpha Virtual:

       2B1     0.098712     6A1     0.100571     3B2     0.194363
       3B1     0.207345     7A1     0.207524     8A1     0.211626
       4B2     0.364476     1A2     0.364672     9A1     0.366831
      10A1     0.373208     4B1     0.374176     5B2     0.923007
      11A1     0.936270     5B1     0.969936    12A1     1.224218
       6B2     2.544161    13A1     2.544487     2A2     2.602081
       6B1     2.602355    14A1     2.622978

    Beta Occupied:

       1A1   -19.121169     2A1    -1.859356     3A1    -0.743184
       1B1    -0.211528

    Beta Virtual:

       4A1    -0.059752     1B2    -0.058199     5A1     0.095821
       2B1     0.127262     6A1     0.130637     2B2     0.136804
       3B1     0.227170     7A1     0.227243     3B2     0.238401
       8A1     0.239537     4B1     0.414119     9A1     0.414403
       4B2     0.427222     1A2     0.427545    10A1     0.431198
       5B1     0.999617     5B2     1.036503    11A1     1.048453
      12A1     1.305664     2A2     2.693143     6B1     2.693327
      13A1     2.700611     6B2     2.717959    14A1     2.718259

    Final Occupation by Irrep:
             A1    A2    B1    B2
    DOCC [     3,    0,    1,    0 ]
    SOCC [     2,    0,    0,    2 ]
    NA   [     5,    0,    1,    2 ]
    NB   [     3,    0,    1,    0 ]

  @DF-UKS Final Energy:   -82.54680341117751

   => Energetics <=

    Nuclear Repulsion Energy =              2.9013994936757612
    One-Electron Energy =                -120.0929154315479366
    Two-Electron Energy =                  43.0630134581446669
    DFT Exchange-Correlation Energy =      -8.4183009314500072
    Empirical Dispersion Energy =           0.0000000000000000
    VV10 Nonlocal Energy =                  0.0000000000000000
    Total Energy =                        -82.5468034111775069

  UHF NO Occupations:
  HONO-2 :    1 B2 1.0000000
  HONO-1 :    5 A1 1.0000000
  HONO-0 :    2 B2 1.0000000
  LUNO+0 :    6 A1 0.0007560
  LUNO+1 :    2 B1 0.0002602
  LUNO+2 :    7 A1 0.0000004
  LUNO+3 :    8 A1 0.0000001

Computation Completed

Properties will be evaluated at   0.000000,   0.000000,   0.000000 [a0]

Properties computed using the SCF density matrix

 Multipole Moments:

 ------------------------------------------------------------------------------------
     Multipole            Electronic (a.u.)      Nuclear  (a.u.)        Total (a.u.)
 ------------------------------------------------------------------------------------

 L = 1.  Multiply by 2.5417464519 to convert [e a0] to [Debye]
 Dipole X            :          0.0000000            0.0000000            0.0000000
 Dipole Y            :          0.0000000            0.0000000            0.0000000
 Dipole Z            :         -2.8848448           -2.9273141           -5.8121589
 Magnitude           :                                                    5.8121589

 ------------------------------------------------------------------------------------

*** tstop() called on Joses-MacBook-Pro-2.local at Thu Jul 17 09:30:14 2025
Module time:
	user time   =       1.58 seconds =       0.03 minutes
	system time =       2.74 seconds =       0.05 minutes
	total time  =          1 seconds =       0.02 minutes
Total time:
	user time   =      73.30 seconds =       1.22 minutes
	system time =      97.09 seconds =       1.62 minutes
	total time  =         17 seconds =       0.28 minutes

*** tstart() called on Joses-MacBook-Pro-2.local
*** at Thu Jul 17 09:30:14 2025

         ------------------------------------------------------------
                                   SCF GRAD
                          Rob Parrish, Justin Turney,
                       Andy Simmonett, and Alex Sokolov
         ------------------------------------------------------------

  ==> Geometry <==

    Molecular point group: c2v
    Full point group: C_inf_v

    Geometry (in Angstrom), charge = -1, multiplicity = 5:

       Center              X                  Y                   Z               Mass
    ------------   -----------------  -----------------  -----------------  -----------------
         LI           0.000000000000     0.000000000000     3.042655787601     7.016003436600
         O            0.000000000000     0.000000000000    -1.334629410030    15.994914619570

  Nuclear repulsion =    2.901399493675761

  ==> Basis Set <==

  Basis Set: CC-PVDZ
    Blend: CC-PVDZ
    Number of shells: 12
    Number of basis functions: 28
    Number of Cartesian functions: 30
    Spherical Harmonics?: true
    Max angular momentum: 2

  ==> DFJKGrad: Density-Fitted SCF Gradients <==

    Gradient:                    1
    J tasked:                  Yes
    K tasked:                  Yes
    wK tasked:                  No
    OpenMP threads:              1
    Integrals threads:           1
    Memory [MiB]:              375
    Schwarz Cutoff:          1E-12
    Fitting Condition:       1E-10

   => Auxiliary Basis Set <=

  Basis Set: (CC-PVDZ AUX)
    Blend: CC-PVDZ-JKFIT + DEF2-UNIVERSAL-JKFIT
    Number of shells: 41
    Number of basis functions: 121
    Number of Cartesian functions: 141
    Spherical Harmonics?: true
    Max angular momentum: 3

  ==> DFT Potential <==

   => LibXC <=

    Version 6.2.2
    S. Lehtola, C. Steigemann, M. J.T. Oliveira, and M. A.L. Marques.,  SoftwareX 7, 1â€“5 (2018) (10.1016/j.softx.2017.11.002)

   => Composite Functional: B3LYP <=

    B3LYP Hyb-GGA Exchange-Correlation Functional

    P. J. Stephens, F. J. Devlin, C. F. Chabalowski, and M. J. Frisch.,  J. Phys. Chem. 98, 11623 (1994) (10.1021/j100096a001)

    Deriv               =              1
    GGA                 =           TRUE
    Meta                =          FALSE

    Exchange Hybrid     =           TRUE
    MP2 Hybrid          =          FALSE

   => Exchange Functionals <=

    0.0800   Slater exchange
    0.7200         Becke 88

   => Exact (HF) Exchange <=

    0.2000               HF

   => Correlation Functionals <=

    0.1900   Vosko, Wilk & Nusair (VWN5_RPA)
    0.8100   Lee, Yang & Parr

   => LibXC Density Thresholds  <==

    XC_HYB_GGA_XC_B3LYP:  1.00E-15

   => Molecular Quadrature <=

    Radial Scheme          =       TREUTLER
    Pruning Scheme         =           NONE
    Nuclear Scheme         =       TREUTLER

    Blocking Scheme        =         OCTREE
    BS radius alpha        =              1
    Pruning alpha          =              1
    Radial Points          =             75
    Spherical Points       =            302
    Total Points           =          44415
    Total Blocks           =            452
    Max Points             =            254
    Max Functions          =             28
    Weights Tolerance      =       1.00E-15

  -Total Gradient:
     Atom            X                  Y                   Z
    ------   -----------------  -----------------  -----------------
       1        0.000000000000     0.000000000000    -0.000214645359
       2       -0.000000000000     0.000000000000     0.000185517344

*** tstop() called on Joses-MacBook-Pro-2.local at Thu Jul 17 09:30:14 2025
Module time:
	user time   =       0.65 seconds =       0.01 minutes
	system time =       1.03 seconds =       0.02 minutes
	total time  =          0 seconds =       0.00 minutes
Total time:
	user time   =      73.96 seconds =       1.23 minutes
	system time =      98.12 seconds =       1.64 minutes
	total time  =         17 seconds =       0.28 minutes

    			-----------------------------------------

    			 OPTKING 3.0: for geometry optimizations

    			     By R.A. King, Bethel University

    			        with contributions from

    			    A.V. Copan, J. Cayton, A. Heide

    			-----------------------------------------

	                            ===> Fragment 1 <==

	 Z (Atomic Numbers)          Masses                          Geom
	       3.000000             7.016003          0.00000000  0.00000000  5.74978613
	       8.000000            15.994915          0.00000000  0.00000000 -2.52208406

	 - Coordinate -           - BOHR/RAD -       - ANG/DEG -
	 R(1,2)           =         8.271870           4.377285

	        --- Internal Coordinate Step in ANG or DEG, aJ/ANG or AJ/DEG ---
	-------------------------------------------------------------------------------
	           Coordinate      Previous         Force          Change          New
	           ----------      --------        ------          ------        ------
	               R(1,2)       4.37729        0.00165        0.00145       4.37874
	-------------------------------------------------------------------------------

	                                 ==> Convergence Check <==

	Measures of convergence in internal coordinates in au.

	Criteria marked as inactive (o), active & met (*), and active & unmet ( ).

	----------------------------------------------------------------------------------------------
	   Step    Total Energy     Delta E     Max Force     RMS Force      Max Disp      RMS Disp
	----------------------------------------------------------------------------------------------
	  Convergence Criteria     1.00e-06 *    3.00e-04 *             o    1.20e-03 *             o
	----------------------------------------------------------------------------------------------
	    22     -82.54680341   -6.09e-07 *    2.00e-04 *    2.00e-04 o    2.75e-03      2.75e-03 o  ~
	----------------------------------------------------------------------------------------------

Next Geometry in Ang
	Fragment 1 (Ang)

	   Li   0.0000000000   0.0000000000   3.0433827145
	    O   0.0000000000   0.0000000000  -1.3353563369

    Final optimized geometry and variables:
    Molecular point group: c2v
    Full point group: C_inf_v

    Geometry (in Angstrom), charge = -1, multiplicity = 5:

    LI           0.000000000000     0.000000000000     3.042655787601
    O            0.000000000000     0.000000000000    -1.334629410030

    Psi4 stopped on: Thursday, 17 July 2025 09:30AM
    Psi4 wall time for execution: 0:00:16.96

*** Psi4 exiting successfully. Buy a developer a beer!
