                               Psi4 1.9.1 release

  ==> Input File <==

--------------------------------------------------------------------------
molecule {
-1 5
O   0.00000        0.60000        0.00000
Al   0.00000       -0.60000        0.00000
}

set {
basis              cc-pvdz
reference          uks
maxiter            500
geom_maxiter       500
DAMPING_PERCENTAGE 1
guess              SAP
}

optimize('b3lyp')
--------------------------------------------------------------------------

    Molecular point group: c2v
  Charge       = -1
  Multiplicity = 5
  Basis Set: CC-PVDZ
    Blend: CC-PVDZ
  Basis Set: (CC-PVDZ AUX)
    Blend: CC-PVDZ-JKFIT
  @DF-UKS Final Energy:  -317.07443267574325
    Total Energy =                       -317.0744326757432532
 Dipole X            :          0.0000000            0.0000000            0.0000000
 Dipole Y            :          0.0000000            0.0000000            0.0000000
 Dipole Z            :          0.7988037            0.4178188            1.2166225
 Magnitude           :                                                    1.2166225
    Molecular point group: c2v
  Basis Set: CC-PVDZ
    Blend: CC-PVDZ
  Basis Set: (CC-PVDZ AUX)
    Blend: CC-PVDZ-JKFIT
  Basis Set: CC-PVDZ
    Blend: CC-PVDZ
  Basis Set: (CC-PVDZ AUX)
    Blend: CC-PVDZ-JKFIT
  @DF-UKS Final Energy:  -317.26661634743436
    Total Energy =                       -317.2666163474344216
  Basis Set: CC-PVDZ
    Blend: CC-PVDZ
  Basis Set: (CC-PVDZ AUX)
    Blend: CC-PVDZ-JKFIT
  Basis Set: CC-PVDZ
    Blend: CC-PVDZ
  @DF-UKS Final Energy:  -317.36594046052102
    Total Energy =                       -317.3659404605210170
  @DF-UKS Final Energy:  -317.40260702906562
    Total Energy =                       -317.4026070290656207
  @DF-UKS Final Energy:  -317.42446013908113
    Total Energy =                       -317.4244601390811340
  @DF-UKS Final Energy:  -317.43503684953521
    Total Energy =                       -317.4350368495352086
  @DF-UKS Final Energy:  -317.43812787833224
    Total Energy =                       -317.4381278783322387
  @DF-UKS Final Energy:  -317.43936997541118
    Total Energy =                       -317.4393699754111253
  @DF-UKS Final Energy:  -317.43969256391995
    Total Energy =                       -317.4396925639199480
  @DF-UKS Final Energy:  -317.43979838310941
    Total Energy =                       -317.4397983831093484
  Basis Set: (CC-PVDZ AUX)
    Blend: CC-PVDZ-JKFIT
  Basis Set: CC-PVDZ
    Blend: CC-PVDZ
  Basis Set: (CC-PVDZ AUX)
    Blend: CC-PVDZ-JKFIT
  @DF-UKS Final Energy:  -317.43981836026728
    Total Energy =                       -317.4398183602673384
  Basis Set: CC-PVDZ
    Blend: CC-PVDZ
  Basis Set: (CC-PVDZ AUX)
    Blend: CC-PVDZ-JKFIT
  Charge       = -1
  Multiplicity = 5
  Basis Set: CC-PVDZ
    Blend: CC-PVDZ
  Basis Set: (CC-PVDZ AUX)
    Blend: CC-PVDZ-JKFIT

    Orbital Energies [Eh]
    ---------------------

    Alpha Occupied:

       1A1   -55.893305     2A1   -18.940040     3A1    -3.969281
       4A1    -2.524207     1B2    -2.521695     1B1    -2.521695
       5A1    -0.716582     6A1    -0.230335     2B1    -0.108002
       2B2    -0.108002     7A1    -0.092443     3B1     0.071943
       3B2     0.071943

    Alpha Virtual:

       8A1     0.196458     9A1     0.338560     4B1     0.384520
       4B2     0.384520    10A1     0.437191    11A1     0.443107
       1A2     0.443108     5B1     0.501501     5B2     0.501501
      12A1     0.653193    13A1     1.175489     6B1     1.220123
       6B2     1.220123    14A1     1.917373     7B1     2.812718
       7B2     2.812718     2A2     2.826574    15A1     2.826588
      16A1     2.930676

    Beta Occupied:

       1A1   -55.885714     2A1   -18.911910     3A1    -3.958308
       4A1    -2.515132     1B2    -2.510310     1B1    -2.510310
       5A1    -0.631273     2B1    -0.064355     2B2    -0.064355

    Beta Virtual:

       6A1    -0.023364     7A1     0.088313     3B2     0.188456
       3B1     0.188456     8A1     0.239832     9A1     0.385493
       4B1     0.439109     4B2     0.439109    10A1     0.497186
      11A1     0.530143     1A2     0.530144     5B2     0.575810
       5B1     0.575810    12A1     0.715976     6B1     1.247881
       6B2     1.247881    13A1     1.270069    14A1     1.963924
       2A2     2.854665    15A1     2.854683     7B1     2.897116
       7B2     2.897116    16A1     3.036384

    Final Occupation by Irrep:
             A1    A2    B1    B2
    DOCC [     5,    0,    2,    2 ]
    SOCC [     2,    0,    1,    1 ]
    NA   [     7,    0,    3,    3 ]
    NB   [     5,    0,    2,    2 ]

  @DF-UKS Final Energy:  -317.43981976980029

   => Energetics <=

    Nuclear Repulsion Energy =             29.7471214844219780
    One-Electron Energy =                -504.0576848390572309
    Two-Electron Energy =                 178.9509337317765585
    DFT Exchange-Correlation Energy =     -22.0801901469415505
    Empirical Dispersion Energy =           0.0000000000000000
    VV10 Nonlocal Energy =                  0.0000000000000000
    Total Energy =                       -317.4398197698002377

  UHF NO Occupations:
  HONO-2 :    3 B2 1.0000000
  HONO-1 :    7 A1 1.0000000
  HONO-0 :    3 B1 1.0000000
  LUNO+0 :    4 B2 0.0006614
  LUNO+1 :    4 B1 0.0006614
  LUNO+2 :    8 A1 0.0004829
  LUNO+3 :    9 A1 0.0000002

Computation Completed

Properties will be evaluated at   0.000000,   0.000000,   0.000000 [a0]

Properties computed using the SCF density matrix

 Multipole Moments:

 ------------------------------------------------------------------------------------
     Multipole            Electronic (a.u.)      Nuclear  (a.u.)        Total (a.u.)
 ------------------------------------------------------------------------------------

 L = 1.  Multiply by 2.5417464519 to convert [e a0] to [Debye]
 Dipole X            :          0.0000000            0.0000000            0.0000000
 Dipole Y            :          0.0000000            0.0000000            0.0000000
 Dipole Z            :         -0.2550109            0.6441637            0.3891529
 Magnitude           :                                                    0.3891529

 ------------------------------------------------------------------------------------

*** tstop() called on Joses-MacBook-Pro-2.local at Thu Jul 17 10:42:26 2025
Module time:
	user time   =       4.17 seconds =       0.07 minutes
	system time =       2.76 seconds =       0.05 minutes
	total time  =          1 seconds =       0.02 minutes
Total time:
	user time   =      58.51 seconds =       0.98 minutes
	system time =      65.96 seconds =       1.10 minutes
	total time  =         12 seconds =       0.20 minutes

*** tstart() called on Joses-MacBook-Pro-2.local
*** at Thu Jul 17 10:42:26 2025

         ------------------------------------------------------------
                                   SCF GRAD
                          Rob Parrish, Justin Turney,
                       Andy Simmonett, and Alex Sokolov
         ------------------------------------------------------------

  ==> Geometry <==

    Molecular point group: c2v
    Full point group: C_inf_v

    Geometry (in Angstrom), charge = -1, multiplicity = 5:

       Center              X                  Y                   Z               Mass
    ------------   -----------------  -----------------  -----------------  -----------------
         O            0.000000000000     0.000000000000     1.161517252442    15.994914619570
         AL           0.000000000000     0.000000000000    -0.688558558709    26.981538530000

  Nuclear repulsion =   29.747121484421978

  ==> Basis Set <==

  Basis Set: CC-PVDZ
    Blend: CC-PVDZ
    Number of shells: 14
    Number of basis functions: 32
    Number of Cartesian functions: 34
    Spherical Harmonics?: true
    Max angular momentum: 2

  ==> DFJKGrad: Density-Fitted SCF Gradients <==

    Gradient:                    1
    J tasked:                  Yes
    K tasked:                  Yes
    wK tasked:                  No
    OpenMP threads:              1
    Integrals threads:           1
    Memory [MiB]:              375
    Schwarz Cutoff:          1E-12
    Fitting Condition:       1E-10

   => Auxiliary Basis Set <=

  Basis Set: (CC-PVDZ AUX)
    Blend: CC-PVDZ-JKFIT
    Number of shells: 60
    Number of basis functions: 182
    Number of Cartesian functions: 211
    Spherical Harmonics?: true
    Max angular momentum: 3

  ==> DFT Potential <==

   => LibXC <=

    Version 6.2.2
    S. Lehtola, C. Steigemann, M. J.T. Oliveira, and M. A.L. Marques.,  SoftwareX 7, 1â€“5 (2018) (10.1016/j.softx.2017.11.002)

   => Composite Functional: B3LYP <=

    B3LYP Hyb-GGA Exchange-Correlation Functional

    P. J. Stephens, F. J. Devlin, C. F. Chabalowski, and M. J. Frisch.,  J. Phys. Chem. 98, 11623 (1994) (10.1021/j100096a001)

    Deriv               =              1
    GGA                 =           TRUE
    Meta                =          FALSE

    Exchange Hybrid     =           TRUE
    MP2 Hybrid          =          FALSE

   => Exchange Functionals <=

    0.0800   Slater exchange
    0.7200         Becke 88

   => Exact (HF) Exchange <=

    0.2000               HF

   => Correlation Functionals <=

    0.1900   Vosko, Wilk & Nusair (VWN5_RPA)
    0.8100   Lee, Yang & Parr

   => LibXC Density Thresholds  <==

    XC_HYB_GGA_XC_B3LYP:  1.00E-15

   => Molecular Quadrature <=

    Radial Scheme          =       TREUTLER
    Pruning Scheme         =           NONE
    Nuclear Scheme         =       TREUTLER

    Blocking Scheme        =         OCTREE
    BS radius alpha        =              1
    Pruning alpha          =              1
    Radial Points          =             75
    Spherical Points       =            302
    Total Points           =          43448
    Total Blocks           =            404
    Max Points             =            255
    Max Functions          =             32
    Weights Tolerance      =       1.00E-15

  -Total Gradient:
     Atom            X                  Y                   Z
    ------   -----------------  -----------------  -----------------
       1        0.000000000000     0.000000000000    -0.000131923318
       2        0.000000000000     0.000000000000     0.000114994248

*** tstop() called on Joses-MacBook-Pro-2.local at Thu Jul 17 10:42:26 2025
Module time:
	user time   =       0.94 seconds =       0.02 minutes
	system time =       1.43 seconds =       0.02 minutes
	total time  =          0 seconds =       0.00 minutes
Total time:
	user time   =      59.45 seconds =       0.99 minutes
	system time =      67.40 seconds =       1.12 minutes
	total time  =         12 seconds =       0.20 minutes

    			-----------------------------------------

    			 OPTKING 3.0: for geometry optimizations

    			     By R.A. King, Bethel University

    			        with contributions from

    			    A.V. Copan, J. Cayton, A. Heide

    			-----------------------------------------

	                            ===> Fragment 1 <==

	 Z (Atomic Numbers)          Masses                          Geom
	       8.000000            15.994915          0.00000000  0.00000000  2.19494950
	      13.000000            26.981539          0.00000000  0.00000000 -1.30118710

	 - Coordinate -           - BOHR/RAD -       - ANG/DEG -
	 R(1,2)           =         3.496137           1.850076

	        --- Internal Coordinate Step in ANG or DEG, aJ/ANG or AJ/DEG ---
	-------------------------------------------------------------------------------
	           Coordinate      Previous         Force          Change          New
	           ----------      --------        ------          ------        ------
	               R(1,2)       1.85008        0.00102        0.00045       1.85053
	-------------------------------------------------------------------------------

	                                 ==> Convergence Check <==

	Measures of convergence in internal coordinates in au.

	Criteria marked as inactive (o), active & met (*), and active & unmet ( ).

	----------------------------------------------------------------------------------------------
	   Step    Total Energy     Delta E     Max Force     RMS Force      Max Disp      RMS Disp
	----------------------------------------------------------------------------------------------
	  Convergence Criteria     1.00e-06 *    3.00e-04 *             o    1.20e-03 *             o
	----------------------------------------------------------------------------------------------
	    12    -317.43981977   -1.41e-06      1.23e-04 *    1.23e-04 o    8.52e-04 *    8.52e-04 o  ~
	----------------------------------------------------------------------------------------------

Next Geometry in Ang
	Fragment 1 (Ang)

	    O   0.0000000000   0.0000000000   1.1617427751
	   Al   0.0000000000   0.0000000000  -0.6887840813

    Final optimized geometry and variables:
    Molecular point group: c2v
    Full point group: C_inf_v

    Geometry (in Angstrom), charge = -1, multiplicity = 5:

    O            0.000000000000     0.000000000000     1.161517252442
    AL           0.000000000000     0.000000000000    -0.688558558709

    Psi4 stopped on: Thursday, 17 July 2025 10:42AM
    Psi4 wall time for execution: 0:00:13.53

*** Psi4 exiting successfully. Buy a developer a beer!
