                               Psi4 1.9.1 release

  ==> Input File <==

--------------------------------------------------------------------------
molecule {
-1 5
He   0.00000        0.60000        0.00000
Al   0.00000       -0.60000        0.00000
}

set {
basis              cc-pvdz
reference          uks
maxiter            500
geom_maxiter       500
DAMPING_PERCENTAGE 1
guess              SAP
}

optimize('b3lyp')
--------------------------------------------------------------------------

    Molecular point group: c2v
  Charge       = -1
  Multiplicity = 5
  Basis Set: CC-PVDZ
    Blend: CC-PVDZ
  Basis Set: (CC-PVDZ AUX)
    Blend: CC-PVDZ-JKFIT + DEF2-UNIVERSAL-JKFIT
  @DF-UKS Final Energy:  -244.98195083944881
    Total Energy =                       -244.9819508394488139
 Dipole X            :          0.0000000            0.0000000            0.0000000
 Dipole Y            :          0.0000000            0.0000000            0.0000000
 Dipole Z            :         -0.0464360            0.1411971            0.0947611
 Magnitude           :                                                    0.0947611
    Molecular point group: c2v
  Basis Set: CC-PVDZ
    Blend: CC-PVDZ
  Basis Set: (CC-PVDZ AUX)
    Blend: CC-PVDZ-JKFIT + DEF2-UNIVERSAL-JKFIT
  Basis Set: CC-PVDZ
    Blend: CC-PVDZ
  Basis Set: (CC-PVDZ AUX)
    Blend: CC-PVDZ-JKFIT + DEF2-UNIVERSAL-JKFIT
  @DF-UKS Final Energy:  -245.06980841142766
    Total Energy =                       -245.0698084114276583
  Basis Set: CC-PVDZ
    Blend: CC-PVDZ
  Basis Set: (CC-PVDZ AUX)
    Blend: CC-PVDZ-JKFIT + DEF2-UNIVERSAL-JKFIT
  Basis Set: CC-PVDZ
    Blend: CC-PVDZ
  @DF-UKS Final Energy:  -245.09111024684893
    Total Energy =                       -245.0911102468489275
  @DF-UKS Final Energy:  -245.12250986271965
    Total Energy =                       -245.1225098627196530
  @DF-UKS Final Energy:  -245.13384836447690
    Total Energy =                       -245.1338483644769326
  @DF-UKS Final Energy:  -245.15579042956492
    Total Energy =                       -245.1557904295649166
  @DF-UKS Final Energy:  -245.15980392627682
    Total Energy =                       -245.1598039262768225
  @DF-UKS Final Energy:  -245.16909118606222
    Total Energy =                       -245.1690911860622180
  @DF-UKS Final Energy:  -245.17026871935551
    Total Energy =                       -245.1702687193555050
  @DF-UKS Final Energy:  -245.17469561083840
    Total Energy =                       -245.1746956108383984
  @DF-UKS Final Energy:  -245.17503655177498
    Total Energy =                       -245.1750365517749799
  @DF-UKS Final Energy:  -245.17720828398942
    Total Energy =                       -245.1772082839894153
  @DF-UKS Final Energy:  -245.17730595924237
    Total Energy =                       -245.1773059592423465
  @DF-UKS Final Energy:  -245.17837196009521
    Total Energy =                       -245.1783719600951770
  @DF-UKS Final Energy:  -245.17839908645078
    Total Energy =                       -245.1783990864508098
  @DF-UKS Final Energy:  -245.17891253419575
    Total Energy =                       -245.1789125341957742
  @DF-UKS Final Energy:  -245.17891975276933
    Total Energy =                       -245.1789197527693034
  @DF-UKS Final Energy:  -245.17916240188842
    Total Energy =                       -245.1791624018884193
  @DF-UKS Final Energy:  -245.17916420155171
    Total Energy =                       -245.1791642015517141
  @DF-UKS Final Energy:  -245.17916597708231
    Total Energy =                       -245.1791659770823060
  @DF-UKS Final Energy:  -245.17916772605969
    Total Energy =                       -245.1791677260596884
  Basis Set: (CC-PVDZ AUX)
    Blend: CC-PVDZ-JKFIT + DEF2-UNIVERSAL-JKFIT
  Basis Set: CC-PVDZ
    Blend: CC-PVDZ
  Basis Set: (CC-PVDZ AUX)
    Blend: CC-PVDZ-JKFIT + DEF2-UNIVERSAL-JKFIT
  @DF-UKS Final Energy:  -245.17927549264391
    Total Energy =                       -245.1792754926438818
  Basis Set: CC-PVDZ
    Blend: CC-PVDZ
  Basis Set: (CC-PVDZ AUX)
    Blend: CC-PVDZ-JKFIT + DEF2-UNIVERSAL-JKFIT
  Charge       = -1
  Multiplicity = 5
  Basis Set: CC-PVDZ
    Blend: CC-PVDZ
  Basis Set: (CC-PVDZ AUX)
    Blend: CC-PVDZ-JKFIT + DEF2-UNIVERSAL-JKFIT

    Orbital Energies [Eh]
    ---------------------

    Alpha Occupied:

       1A1   -55.869165     2A1    -3.949228     1B2    -2.502433
       1B1    -2.502433     3A1    -2.502429     4A1    -0.538376
       5A1    -0.146509     2B1     0.049871     2B2     0.049871
       6A1     0.049990

    Alpha Virtual:

       7A1     0.332002     3B1     0.387771     3B2     0.387771
       8A1     0.388105     9A1     0.442608     4B1     0.442627
       4B2     0.442627    10A1     0.442640     1A2     0.442640
      11A1     1.234634     5B1     2.300557     5B2     2.300557
      12A1     2.302050

    Beta Occupied:

       1A1   -55.860180     2A1    -3.936341     1B1    -2.489697
       1B2    -2.489697     3A1    -2.489677     4A1    -0.538299

    Beta Virtual:

       5A1     0.028517     6A1     0.189714     2B1     0.191211
       2B2     0.191211     7A1     0.398276     8A1     0.454075
       3B2     0.455389     3B1     0.455389     4B1     0.554471
       4B2     0.554471     9A1     0.554923    10A1     0.555120
       1A2     0.555122    11A1     1.234729     5B1     2.300609
       5B2     2.300609    12A1     2.302141

    Final Occupation by Irrep:
             A1    A2    B1    B2
    DOCC [     4,    0,    1,    1 ]
    SOCC [     2,    0,    1,    1 ]
    NA   [     6,    0,    2,    2 ]
    NB   [     4,    0,    1,    1 ]

  @DF-UKS Final Energy:  -245.17927589872133

   => Energetics <=

    Nuclear Repulsion Energy =              2.9094287140349606
    One-Electron Energy =                -349.1058595570572152
    Two-Electron Energy =                 117.0052386338883963
    DFT Exchange-Correlation Energy =     -15.9880836895874729
    Empirical Dispersion Energy =           0.0000000000000000
    VV10 Nonlocal Energy =                  0.0000000000000000
    Total Energy =                       -245.1792758987213574

  UHF NO Occupations:
  HONO-2 :    6 A1 1.0000000
  HONO-1 :    2 B2 1.0000000
  HONO-0 :    2 B1 1.0000000
  LUNO+0 :    7 A1 0.0000002
  LUNO+1 :    3 B2 0.0000002
  LUNO+2 :    3 B1 0.0000002
  LUNO+3 :    8 A1 0.0000000

Computation Completed

Properties will be evaluated at   0.000000,   0.000000,   0.000000 [a0]

Properties computed using the SCF density matrix

 Multipole Moments:

 ------------------------------------------------------------------------------------
     Multipole            Electronic (a.u.)      Nuclear  (a.u.)        Total (a.u.)
 ------------------------------------------------------------------------------------

 L = 1.  Multiply by 2.5417464519 to convert [e a0] to [Debye]
 Dipole X            :          0.0000000            0.0000000            0.0000000
 Dipole Y            :          0.0000000            0.0000000            0.0000000
 Dipole Z            :          0.5982381            0.5564309            1.1546690
 Magnitude           :                                                    1.1546690

 ------------------------------------------------------------------------------------

*** tstop() called on Joses-MacBook-Pro-2.local at Thu Jul 17 09:23:07 2025
Module time:
	user time   =       1.84 seconds =       0.03 minutes
	system time =       2.74 seconds =       0.05 minutes
	total time  =          1 seconds =       0.02 minutes
Total time:
	user time   =      79.65 seconds =       1.33 minutes
	system time =      94.29 seconds =       1.57 minutes
	total time  =         17 seconds =       0.28 minutes

*** tstart() called on Joses-MacBook-Pro-2.local
*** at Thu Jul 17 09:23:07 2025

         ------------------------------------------------------------
                                   SCF GRAD
                          Rob Parrish, Justin Turney,
                       Andy Simmonett, and Alex Sokolov
         ------------------------------------------------------------

  ==> Geometry <==

    Molecular point group: c2v
    Full point group: C_inf_v

    Geometry (in Angstrom), charge = -1, multiplicity = 5:

       Center              X                  Y                   Z               Mass
    ------------   -----------------  -----------------  -----------------  -----------------
         HE           0.000000000000     0.000000000000     4.118072601152     4.002603254130
         AL           0.000000000000     0.000000000000    -0.610899588835    26.981538530000

  Nuclear repulsion =    2.909428714034961

  ==> Basis Set <==

  Basis Set: CC-PVDZ
    Blend: CC-PVDZ
    Number of shells: 11
    Number of basis functions: 23
    Number of Cartesian functions: 24
    Spherical Harmonics?: true
    Max angular momentum: 2

  ==> DFJKGrad: Density-Fitted SCF Gradients <==

    Gradient:                    1
    J tasked:                  Yes
    K tasked:                  Yes
    wK tasked:                  No
    OpenMP threads:              1
    Integrals threads:           1
    Memory [MiB]:              375
    Schwarz Cutoff:          1E-12
    Fitting Condition:       1E-10

   => Auxiliary Basis Set <=

  Basis Set: (CC-PVDZ AUX)
    Blend: CC-PVDZ-JKFIT + DEF2-UNIVERSAL-JKFIT
    Number of shells: 45
    Number of basis functions: 135
    Number of Cartesian functions: 155
    Spherical Harmonics?: true
    Max angular momentum: 3

  ==> DFT Potential <==

   => LibXC <=

    Version 6.2.2
    S. Lehtola, C. Steigemann, M. J.T. Oliveira, and M. A.L. Marques.,  SoftwareX 7, 1â€“5 (2018) (10.1016/j.softx.2017.11.002)

   => Composite Functional: B3LYP <=

    B3LYP Hyb-GGA Exchange-Correlation Functional

    P. J. Stephens, F. J. Devlin, C. F. Chabalowski, and M. J. Frisch.,  J. Phys. Chem. 98, 11623 (1994) (10.1021/j100096a001)

    Deriv               =              1
    GGA                 =           TRUE
    Meta                =          FALSE

    Exchange Hybrid     =           TRUE
    MP2 Hybrid          =          FALSE

   => Exchange Functionals <=

    0.0800   Slater exchange
    0.7200         Becke 88

   => Exact (HF) Exchange <=

    0.2000               HF

   => Correlation Functionals <=

    0.1900   Vosko, Wilk & Nusair (VWN5_RPA)
    0.8100   Lee, Yang & Parr

   => LibXC Density Thresholds  <==

    XC_HYB_GGA_XC_B3LYP:  1.00E-15

   => Molecular Quadrature <=

    Radial Scheme          =       TREUTLER
    Pruning Scheme         =           NONE
    Nuclear Scheme         =       TREUTLER

    Blocking Scheme        =         OCTREE
    BS radius alpha        =              1
    Pruning alpha          =              1
    Radial Points          =             75
    Spherical Points       =            302
    Total Points           =          43610
    Total Blocks           =            442
    Max Points             =            255
    Max Functions          =             23
    Weights Tolerance      =       1.00E-15

  -Total Gradient:
     Atom            X                  Y                   Z
    ------   -----------------  -----------------  -----------------
       1        0.000000000000     0.000000000000    -0.000144449491
       2        0.000000000000    -0.000000000000     0.000130062372

*** tstop() called on Joses-MacBook-Pro-2.local at Thu Jul 17 09:23:07 2025
Module time:
	user time   =       0.55 seconds =       0.01 minutes
	system time =       1.16 seconds =       0.02 minutes
	total time  =          0 seconds =       0.00 minutes
Total time:
	user time   =      80.20 seconds =       1.34 minutes
	system time =      95.46 seconds =       1.59 minutes
	total time  =         17 seconds =       0.28 minutes

    			-----------------------------------------

    			 OPTKING 3.0: for geometry optimizations

    			     By R.A. King, Bethel University

    			        with contributions from

    			    A.V. Copan, J. Cayton, A. Heide

    			-----------------------------------------

	                            ===> Fragment 1 <==

	 Z (Atomic Numbers)          Masses                          Geom
	       2.000000             4.002603          0.00000000  0.00000000  7.78202938
	      13.000000            26.981539          0.00000000  0.00000000 -1.15443291

	 - Coordinate -           - BOHR/RAD -       - ANG/DEG -
	 R(1,2)           =         8.936462           4.728972

	        --- Internal Coordinate Step in ANG or DEG, aJ/ANG or AJ/DEG ---
	-------------------------------------------------------------------------------
	           Coordinate      Previous         Force          Change          New
	           ----------      --------        ------          ------        ------
	               R(1,2)       4.72897        0.00113        0.00162       4.73060
	-------------------------------------------------------------------------------

	                                 ==> Convergence Check <==

	Measures of convergence in internal coordinates in au.

	Criteria marked as inactive (o), active & met (*), and active & unmet ( ).

	----------------------------------------------------------------------------------------------
	   Step    Total Energy     Delta E     Max Force     RMS Force      Max Disp      RMS Disp
	----------------------------------------------------------------------------------------------
	  Convergence Criteria     1.00e-06 *    3.00e-04 *             o    1.20e-03 *             o
	----------------------------------------------------------------------------------------------
	    23    -245.17927590   -4.06e-07 *    1.37e-04 *    1.37e-04 o    3.07e-03      3.07e-03 o  ~
	----------------------------------------------------------------------------------------------

Next Geometry in Ang
	Fragment 1 (Ang)

	   He   0.0000000000   0.0000000000   4.1188850121
	   Al   0.0000000000   0.0000000000  -0.6117119998

    Final optimized geometry and variables:
    Molecular point group: c2v
    Full point group: C_inf_v

    Geometry (in Angstrom), charge = -1, multiplicity = 5:

    HE           0.000000000000     0.000000000000     4.118072601152
    AL           0.000000000000     0.000000000000    -0.610899588835

    Psi4 stopped on: Thursday, 17 July 2025 09:23AM
    Psi4 wall time for execution: 0:00:17.35

*** Psi4 exiting successfully. Buy a developer a beer!
