                               Psi4 1.9.1 release

  ==> Input File <==

--------------------------------------------------------------------------
molecule {
-1 5
O   0.00000        0.60000        0.00000
Cl   0.00000       -0.60000        0.00000
}

set {
basis              cc-pvdz
reference          uks
maxiter            500
geom_maxiter       500
DAMPING_PERCENTAGE 1
guess              SAP
}

optimize('b3lyp')
--------------------------------------------------------------------------

    Molecular point group: c2v
  Charge       = -1
  Multiplicity = 5
  Basis Set: CC-PVDZ
    Blend: CC-PVDZ
  Basis Set: (CC-PVDZ AUX)
    Blend: CC-PVDZ-JKFIT
  @DF-UKS Final Energy:  -534.32092488407307
    Total Energy =                       -534.3209248840730652
 Dipole X            :          0.0000000            0.0000000            0.0000000
 Dipole Y            :          0.0000000            0.0000000            0.0000000
 Dipole Z            :          0.2219398            0.3487254            0.5706652
 Magnitude           :                                                    0.5706652
    Molecular point group: c2v
  Basis Set: CC-PVDZ
    Blend: CC-PVDZ
  Basis Set: (CC-PVDZ AUX)
    Blend: CC-PVDZ-JKFIT
  Basis Set: CC-PVDZ
    Blend: CC-PVDZ
  Basis Set: (CC-PVDZ AUX)
    Blend: CC-PVDZ-JKFIT
  @DF-UKS Final Energy:  -534.44942900526792
    Total Energy =                       -534.4494290052679162
  Basis Set: CC-PVDZ
    Blend: CC-PVDZ
  Basis Set: (CC-PVDZ AUX)
    Blend: CC-PVDZ-JKFIT
  Basis Set: CC-PVDZ
    Blend: CC-PVDZ
  @DF-UKS Final Energy:  -534.52810931178840
    Total Energy =                       -534.5281093117883984
  @DF-UKS Final Energy:  -534.56976788131396
    Total Energy =                       -534.5697678813139646
  @DF-UKS Final Energy:  -534.60425339072060
    Total Energy =                       -534.6042533907206007
  @DF-UKS Final Energy:  -534.62740096856396
    Total Energy =                       -534.6274009685639612
  @DF-UKS Final Energy:  -534.63999403332014
    Total Energy =                       -534.6399940333201357
  @DF-UKS Final Energy:  -534.64504156174644
    Total Energy =                       -534.6450415617464387
  @DF-UKS Final Energy:  -534.64710524040402
    Total Energy =                       -534.6471052404040165
  @DF-UKS Final Energy:  -534.64770380469963
    Total Energy =                       -534.6477038046996313
  @DF-UKS Final Energy:  -534.64797875748741
    Total Energy =                       -534.6479787574874081
  @DF-UKS Final Energy:  -534.64803524054798
    Total Energy =                       -534.6480352405479834
  Basis Set: (CC-PVDZ AUX)
    Blend: CC-PVDZ-JKFIT
  Basis Set: CC-PVDZ
    Blend: CC-PVDZ
  Basis Set: (CC-PVDZ AUX)
    Blend: CC-PVDZ-JKFIT
  @DF-UKS Final Energy:  -534.64804700594493
    Total Energy =                       -534.6480470059449317
  Basis Set: CC-PVDZ
    Blend: CC-PVDZ
  Basis Set: (CC-PVDZ AUX)
    Blend: CC-PVDZ-JKFIT
  Charge       = -1
  Multiplicity = 5
  Basis Set: CC-PVDZ
    Blend: CC-PVDZ
  Basis Set: (CC-PVDZ AUX)
    Blend: CC-PVDZ-JKFIT

    Orbital Energies [Eh]
    ---------------------

    Alpha Occupied:

       1A1  -101.213381     2A1   -18.968582     3A1    -9.155433
       1B2    -6.922267     4A1    -6.911731     1B1    -6.905708
       5A1    -0.713281     6A1    -0.551373     7A1    -0.163150
       2B1    -0.157828     2B2    -0.119359     3B2    -0.081159
       3B1    -0.066686     8A1    -0.036496     4B2     0.683142

    Alpha Virtual:

       9A1     0.781818     4B1     0.782257    10A1     0.875364
      11A1     0.929519     5B2     0.945942     5B1     0.963088
       1A2     0.970831    12A1     0.976206     6B1     1.126244
       6B2     1.159075    13A1     1.192743    14A1     1.638843
       7B1     2.747895    15A1     2.762264     2A2     2.781208
       7B2     2.800847    16A1     2.829270

    Beta Occupied:

       1A1  -101.196885     2A1   -18.923611     3A1    -9.139359
       4A1    -6.895960     1B1    -6.895442     1B2    -6.876892
       5A1    -0.579228     6A1    -0.465768     7A1    -0.056034
       2B1    -0.042177     2B2    -0.033104

    Beta Virtual:

       3B2     0.082313     3B1     0.111850     8A1     0.132781
       4B1     0.809447     9A1     0.825217     4B2     0.844609
      10A1     0.929004    11A1     0.989079     5B1     1.002540
       5B2     1.027667     1A2     1.043318    12A1     1.053152
       6B2     1.201851     6B1     1.225507    13A1     1.268239
      14A1     1.714106     2A2     2.874331     7B2     2.875482
      15A1     2.882193     7B1     2.892009    16A1     2.923745

    Final Occupation by Irrep:
             A1    A2    B1    B2
    DOCC [     7,    0,    2,    2 ]
    SOCC [     1,    0,    1,    2 ]
    NA   [     8,    0,    3,    4 ]
    NB   [     7,    0,    2,    2 ]

  @DF-UKS Final Energy:  -534.64804753660985

   => Energetics <=

    Nuclear Repulsion Energy =             30.4541436756678543
    One-Electron Energy =                -806.5469040206534146
    Two-Electron Energy =                 271.3001858447851191
    DFT Exchange-Correlation Energy =     -29.8554730364093857
    Empirical Dispersion Energy =           0.0000000000000000
    VV10 Nonlocal Energy =                  0.0000000000000000
    Total Energy =                       -534.6480475366098517

  UHF NO Occupations:
  HONO-2 :    8 A1 1.0000000
  HONO-1 :    3 B2 1.0000000
  HONO-0 :    4 B2 1.0000000
  LUNO+0 :    9 A1 0.0014483
  LUNO+1 :   10 A1 0.0008278
  LUNO+2 :   11 A1 0.0004830
  LUNO+3 :    5 B2 0.0003578

Computation Completed

Properties will be evaluated at   0.000000,   0.000000,   0.000000 [a0]

Properties computed using the SCF density matrix

 Multipole Moments:

 ------------------------------------------------------------------------------------
     Multipole            Electronic (a.u.)      Nuclear  (a.u.)        Total (a.u.)
 ------------------------------------------------------------------------------------

 L = 1.  Multiply by 2.5417464519 to convert [e a0] to [Debye]
 Dipole X            :          0.0000000            0.0000000            0.0000000
 Dipole Y            :          0.0000000            0.0000000            0.0000000
 Dipole Z            :         -0.4470865            0.6867457            0.2396592
 Magnitude           :                                                    0.2396592

 ------------------------------------------------------------------------------------

*** tstop() called on Joses-MacBook-Pro-2.local at Thu Jul 17 10:48:38 2025
Module time:
	user time   =       2.63 seconds =       0.04 minutes
	system time =       5.08 seconds =       0.08 minutes
	total time  =          1 seconds =       0.02 minutes
Total time:
	user time   =      70.29 seconds =       1.17 minutes
	system time =      88.77 seconds =       1.48 minutes
	total time  =         16 seconds =       0.27 minutes

*** tstart() called on Joses-MacBook-Pro-2.local
*** at Thu Jul 17 10:48:38 2025

         ------------------------------------------------------------
                                   SCF GRAD
                          Rob Parrish, Justin Turney,
                       Andy Simmonett, and Alex Sokolov
         ------------------------------------------------------------

  ==> Geometry <==

    Molecular point group: c2v
    Full point group: C_inf_v

    Geometry (in Angstrom), charge = -1, multiplicity = 5:

       Center              X                  Y                   Z               Mass
    ------------   -----------------  -----------------  -----------------  -----------------
         O            0.000000000000     0.000000000000     1.621487138465    15.994914619570
         CL           0.000000000000     0.000000000000    -0.741675701297    34.968852682000

  Nuclear repulsion =   30.454143675667854

  ==> Basis Set <==

  Basis Set: CC-PVDZ
    Blend: CC-PVDZ
    Number of shells: 14
    Number of basis functions: 32
    Number of Cartesian functions: 34
    Spherical Harmonics?: true
    Max angular momentum: 2

  ==> DFJKGrad: Density-Fitted SCF Gradients <==

    Gradient:                    1
    J tasked:                  Yes
    K tasked:                  Yes
    wK tasked:                  No
    OpenMP threads:              1
    Integrals threads:           1
    Memory [MiB]:              375
    Schwarz Cutoff:          1E-12
    Fitting Condition:       1E-10

   => Auxiliary Basis Set <=

  Basis Set: (CC-PVDZ AUX)
    Blend: CC-PVDZ-JKFIT
    Number of shells: 60
    Number of basis functions: 182
    Number of Cartesian functions: 211
    Spherical Harmonics?: true
    Max angular momentum: 3

  ==> DFT Potential <==

   => LibXC <=

    Version 6.2.2
    S. Lehtola, C. Steigemann, M. J.T. Oliveira, and M. A.L. Marques.,  SoftwareX 7, 1â€“5 (2018) (10.1016/j.softx.2017.11.002)

   => Composite Functional: B3LYP <=

    B3LYP Hyb-GGA Exchange-Correlation Functional

    P. J. Stephens, F. J. Devlin, C. F. Chabalowski, and M. J. Frisch.,  J. Phys. Chem. 98, 11623 (1994) (10.1021/j100096a001)

    Deriv               =              1
    GGA                 =           TRUE
    Meta                =          FALSE

    Exchange Hybrid     =           TRUE
    MP2 Hybrid          =          FALSE

   => Exchange Functionals <=

    0.0800   Slater exchange
    0.7200         Becke 88

   => Exact (HF) Exchange <=

    0.2000               HF

   => Correlation Functionals <=

    0.1900   Vosko, Wilk & Nusair (VWN5_RPA)
    0.8100   Lee, Yang & Parr

   => LibXC Density Thresholds  <==

    XC_HYB_GGA_XC_B3LYP:  1.00E-15

   => Molecular Quadrature <=

    Radial Scheme          =       TREUTLER
    Pruning Scheme         =           NONE
    Nuclear Scheme         =       TREUTLER

    Blocking Scheme        =         OCTREE
    BS radius alpha        =              1
    Pruning alpha          =              1
    Radial Points          =             75
    Spherical Points       =            302
    Total Points           =          41432
    Total Blocks           =            371
    Max Points             =            255
    Max Functions          =             32
    Weights Tolerance      =       1.00E-15

  -Total Gradient:
     Atom            X                  Y                   Z
    ------   -----------------  -----------------  -----------------
       1        0.000000000000     0.000000000000    -0.000021572242
       2        0.000000000000    -0.000000000000     0.000023971414

*** tstop() called on Joses-MacBook-Pro-2.local at Thu Jul 17 10:48:38 2025
Module time:
	user time   =       0.57 seconds =       0.01 minutes
	system time =       1.79 seconds =       0.03 minutes
	total time  =          0 seconds =       0.00 minutes
Total time:
	user time   =      70.86 seconds =       1.18 minutes
	system time =      90.56 seconds =       1.51 minutes
	total time  =         16 seconds =       0.27 minutes

    			-----------------------------------------

    			 OPTKING 3.0: for geometry optimizations

    			     By R.A. King, Bethel University

    			        with contributions from

    			    A.V. Copan, J. Cayton, A. Heide

    			-----------------------------------------

	                            ===> Fragment 1 <==

	 Z (Atomic Numbers)          Masses                          Geom
	       8.000000            15.994915          0.00000000  0.00000000  3.06416661
	      17.000000            34.968853          0.00000000  0.00000000 -1.40156395

	 - Coordinate -           - BOHR/RAD -       - ANG/DEG -
	 R(1,2)           =         4.465731           2.363163

	        --- Internal Coordinate Step in ANG or DEG, aJ/ANG or AJ/DEG ---
	-------------------------------------------------------------------------------
	           Coordinate      Previous         Force          Change          New
	           ----------      --------        ------          ------        ------
	               R(1,2)       2.36316        0.00019        0.00072       2.36389
	-------------------------------------------------------------------------------

	                                 ==> Convergence Check <==

	Measures of convergence in internal coordinates in au.

	Criteria marked as inactive (o), active & met (*), and active & unmet ( ).

	----------------------------------------------------------------------------------------------
	   Step    Total Energy     Delta E     Max Force     RMS Force      Max Disp      RMS Disp
	----------------------------------------------------------------------------------------------
	  Convergence Criteria     1.00e-06 *    3.00e-04 *             o    1.20e-03 *             o
	----------------------------------------------------------------------------------------------
	    14    -534.64804754   -5.31e-07 *    2.28e-05 *    2.28e-05 o    1.37e-03      1.37e-03 o  ~
	----------------------------------------------------------------------------------------------

Next Geometry in Ang
	Fragment 1 (Ang)

	    O   0.0000000000   0.0000000000   1.6218486632
	   Cl   0.0000000000   0.0000000000  -0.7420372260

    Final optimized geometry and variables:
    Molecular point group: c2v
    Full point group: C_inf_v

    Geometry (in Angstrom), charge = -1, multiplicity = 5:

    O            0.000000000000     0.000000000000     1.621487138465
    CL           0.000000000000     0.000000000000    -0.741675701297

    Psi4 stopped on: Thursday, 17 July 2025 10:48AM
    Psi4 wall time for execution: 0:00:17.13

*** Psi4 exiting successfully. Buy a developer a beer!
