                               Psi4 1.9.1 release

  ==> Input File <==

--------------------------------------------------------------------------
molecule {
-1 5
Li   0.00000        0.60000        0.00000
Be   0.00000       -0.60000        0.00000
}

set {
basis              cc-pvdz
reference          uks
maxiter            500
geom_maxiter       500
DAMPING_PERCENTAGE 1
guess              SAP
}

optimize('b3lyp')
--------------------------------------------------------------------------

    Molecular point group: c2v
  Charge       = -1
  Multiplicity = 5
  Basis Set: CC-PVDZ
    Blend: CC-PVDZ
  Basis Set: (CC-PVDZ AUX)
    Blend: DEF2-UNIVERSAL-JKFIT
  @DF-UKS Final Energy:   -21.93460984512530
    Total Energy =                        -21.9346098451253013
 Dipole X            :          0.0000000            0.0000000            0.0000000
 Dipole Y            :          0.0000000            0.0000000            0.0000000
 Dipole Z            :         -1.7675610           -0.1453659           -1.9129269
 Magnitude           :                                                    1.9129269
    Molecular point group: c2v
  Basis Set: CC-PVDZ
    Blend: CC-PVDZ
  Basis Set: (CC-PVDZ AUX)
    Blend: DEF2-UNIVERSAL-JKFIT
  Basis Set: CC-PVDZ
    Blend: CC-PVDZ
  Basis Set: (CC-PVDZ AUX)
    Blend: DEF2-UNIVERSAL-JKFIT
  @DF-UKS Final Energy:   -21.98208481237993
    Total Energy =                        -21.9820848123799344
  Basis Set: CC-PVDZ
    Blend: CC-PVDZ
  Basis Set: (CC-PVDZ AUX)
    Blend: DEF2-UNIVERSAL-JKFIT
  Basis Set: CC-PVDZ
    Blend: CC-PVDZ
  @DF-UKS Final Energy:   -22.05175577535003
    Total Energy =                        -22.0517557753500313
  @DF-UKS Final Energy:   -22.08234209289215
    Total Energy =                        -22.0823420928921550
  @DF-UKS Final Energy:   -22.09827297754630
    Total Energy =                        -22.0982729775463049
  @DF-UKS Final Energy:   -22.10382276268569
    Total Energy =                        -22.1038227626856845
  @DF-UKS Final Energy:   -22.10545245941183
    Total Energy =                        -22.1054524594118256
  @DF-UKS Final Energy:   -22.10575300731166
    Total Energy =                        -22.1057530073116553
  @DF-UKS Final Energy:   -22.10577578422611
    Total Energy =                        -22.1057757842261147
  Basis Set: (CC-PVDZ AUX)
    Blend: DEF2-UNIVERSAL-JKFIT
  Basis Set: CC-PVDZ
    Blend: CC-PVDZ
  Basis Set: (CC-PVDZ AUX)
    Blend: DEF2-UNIVERSAL-JKFIT
  @DF-UKS Final Energy:   -22.10577761745798
    Total Energy =                        -22.1057776174579850
  Basis Set: CC-PVDZ
    Blend: CC-PVDZ
  Basis Set: (CC-PVDZ AUX)
    Blend: DEF2-UNIVERSAL-JKFIT
  Charge       = -1
  Multiplicity = 5
  Basis Set: CC-PVDZ
    Blend: CC-PVDZ
  Basis Set: (CC-PVDZ AUX)
    Blend: DEF2-UNIVERSAL-JKFIT

    Orbital Energies [Eh]
    ---------------------

    Alpha Occupied:

       1A1    -3.907817     2A1    -1.857638     3A1    -0.114825
       4A1     0.015382     1B1     0.032956     1B2     0.032956

    Alpha Virtual:

       5A1     0.076688     2B2     0.121700     2B1     0.121700
       6A1     0.135313     7A1     0.202168     3B2     0.202679
       3B1     0.202679     8A1     0.323147     9A1     0.331522
       4B1     0.348917     4B2     0.348917    10A1     0.361427
       1A2     0.361427     5B1     0.408153     5B2     0.408153
      11A1     0.458436    12A1     0.623204    13A1     0.646271
       2A2     0.646271     6B1     0.765607     6B2     0.765607
      14A1     0.931732

    Beta Occupied:

       1A1    -3.889449     2A1    -1.850591

    Beta Virtual:

       3A1     0.049052     4A1     0.098559     1B1     0.127705
       1B2     0.127705     5A1     0.160406     6A1     0.167721
       2B1     0.196097     2B2     0.196097     7A1     0.225541
       3B1     0.240062     3B2     0.240062     8A1     0.374592
       9A1     0.385081     4B1     0.405338     4B2     0.405338
      10A1     0.419419     1A2     0.419426     5B1     0.471318
       5B2     0.471318    11A1     0.524262    12A1     0.673352
       2A2     0.758799    13A1     0.759103     6B1     0.862090
       6B2     0.862090    14A1     0.999889

    Final Occupation by Irrep:
             A1    A2    B1    B2
    DOCC [     2,    0,    0,    0 ]
    SOCC [     2,    0,    1,    1 ]
    NA   [     4,    0,    1,    1 ]
    NB   [     2,    0,    0,    0 ]

  @DF-UKS Final Energy:   -22.10577776520418

   => Energetics <=

    Nuclear Repulsion Energy =              2.6437266739642484
    One-Electron Energy =                 -35.1713030834210656
    Two-Electron Energy =                  14.2860628164820476
    DFT Exchange-Correlation Energy =      -3.8642641722294115
    Empirical Dispersion Energy =           0.0000000000000000
    VV10 Nonlocal Energy =                  0.0000000000000000
    Total Energy =                        -22.1057777652041842

  UHF NO Occupations:
  HONO-2 :    3 A1 1.0000000
  HONO-1 :    1 B2 1.0000000
  HONO-0 :    4 A1 1.0000000
  LUNO+0 :    5 A1 0.0000005
  LUNO+1 :    6 A1 0.0000001
  LUNO+2 :    7 A1 0.0000000
  LUNO+3 :    8 A1 0.0000000

Computation Completed

Properties will be evaluated at   0.000000,   0.000000,   0.000000 [a0]

Properties computed using the SCF density matrix

 Multipole Moments:

 ------------------------------------------------------------------------------------
     Multipole            Electronic (a.u.)      Nuclear  (a.u.)        Total (a.u.)
 ------------------------------------------------------------------------------------

 L = 1.  Multiply by 2.5417464519 to convert [e a0] to [Debye]
 Dipole X            :          0.0000000            0.0000000            0.0000000
 Dipole Y            :          0.0000000            0.0000000            0.0000000
 Dipole Z            :          0.0358657           -0.2909693           -0.2551036
 Magnitude           :                                                    0.2551036

 ------------------------------------------------------------------------------------

*** tstop() called on Joses-MacBook-Pro-2.local at Thu Jul 17 09:27:53 2025
Module time:
	user time   =       3.43 seconds =       0.06 minutes
	system time =       2.73 seconds =       0.05 minutes
	total time  =          1 seconds =       0.02 minutes
Total time:
	user time   =      48.50 seconds =       0.81 minutes
	system time =      53.31 seconds =       0.89 minutes
	total time  =         10 seconds =       0.17 minutes

*** tstart() called on Joses-MacBook-Pro-2.local
*** at Thu Jul 17 09:27:53 2025

         ------------------------------------------------------------
                                   SCF GRAD
                          Rob Parrish, Justin Turney,
                       Andy Simmonett, and Alex Sokolov
         ------------------------------------------------------------

  ==> Geometry <==

    Molecular point group: c2v
    Full point group: C_inf_v

    Geometry (in Angstrom), charge = -1, multiplicity = 5:

       Center              X                  Y                   Z               Mass
    ------------   -----------------  -----------------  -----------------  -----------------
         LI           0.000000000000     0.000000000000     1.350552414713     7.016003436600
         BE           0.000000000000     0.000000000000    -1.051407890252     9.012183065000

  Nuclear repulsion =    2.643726673964248

  ==> Basis Set <==

  Basis Set: CC-PVDZ
    Blend: CC-PVDZ
    Number of shells: 12
    Number of basis functions: 28
    Number of Cartesian functions: 30
    Spherical Harmonics?: true
    Max angular momentum: 2

  ==> DFJKGrad: Density-Fitted SCF Gradients <==

    Gradient:                    1
    J tasked:                  Yes
    K tasked:                  Yes
    wK tasked:                  No
    OpenMP threads:              1
    Integrals threads:           1
    Memory [MiB]:              375
    Schwarz Cutoff:          1E-12
    Fitting Condition:       1E-10

   => Auxiliary Basis Set <=

  Basis Set: (CC-PVDZ AUX)
    Blend: DEF2-UNIVERSAL-JKFIT
    Number of shells: 34
    Number of basis functions: 102
    Number of Cartesian functions: 120
    Spherical Harmonics?: true
    Max angular momentum: 3

  ==> DFT Potential <==

   => LibXC <=

    Version 6.2.2
    S. Lehtola, C. Steigemann, M. J.T. Oliveira, and M. A.L. Marques.,  SoftwareX 7, 1â€“5 (2018) (10.1016/j.softx.2017.11.002)

   => Composite Functional: B3LYP <=

    B3LYP Hyb-GGA Exchange-Correlation Functional

    P. J. Stephens, F. J. Devlin, C. F. Chabalowski, and M. J. Frisch.,  J. Phys. Chem. 98, 11623 (1994) (10.1021/j100096a001)

    Deriv               =              1
    GGA                 =           TRUE
    Meta                =          FALSE

    Exchange Hybrid     =           TRUE
    MP2 Hybrid          =          FALSE

   => Exchange Functionals <=

    0.0800   Slater exchange
    0.7200         Becke 88

   => Exact (HF) Exchange <=

    0.2000               HF

   => Correlation Functionals <=

    0.1900   Vosko, Wilk & Nusair (VWN5_RPA)
    0.8100   Lee, Yang & Parr

   => LibXC Density Thresholds  <==

    XC_HYB_GGA_XC_B3LYP:  1.00E-15

   => Molecular Quadrature <=

    Radial Scheme          =       TREUTLER
    Pruning Scheme         =           NONE
    Nuclear Scheme         =       TREUTLER

    Blocking Scheme        =         OCTREE
    BS radius alpha        =              1
    Pruning alpha          =              1
    Radial Points          =             75
    Spherical Points       =            302
    Total Points           =          44165
    Total Blocks           =            438
    Max Points             =            255
    Max Functions          =             28
    Weights Tolerance      =       1.00E-15

  -Total Gradient:
     Atom            X                  Y                   Z
    ------   -----------------  -----------------  -----------------
       1       -0.000000000000    -0.000000000000    -0.000022888900
       2        0.000000000000    -0.000000000000     0.000023811201

*** tstop() called on Joses-MacBook-Pro-2.local at Thu Jul 17 09:27:53 2025
Module time:
	user time   =       0.54 seconds =       0.01 minutes
	system time =       1.23 seconds =       0.02 minutes
	total time  =          0 seconds =       0.00 minutes
Total time:
	user time   =      49.04 seconds =       0.82 minutes
	system time =      54.55 seconds =       0.91 minutes
	total time  =         10 seconds =       0.17 minutes

    			-----------------------------------------

    			 OPTKING 3.0: for geometry optimizations

    			     By R.A. King, Bethel University

    			        with contributions from

    			    A.V. Copan, J. Cayton, A. Heide

    			-----------------------------------------

	                            ===> Fragment 1 <==

	 Z (Atomic Numbers)          Masses                          Geom
	       3.000000             7.016003          0.00000000  0.00000000  2.55217418
	       4.000000             9.012183          0.00000000  0.00000000 -1.98687296

	 - Coordinate -           - BOHR/RAD -       - ANG/DEG -
	 R(1,2)           =         4.539047           2.401960

	        --- Internal Coordinate Step in ANG or DEG, aJ/ANG or AJ/DEG ---
	-------------------------------------------------------------------------------
	           Coordinate      Previous         Force          Change          New
	           ----------      --------        ------          ------        ------
	               R(1,2)       2.40196        0.00019        0.00056       2.40252
	-------------------------------------------------------------------------------

	                                 ==> Convergence Check <==

	Measures of convergence in internal coordinates in au.

	Criteria marked as inactive (o), active & met (*), and active & unmet ( ).

	----------------------------------------------------------------------------------------------
	   Step    Total Energy     Delta E     Max Force     RMS Force      Max Disp      RMS Disp
	----------------------------------------------------------------------------------------------
	  Convergence Criteria     1.00e-06 *    3.00e-04 *             o    1.20e-03 *             o
	----------------------------------------------------------------------------------------------
	    11     -22.10577777   -1.48e-07 *    2.34e-05 *    2.34e-05 o    1.06e-03 *    1.06e-03 o  ~
	----------------------------------------------------------------------------------------------

Next Geometry in Ang
	Fragment 1 (Ang)

	   Li   0.0000000000   0.0000000000   1.3508335317
	   Be   0.0000000000   0.0000000000  -1.0516890072

    Final optimized geometry and variables:
    Molecular point group: c2v
    Full point group: C_inf_v

    Geometry (in Angstrom), charge = -1, multiplicity = 5:

    LI           0.000000000000     0.000000000000     1.350552414713
    BE           0.000000000000     0.000000000000    -1.051407890252

    Psi4 stopped on: Thursday, 17 July 2025 09:27AM
    Psi4 wall time for execution: 0:00:10.72

*** Psi4 exiting successfully. Buy a developer a beer!
