                               Psi4 1.9.1 release

  ==> Input File <==

--------------------------------------------------------------------------
molecule {
-1 5
He   0.00000        0.60000        0.00000
Cl   0.00000       -0.60000        0.00000
}

set {
basis              cc-pvdz
reference          uks
maxiter            500
geom_maxiter       500
DAMPING_PERCENTAGE 1
guess              SAP
}

optimize('b3lyp')
--------------------------------------------------------------------------

    Molecular point group: c2v
  Charge       = -1
  Multiplicity = 5
  Basis Set: CC-PVDZ
    Blend: CC-PVDZ
  Basis Set: (CC-PVDZ AUX)
    Blend: CC-PVDZ-JKFIT + DEF2-UNIVERSAL-JKFIT
  @DF-UKS Final Energy:  -461.54386326020324
    Total Energy =                       -461.5438632602032385
 Dipole X            :          0.0000000            0.0000000            0.0000000
 Dipole Y            :          0.0000000            0.0000000            0.0000000
 Dipole Z            :          0.5771677            0.1101761            0.6873438
 Magnitude           :                                                    0.6873438
    Molecular point group: c2v
  Basis Set: CC-PVDZ
    Blend: CC-PVDZ
  Basis Set: (CC-PVDZ AUX)
    Blend: CC-PVDZ-JKFIT + DEF2-UNIVERSAL-JKFIT
  Basis Set: CC-PVDZ
    Blend: CC-PVDZ
  Basis Set: (CC-PVDZ AUX)
    Blend: CC-PVDZ-JKFIT + DEF2-UNIVERSAL-JKFIT
  @DF-UKS Final Energy:  -461.64222426115771
    Total Energy =                       -461.6422242611577076
  Basis Set: CC-PVDZ
    Blend: CC-PVDZ
  Basis Set: (CC-PVDZ AUX)
    Blend: CC-PVDZ-JKFIT + DEF2-UNIVERSAL-JKFIT
  Basis Set: CC-PVDZ
    Blend: CC-PVDZ
  @DF-UKS Final Energy:  -461.66171341841624
    Total Energy =                       -461.6617134184161841
  @DF-UKS Final Energy:  -461.67472324473647
    Total Energy =                       -461.6747232447364695
  @DF-UKS Final Energy:  -461.67932964853219
    Total Energy =                       -461.6793296485321889
  @DF-UKS Final Energy:  -461.68219209760525
    Total Energy =                       -461.6821920976052525
  @DF-UKS Final Energy:  -461.68525153306405
    Total Energy =                       -461.6852515330639903
  @DF-UKS Final Energy:  -461.71604453472719
    Total Energy =                       -461.7160445347271320
  @DF-UKS Final Energy:  -461.72103388198246
    Total Energy =                       -461.7210338819824642
  @DF-UKS Final Energy:  -461.72554982525151
    Total Energy =                       -461.7255498252515054
  @DF-UKS Final Energy:  -461.72628418716818
    Total Energy =                       -461.7262841871681758
  @DF-UKS Final Energy:  -461.72643521818122
    Total Energy =                       -461.7264352181812228
  @DF-UKS Final Energy:  -461.72644893991901
    Total Energy =                       -461.7264489399190097
  Basis Set: (CC-PVDZ AUX)
    Blend: CC-PVDZ-JKFIT + DEF2-UNIVERSAL-JKFIT
  Basis Set: CC-PVDZ
    Blend: CC-PVDZ
  Basis Set: (CC-PVDZ AUX)
    Blend: CC-PVDZ-JKFIT + DEF2-UNIVERSAL-JKFIT
  @DF-UKS Final Energy:  -461.72645044550973
    Total Energy =                       -461.7264504455097267
  Basis Set: CC-PVDZ
    Blend: CC-PVDZ
  Basis Set: (CC-PVDZ AUX)
    Blend: CC-PVDZ-JKFIT + DEF2-UNIVERSAL-JKFIT
  Charge       = -1
  Multiplicity = 5
  Basis Set: CC-PVDZ
    Blend: CC-PVDZ
  Basis Set: (CC-PVDZ AUX)
    Blend: CC-PVDZ-JKFIT + DEF2-UNIVERSAL-JKFIT

    Orbital Energies [Eh]
    ---------------------

    Alpha Occupied:

       1A1  -101.140283     2A1    -9.113637     1B2    -6.881087
       3A1    -6.877524     1B1    -6.855885     4A1    -0.568204
       5A1    -0.472373     2B2    -0.121038     6A1    -0.115868
       2B1    -0.064567     7A1     0.676792     3B1     0.713533

    Alpha Virtual:

       3B2     0.749714     8A1     0.810932     4B2     0.928743
       9A1     0.928820     1A2     0.970217     4B1     0.984827
      10A1     0.996290    11A1     1.316327     5B2     2.366991
       5B1     2.367322    12A1     2.372942

    Beta Occupied:

       1A1  -101.111920     2A1    -9.086180     1B2    -6.848329
       3A1    -6.824842     1B1    -6.818365     4A1    -0.469041
       5A1    -0.429876     2B1     0.009047

    Beta Virtual:

       2B2     0.060078     6A1     0.093780     3B2     0.829362
       3B1     0.855405     7A1     0.855966     8A1     0.908101
       9A1     1.050247     1A2     1.050252     4B2     1.059751
       4B1     1.075377    10A1     1.080214    11A1     1.322940
       5B2     2.368060     5B1     2.368398    12A1     2.374714

    Final Occupation by Irrep:
             A1    A2    B1    B2
    DOCC [     5,    0,    2,    1 ]
    SOCC [     2,    0,    1,    1 ]
    NA   [     7,    0,    3,    2 ]
    NB   [     5,    0,    2,    1 ]

  @DF-UKS Final Energy:  -461.72645062940688

   => Energetics <=

    Nuclear Repulsion Energy =              5.6806059872490877
    One-Electron Energy =                -655.4236991590589696
    Two-Electron Energy =                 211.9175214982084583
    DFT Exchange-Correlation Energy =     -23.9008789558055170
    Empirical Dispersion Energy =           0.0000000000000000
    VV10 Nonlocal Energy =                  0.0000000000000000
    Total Energy =                       -461.7264506294069406

  UHF NO Occupations:
  HONO-2 :    2 B2 1.0000000
  HONO-1 :    6 A1 1.0000000
  HONO-0 :    7 A1 1.0000000
  LUNO+0 :    8 A1 0.0009199
  LUNO+1 :    9 A1 0.0000045
  LUNO+2 :    4 B1 0.0000002
  LUNO+3 :   10 A1 0.0000001

Computation Completed

Properties will be evaluated at   0.000000,   0.000000,   0.000000 [a0]

Properties computed using the SCF density matrix

 Multipole Moments:

 ------------------------------------------------------------------------------------
     Multipole            Electronic (a.u.)      Nuclear  (a.u.)        Total (a.u.)
 ------------------------------------------------------------------------------------

 L = 1.  Multiply by 2.5417464519 to convert [e a0] to [Debye]
 Dipole X            :          0.0000000            0.0000000            0.0000000
 Dipole Y            :          0.0000000            0.0000000            0.0000000
 Dipole Z            :          0.1822352            0.2907980            0.4730332
 Magnitude           :                                                    0.4730332

 ------------------------------------------------------------------------------------

*** tstop() called on Joses-MacBook-Pro-2.local at Thu Jul 17 09:26:06 2025
Module time:
	user time   =       2.43 seconds =       0.04 minutes
	system time =       2.38 seconds =       0.04 minutes
	total time  =          1 seconds =       0.02 minutes
Total time:
	user time   =      61.40 seconds =       1.02 minutes
	system time =      67.97 seconds =       1.13 minutes
	total time  =         13 seconds =       0.22 minutes

*** tstart() called on Joses-MacBook-Pro-2.local
*** at Thu Jul 17 09:26:06 2025

         ------------------------------------------------------------
                                   SCF GRAD
                          Rob Parrish, Justin Turney,
                       Andy Simmonett, and Alex Sokolov
         ------------------------------------------------------------

  ==> Geometry <==

    Molecular point group: c2v
    Full point group: C_inf_v

    Geometry (in Angstrom), charge = -1, multiplicity = 5:

       Center              X                  Y                   Z               Mass
    ------------   -----------------  -----------------  -----------------  -----------------
         HE           0.000000000000     0.000000000000     2.841974227186     4.002603254130
         CL           0.000000000000     0.000000000000    -0.325297927082    34.968852682000

  Nuclear repulsion =    5.680605987249088

  ==> Basis Set <==

  Basis Set: CC-PVDZ
    Blend: CC-PVDZ
    Number of shells: 11
    Number of basis functions: 23
    Number of Cartesian functions: 24
    Spherical Harmonics?: true
    Max angular momentum: 2

  ==> DFJKGrad: Density-Fitted SCF Gradients <==

    Gradient:                    1
    J tasked:                  Yes
    K tasked:                  Yes
    wK tasked:                  No
    OpenMP threads:              1
    Integrals threads:           1
    Memory [MiB]:              375
    Schwarz Cutoff:          1E-12
    Fitting Condition:       1E-10

   => Auxiliary Basis Set <=

  Basis Set: (CC-PVDZ AUX)
    Blend: CC-PVDZ-JKFIT + DEF2-UNIVERSAL-JKFIT
    Number of shells: 45
    Number of basis functions: 135
    Number of Cartesian functions: 155
    Spherical Harmonics?: true
    Max angular momentum: 3

  ==> DFT Potential <==

   => LibXC <=

    Version 6.2.2
    S. Lehtola, C. Steigemann, M. J.T. Oliveira, and M. A.L. Marques.,  SoftwareX 7, 1â€“5 (2018) (10.1016/j.softx.2017.11.002)

   => Composite Functional: B3LYP <=

    B3LYP Hyb-GGA Exchange-Correlation Functional

    P. J. Stephens, F. J. Devlin, C. F. Chabalowski, and M. J. Frisch.,  J. Phys. Chem. 98, 11623 (1994) (10.1021/j100096a001)

    Deriv               =              1
    GGA                 =           TRUE
    Meta                =          FALSE

    Exchange Hybrid     =           TRUE
    MP2 Hybrid          =          FALSE

   => Exchange Functionals <=

    0.0800   Slater exchange
    0.7200         Becke 88

   => Exact (HF) Exchange <=

    0.2000               HF

   => Correlation Functionals <=

    0.1900   Vosko, Wilk & Nusair (VWN5_RPA)
    0.8100   Lee, Yang & Parr

   => LibXC Density Thresholds  <==

    XC_HYB_GGA_XC_B3LYP:  1.00E-15

   => Molecular Quadrature <=

    Radial Scheme          =       TREUTLER
    Pruning Scheme         =           NONE
    Nuclear Scheme         =       TREUTLER

    Blocking Scheme        =         OCTREE
    BS radius alpha        =              1
    Pruning alpha          =              1
    Radial Points          =             75
    Spherical Points       =            302
    Total Points           =          42243
    Total Blocks           =            381
    Max Points             =            253
    Max Functions          =             23
    Weights Tolerance      =       1.00E-15

  -Total Gradient:
     Atom            X                  Y                   Z
    ------   -----------------  -----------------  -----------------
       1        0.000000000000     0.000000000000    -0.000027627477
       2        0.000000000000    -0.000000000000     0.000018119708

*** tstop() called on Joses-MacBook-Pro-2.local at Thu Jul 17 09:26:06 2025
Module time:
	user time   =       0.59 seconds =       0.01 minutes
	system time =       1.16 seconds =       0.02 minutes
	total time  =          0 seconds =       0.00 minutes
Total time:
	user time   =      61.99 seconds =       1.03 minutes
	system time =      69.13 seconds =       1.15 minutes
	total time  =         13 seconds =       0.22 minutes

    			-----------------------------------------

    			 OPTKING 3.0: for geometry optimizations

    			     By R.A. King, Bethel University

    			        with contributions from

    			    A.V. Copan, J. Cayton, A. Heide

    			-----------------------------------------

	                            ===> Fragment 1 <==

	 Z (Atomic Numbers)          Masses                          Geom
	       2.000000             4.002603          0.00000000  0.00000000  5.37055294
	      17.000000            34.968853          0.00000000  0.00000000 -0.61472399

	 - Coordinate -           - BOHR/RAD -       - ANG/DEG -
	 R(1,2)           =         5.985277           3.167272

	        --- Internal Coordinate Step in ANG or DEG, aJ/ANG or AJ/DEG ---
	-------------------------------------------------------------------------------
	           Coordinate      Previous         Force          Change          New
	           ----------      --------        ------          ------        ------
	               R(1,2)       3.16727        0.00019        0.00090       3.16817
	-------------------------------------------------------------------------------

	                                 ==> Convergence Check <==

	Measures of convergence in internal coordinates in au.

	Criteria marked as inactive (o), active & met (*), and active & unmet ( ).

	----------------------------------------------------------------------------------------------
	   Step    Total Energy     Delta E     Max Force     RMS Force      Max Disp      RMS Disp
	----------------------------------------------------------------------------------------------
	  Convergence Criteria     1.00e-06 *    3.00e-04 *             o    1.20e-03 *             o
	----------------------------------------------------------------------------------------------
	    15    -461.72645063   -1.84e-07 *    2.29e-05 *    2.29e-05 o    1.69e-03      1.69e-03 o  ~
	----------------------------------------------------------------------------------------------

Next Geometry in Ang
	Fragment 1 (Ang)

	   He   0.0000000000   0.0000000000   2.8424225587
	   Cl   0.0000000000   0.0000000000  -0.3257462586

    Final optimized geometry and variables:
    Molecular point group: c2v
    Full point group: C_inf_v

    Geometry (in Angstrom), charge = -1, multiplicity = 5:

    HE           0.000000000000     0.000000000000     2.841974227186
    CL           0.000000000000     0.000000000000    -0.325297927082

    Psi4 stopped on: Thursday, 17 July 2025 09:26AM
    Psi4 wall time for execution: 0:00:12.90

*** Psi4 exiting successfully. Buy a developer a beer!
