                               Psi4 1.9.1 release

  ==> Input File <==

--------------------------------------------------------------------------
molecule {
-1 5
H   0.00000        0.60000        0.00000
Mg   0.00000       -0.60000        0.00000
}

set {
basis              cc-pvdz
reference          uks
maxiter            500
geom_maxiter       500
DAMPING_PERCENTAGE 1
guess              SAP
}

optimize('b3lyp')
--------------------------------------------------------------------------

    Molecular point group: c2v
  Charge       = -1
  Multiplicity = 5
  Basis Set: CC-PVDZ
    Blend: CC-PVDZ
  Basis Set: (CC-PVDZ AUX)
    Blend: CC-PVDZ-JKFIT + DEF2-UNIVERSAL-JKFIT
  @DF-UKS Final Energy:  -200.33835779875773
    Total Energy =                       -200.3383577987577269
 Dipole X            :          0.0000000            0.0000000            0.0000000
 Dipole Y            :          0.0000000            0.0000000            0.0000000
 Dipole Z            :          0.0377352            1.0789159            1.1166511
 Magnitude           :                                                    1.1166511
    Molecular point group: c2v
  Basis Set: CC-PVDZ
    Blend: CC-PVDZ
  Basis Set: (CC-PVDZ AUX)
    Blend: CC-PVDZ-JKFIT + DEF2-UNIVERSAL-JKFIT
  Basis Set: CC-PVDZ
    Blend: CC-PVDZ
  Basis Set: (CC-PVDZ AUX)
    Blend: CC-PVDZ-JKFIT + DEF2-UNIVERSAL-JKFIT
  @DF-UKS Final Energy:  -200.41925888444564
    Total Energy =                       -200.4192588844456111
  Basis Set: CC-PVDZ
    Blend: CC-PVDZ
  Basis Set: (CC-PVDZ AUX)
    Blend: CC-PVDZ-JKFIT + DEF2-UNIVERSAL-JKFIT
  Basis Set: CC-PVDZ
    Blend: CC-PVDZ
  @DF-UKS Final Energy:  -200.44548167904566
    Total Energy =                       -200.4454816790456562
  @DF-UKS Final Energy:  -200.46321912537223
    Total Energy =                       -200.4632191253722340
  @DF-UKS Final Energy:  -200.47288044708338
    Total Energy =                       -200.4728804470833836
  @DF-UKS Final Energy:  -200.47864316625862
    Total Energy =                       -200.4786431662586210
  @DF-UKS Final Energy:  -200.48223469075435
    Total Energy =                       -200.4822346907543533
  @DF-UKS Final Energy:  -200.48455488105265
    Total Energy =                       -200.4845548810526452
  @DF-UKS Final Energy:  -200.48600742174943
    Total Energy =                       -200.4860074217494343
  @DF-UKS Final Energy:  -200.48606839648954
    Total Energy =                       -200.4860683964895713
  @DF-UKS Final Energy:  -200.48698616546491
    Total Energy =                       -200.4869861654649128
  @DF-UKS Final Energy:  -200.48700506393573
    Total Energy =                       -200.4870050639357544
  @DF-UKS Final Energy:  -200.48748132345128
    Total Energy =                       -200.4874813234512771
  @DF-UKS Final Energy:  -200.48748732609801
    Total Energy =                       -200.4874873260980053
  @DF-UKS Final Energy:  -200.48749320696291
    Total Energy =                       -200.4874932069628812
  @DF-UKS Final Energy:  -200.48775687729682
    Total Energy =                       -200.4877568772967891
  @DF-UKS Final Energy:  -200.48775904074637
    Total Energy =                       -200.4877590407463686
  @DF-UKS Final Energy:  -200.48776117865236
    Total Energy =                       -200.4877611786523630
  @DF-UKS Final Energy:  -200.48776329737416
    Total Energy =                       -200.4877632973741868
  @DF-UKS Final Energy:  -200.48776539719100
    Total Energy =                       -200.4877653971909979
  Basis Set: (CC-PVDZ AUX)
    Blend: CC-PVDZ-JKFIT + DEF2-UNIVERSAL-JKFIT
  Basis Set: CC-PVDZ
    Blend: CC-PVDZ
  Basis Set: (CC-PVDZ AUX)
    Blend: CC-PVDZ-JKFIT + DEF2-UNIVERSAL-JKFIT
  @DF-UKS Final Energy:  -200.48793775337478
    Total Energy =                       -200.4879377533748084
  Basis Set: CC-PVDZ
    Blend: CC-PVDZ
  Basis Set: (CC-PVDZ AUX)
    Blend: CC-PVDZ-JKFIT + DEF2-UNIVERSAL-JKFIT
  Charge       = -1
  Multiplicity = 5
  Basis Set: CC-PVDZ
    Blend: CC-PVDZ
  Basis Set: (CC-PVDZ AUX)
    Blend: CC-PVDZ-JKFIT + DEF2-UNIVERSAL-JKFIT

    Orbital Energies [Eh]
    ---------------------

    Alpha Occupied:

       1A1   -46.679077     2A1    -2.958126     3A1    -1.703251
       1B2    -1.700828     1B1    -1.700828     4A1    -0.215696
       5A1    -0.062306     2B2     0.063129     2B1     0.063129

    Alpha Virtual:

       6A1     0.107658     7A1     0.232955     3B2     0.295378
       3B1     0.295378     8A1     0.309059     9A1     0.462946
       1A2     0.462946    10A1     0.465150     4B1     0.465947
       4B2     0.465947    11A1     0.560742     5B1     1.314264
       5B2     1.314264    12A1     1.323368

    Beta Occupied:

       1A1   -46.674927     2A1    -2.951318     3A1    -1.699344
       1B2    -1.694104     1B1    -1.694104

    Beta Virtual:

       4A1     0.049830     5A1     0.077036     6A1     0.160402
       2B2     0.167478     2B1     0.167478     7A1     0.276735
       8A1     0.338916     3B2     0.345292     3B1     0.345292
       9A1     0.514553     4B1     0.521480     4B2     0.521480
      10A1     0.538642     1A2     0.538643    11A1     0.766855
       5B1     1.562132     5B2     1.562132    12A1     1.568701

    Final Occupation by Irrep:
             A1    A2    B1    B2
    DOCC [     3,    0,    1,    1 ]
    SOCC [     2,    0,    1,    1 ]
    NA   [     5,    0,    2,    2 ]
    NB   [     3,    0,    1,    1 ]

  @DF-UKS Final Energy:  -200.48793873065262

   => Energetics <=

    Nuclear Repulsion Energy =              1.4635440665678170
    One-Electron Energy =                -284.5713573229571693
    Two-Electron Energy =                  96.2357757491258496
    DFT Exchange-Correlation Energy =     -13.6159012233891090
    Empirical Dispersion Energy =           0.0000000000000000
    VV10 Nonlocal Energy =                  0.0000000000000000
    Total Energy =                       -200.4879387306526155

  UHF NO Occupations:
  HONO-2 :    2 B1 1.0000000
  HONO-1 :    2 B2 1.0000000
  HONO-0 :    5 A1 1.0000000
  LUNO+0 :    6 A1 0.0000004
  LUNO+1 :    3 B1 0.0000002
  LUNO+2 :    3 B2 0.0000002
  LUNO+3 :    7 A1 0.0000001

Computation Completed

Properties will be evaluated at   0.000000,   0.000000,   0.000000 [a0]

Properties computed using the SCF density matrix

 Multipole Moments:

 ------------------------------------------------------------------------------------
     Multipole            Electronic (a.u.)      Nuclear  (a.u.)        Total (a.u.)
 ------------------------------------------------------------------------------------

 L = 1.  Multiply by 2.5417464519 to convert [e a0] to [Debye]
 Dipole X            :          0.0000000            0.0000000            0.0000000
 Dipole Y            :          0.0000000            0.0000000            0.0000000
 Dipole Z            :         -3.5487033            3.9010625            0.3523592
 Magnitude           :                                                    0.3523592

 ------------------------------------------------------------------------------------

*** tstop() called on Joses-MacBook-Pro-2.local at Thu Jul 17 09:14:05 2025
Module time:
	user time   =       2.78 seconds =       0.05 minutes
	system time =       2.23 seconds =       0.04 minutes
	total time  =          1 seconds =       0.02 minutes
Total time:
	user time   =      78.53 seconds =       1.31 minutes
	system time =      96.51 seconds =       1.61 minutes
	total time  =         18 seconds =       0.30 minutes

*** tstart() called on Joses-MacBook-Pro-2.local
*** at Thu Jul 17 09:14:05 2025

         ------------------------------------------------------------
                                   SCF GRAD
                          Rob Parrish, Justin Turney,
                       Andy Simmonett, and Alex Sokolov
         ------------------------------------------------------------

  ==> Geometry <==

    Molecular point group: c2v
    Full point group: C_inf_v

    Geometry (in Angstrom), charge = -1, multiplicity = 5:

       Center              X                  Y                   Z               Mass
    ------------   -----------------  -----------------  -----------------  -----------------
         H            0.000000000000     0.000000000000     4.163906605132     1.007825032230
         MG           0.000000000000     0.000000000000    -0.174962768943    23.985041697000

  Nuclear repulsion =    1.463544066567817

  ==> Basis Set <==

  Basis Set: CC-PVDZ
    Blend: CC-PVDZ
    Number of shells: 11
    Number of basis functions: 23
    Number of Cartesian functions: 24
    Spherical Harmonics?: true
    Max angular momentum: 2

  ==> DFJKGrad: Density-Fitted SCF Gradients <==

    Gradient:                    1
    J tasked:                  Yes
    K tasked:                  Yes
    wK tasked:                  No
    OpenMP threads:              1
    Integrals threads:           1
    Memory [MiB]:              375
    Schwarz Cutoff:          1E-12
    Fitting Condition:       1E-10

   => Auxiliary Basis Set <=

  Basis Set: (CC-PVDZ AUX)
    Blend: CC-PVDZ-JKFIT + DEF2-UNIVERSAL-JKFIT
    Number of shells: 43
    Number of basis functions: 135
    Number of Cartesian functions: 162
    Spherical Harmonics?: true
    Max angular momentum: 4

  ==> DFT Potential <==

   => LibXC <=

    Version 6.2.2
    S. Lehtola, C. Steigemann, M. J.T. Oliveira, and M. A.L. Marques.,  SoftwareX 7, 1â€“5 (2018) (10.1016/j.softx.2017.11.002)

   => Composite Functional: B3LYP <=

    B3LYP Hyb-GGA Exchange-Correlation Functional

    P. J. Stephens, F. J. Devlin, C. F. Chabalowski, and M. J. Frisch.,  J. Phys. Chem. 98, 11623 (1994) (10.1021/j100096a001)

    Deriv               =              1
    GGA                 =           TRUE
    Meta                =          FALSE

    Exchange Hybrid     =           TRUE
    MP2 Hybrid          =          FALSE

   => Exchange Functionals <=

    0.0800   Slater exchange
    0.7200         Becke 88

   => Exact (HF) Exchange <=

    0.2000               HF

   => Correlation Functionals <=

    0.1900   Vosko, Wilk & Nusair (VWN5_RPA)
    0.8100   Lee, Yang & Parr

   => LibXC Density Thresholds  <==

    XC_HYB_GGA_XC_B3LYP:  1.00E-15

   => Molecular Quadrature <=

    Radial Scheme          =       TREUTLER
    Pruning Scheme         =           NONE
    Nuclear Scheme         =       TREUTLER

    Blocking Scheme        =         OCTREE
    BS radius alpha        =              1
    Pruning alpha          =              1
    Radial Points          =             75
    Spherical Points       =            302
    Total Points           =          43593
    Total Blocks           =            429
    Max Points             =            252
    Max Functions          =             23
    Weights Tolerance      =       1.00E-15

  -Total Gradient:
     Atom            X                  Y                   Z
    ------   -----------------  -----------------  -----------------
       1        0.000000000000     0.000000000000    -0.000206718260
       2        0.000000000000    -0.000000000000     0.000204629615

*** tstop() called on Joses-MacBook-Pro-2.local at Thu Jul 17 09:14:05 2025
Module time:
	user time   =       0.76 seconds =       0.01 minutes
	system time =       1.22 seconds =       0.02 minutes
	total time  =          0 seconds =       0.00 minutes
Total time:
	user time   =      79.29 seconds =       1.32 minutes
	system time =      97.74 seconds =       1.63 minutes
	total time  =         18 seconds =       0.30 minutes

    			-----------------------------------------

    			 OPTKING 3.0: for geometry optimizations

    			     By R.A. King, Bethel University

    			        with contributions from

    			    A.V. Copan, J. Cayton, A. Heide

    			-----------------------------------------

	                            ===> Fragment 1 <==

	 Z (Atomic Numbers)          Masses                          Geom
	       1.000000             1.007825          0.00000000  0.00000000  7.86864310
	      12.000000            23.985042          0.00000000  0.00000000 -0.33063172

	 - Coordinate -           - BOHR/RAD -       - ANG/DEG -
	 R(1,2)           =         8.199275           4.338869

	        --- Internal Coordinate Step in ANG or DEG, aJ/ANG or AJ/DEG ---
	-------------------------------------------------------------------------------
	           Coordinate      Previous         Force          Change          New
	           ----------      --------        ------          ------        ------
	               R(1,2)       4.33887        0.00169        0.00253       4.34140
	-------------------------------------------------------------------------------

	                                 ==> Convergence Check <==

	Measures of convergence in internal coordinates in au.

	Criteria marked as inactive (o), active & met (*), and active & unmet ( ).

	----------------------------------------------------------------------------------------------
	   Step    Total Energy     Delta E     Max Force     RMS Force      Max Disp      RMS Disp
	----------------------------------------------------------------------------------------------
	  Convergence Criteria     1.00e-06 *    3.00e-04 *             o    1.20e-03 *             o
	----------------------------------------------------------------------------------------------
	    22    -200.48793873   -9.77e-07 *    2.06e-04 *    2.06e-04 o    4.78e-03      4.78e-03 o  ~
	----------------------------------------------------------------------------------------------

Next Geometry in Ang
	Fragment 1 (Ang)

	    H   0.0000000000   0.0000000000   4.1651716323
	   Mg   0.0000000000   0.0000000000  -0.1762277961

    Final optimized geometry and variables:
    Molecular point group: c2v
    Full point group: C_inf_v

    Geometry (in Angstrom), charge = -1, multiplicity = 5:

    H            0.000000000000     0.000000000000     4.163906605132
    MG           0.000000000000     0.000000000000    -0.174962768943

    Psi4 stopped on: Thursday, 17 July 2025 09:14AM
    Psi4 wall time for execution: 0:00:18.15

*** Psi4 exiting successfully. Buy a developer a beer!
