                               Psi4 1.9.1 release

  ==> Input File <==

--------------------------------------------------------------------------
molecule {
-1 6
H   0.00000        0.60000        0.00000
Al   0.00000       -0.60000        0.00000
}

set {
basis              cc-pvdz
reference          uks
maxiter            500
geom_maxiter       500
DAMPING_PERCENTAGE 1
guess              SAP
}

optimize('b3lyp')
--------------------------------------------------------------------------

    Molecular point group: c2v
  Charge       = -1
  Multiplicity = 6
  Basis Set: CC-PVDZ
    Blend: CC-PVDZ
  Basis Set: (CC-PVDZ AUX)
    Blend: CC-PVDZ-JKFIT
  @DF-UKS Final Energy:  -242.52482274732986
    Total Energy =                       -242.5248227473298641
 Dipole X            :          0.0000000            0.0000000            0.0000000
 Dipole Y            :          0.0000000            0.0000000            0.0000000
 Dipole Z            :         -0.9042020            1.1245291            0.2203271
 Magnitude           :                                                    0.2203271
    Molecular point group: c2v
  Basis Set: CC-PVDZ
    Blend: CC-PVDZ
  Basis Set: (CC-PVDZ AUX)
    Blend: CC-PVDZ-JKFIT
  Basis Set: CC-PVDZ
    Blend: CC-PVDZ
  Basis Set: (CC-PVDZ AUX)
    Blend: CC-PVDZ-JKFIT
  @DF-UKS Final Energy:  -242.60738796945517
    Total Energy =                       -242.6073879694551749
  Basis Set: CC-PVDZ
    Blend: CC-PVDZ
  Basis Set: (CC-PVDZ AUX)
    Blend: CC-PVDZ-JKFIT
  Basis Set: CC-PVDZ
    Blend: CC-PVDZ
  @DF-UKS Final Energy:  -242.64623836168840
    Total Energy =                       -242.6462383616884040
  @DF-UKS Final Energy:  -242.70166838438629
    Total Energy =                       -242.7016683843862950
  @DF-UKS Final Energy:  -242.72331020280484
    Total Energy =                       -242.7233102028048393
  @DF-UKS Final Energy:  -242.74517606333876
    Total Energy =                       -242.7451760633387323
  @DF-UKS Final Energy:  -242.75129654731791
    Total Energy =                       -242.7512965473178781
  @DF-UKS Final Energy:  -242.76079765258839
    Total Energy =                       -242.7607976525883942
  @DF-UKS Final Energy:  -242.76251247181054
    Total Energy =                       -242.7625124718105099
  @DF-UKS Final Energy:  -242.76724998256961
    Total Energy =                       -242.7672499825696093
  @DF-UKS Final Energy:  -242.76776303849317
    Total Energy =                       -242.7677630384931717
  @DF-UKS Final Energy:  -242.77025259877701
    Total Energy =                       -242.7702525987770059
  @DF-UKS Final Energy:  -242.77041563695809
    Total Energy =                       -242.7704156369580915
  @DF-UKS Final Energy:  -242.77177507351527
    Total Energy =                       -242.7717750735153004
  @DF-UKS Final Energy:  -242.77182944969996
    Total Energy =                       -242.7718294496999363
  @DF-UKS Final Energy:  -242.77258810451340
    Total Energy =                       -242.7725881045134031
  @DF-UKS Final Energy:  -242.77260658516124
    Total Energy =                       -242.7726065851612702
  @DF-UKS Final Energy:  -242.77302689029491
    Total Energy =                       -242.7730268902949149
  @DF-UKS Final Energy:  -242.77303307218509
    Total Energy =                       -242.7730330721851146
  @DF-UKS Final Energy:  -242.77303911821167
    Total Energy =                       -242.7730391182116989
  @DF-UKS Final Energy:  -242.77326317551478
    Total Energy =                       -242.7732631755147850
  @DF-UKS Final Energy:  -242.77326513314739
    Total Energy =                       -242.7732651331474187
  @DF-UKS Final Energy:  -242.77326706288372
    Total Energy =                       -242.7732670628837184
  @DF-UKS Final Energy:  -242.77326896555499
    Total Energy =                       -242.7732689655550189
  Basis Set: (CC-PVDZ AUX)
    Blend: CC-PVDZ-JKFIT
  Basis Set: CC-PVDZ
    Blend: CC-PVDZ
  Basis Set: (CC-PVDZ AUX)
    Blend: CC-PVDZ-JKFIT
  @DF-UKS Final Energy:  -242.77338586627002
    Total Energy =                       -242.7733858662700186
  Basis Set: CC-PVDZ
    Blend: CC-PVDZ
  Basis Set: (CC-PVDZ AUX)
    Blend: CC-PVDZ-JKFIT
  Charge       = -1
  Multiplicity = 6
  Basis Set: CC-PVDZ
    Blend: CC-PVDZ
  Basis Set: (CC-PVDZ AUX)
    Blend: CC-PVDZ-JKFIT

    Orbital Energies [Eh]
    ---------------------

    Alpha Occupied:

       1A1   -55.869310     2A1    -3.949366     1B1    -2.502570
       1B2    -2.502570     3A1    -2.502569     4A1    -0.225143
       5A1    -0.146604     2B2     0.049792     2B1     0.049792
       6A1     0.049863

    Alpha Virtual:

       7A1     0.331625     8A1     0.386008     3B2     0.387700
       3B1     0.387700     9A1     0.442448     4B2     0.442540
       4B1     0.442540     1A2     0.442546    10A1     0.442546
      11A1     0.517320     5B2     1.303995     5B1     1.303995
      12A1     1.305054

    Beta Occupied:

       1A1   -55.860326     2A1    -3.936480     1B1    -2.489831
       1B2    -2.489831     3A1    -2.489825

    Beta Virtual:

       4A1     0.028847     5A1     0.068031     2B2     0.191205
       2B1     0.191205     6A1     0.191492     7A1     0.398469
       8A1     0.454265     3B2     0.454442     3B1     0.454442
       9A1     0.555576     4B2     0.555605     4B1     0.555605
       1A2     0.555610    10A1     0.555610    11A1     0.729817
      12A1     1.555227     5B1     1.555834     5B2     1.555834

    Final Occupation by Irrep:
             A1    A2    B1    B2
    DOCC [     3,    0,    1,    1 ]
    SOCC [     3,    0,    1,    1 ]
    NA   [     6,    0,    2,    2 ]
    NB   [     3,    0,    1,    1 ]

  @DF-UKS Final Energy:  -242.77338646991157

   => Energetics <=

    Nuclear Repulsion Energy =              1.2250654104327252
    One-Electron Energy =                -342.2237778606243523
    Two-Electron Energy =                 113.5910649827919769
    DFT Exchange-Correlation Energy =     -15.3657390025118730
    Empirical Dispersion Energy =           0.0000000000000000
    VV10 Nonlocal Energy =                  0.0000000000000000
    Total Energy =                       -242.7733864699115429

  UHF NO Occupations:
  HONO-2 :    5 A1 1.0000000
  HONO-1 :    6 A1 1.0000000
  HONO-0 :    2 B2 1.0000000
  LUNO+0 :    3 B1 0.0000002
  LUNO+1 :    3 B2 0.0000002
  LUNO+2 :    7 A1 0.0000002
  LUNO+3 :    8 A1 0.0000000

Computation Completed

Properties will be evaluated at   0.000000,   0.000000,   0.000000 [a0]

Properties computed using the SCF density matrix

 Multipole Moments:

 ------------------------------------------------------------------------------------
     Multipole            Electronic (a.u.)      Nuclear  (a.u.)        Total (a.u.)
 ------------------------------------------------------------------------------------

 L = 1.  Multiply by 2.5417464519 to convert [e a0] to [Debye]
 Dipole X            :          0.0000000            0.0000000            0.0000000
 Dipole Y            :          0.0000000            0.0000000            0.0000000
 Dipole Z            :         -4.8876087            5.2622887            0.3746800
 Magnitude           :                                                    0.3746800

 ------------------------------------------------------------------------------------

*** tstop() called on Joses-MacBook-Pro-2.local at Thu Jul 17 09:14:43 2025
Module time:
	user time   =       1.34 seconds =       0.02 minutes
	system time =       1.62 seconds =       0.03 minutes
	total time  =          0 seconds =       0.00 minutes
Total time:
	user time   =      85.16 seconds =       1.42 minutes
	system time =     118.57 seconds =       1.98 minutes
	total time  =         19 seconds =       0.32 minutes

*** tstart() called on Joses-MacBook-Pro-2.local
*** at Thu Jul 17 09:14:43 2025

         ------------------------------------------------------------
                                   SCF GRAD
                          Rob Parrish, Justin Turney,
                       Andy Simmonett, and Alex Sokolov
         ------------------------------------------------------------

  ==> Geometry <==

    Molecular point group: c2v
    Full point group: C_inf_v

    Geometry (in Angstrom), charge = -1, multiplicity = 6:

       Center              X                  Y                   Z               Mass
    ------------   -----------------  -----------------  -----------------  -----------------
         H            0.000000000000     0.000000000000     5.413260090921     1.007825032230
         AL           0.000000000000     0.000000000000    -0.202198218591    26.981538530000

  Nuclear repulsion =    1.225065410432725

  ==> Basis Set <==

  Basis Set: CC-PVDZ
    Blend: CC-PVDZ
    Number of shells: 11
    Number of basis functions: 23
    Number of Cartesian functions: 24
    Spherical Harmonics?: true
    Max angular momentum: 2

  ==> DFJKGrad: Density-Fitted SCF Gradients <==

    Gradient:                    1
    J tasked:                  Yes
    K tasked:                  Yes
    wK tasked:                  No
    OpenMP threads:              1
    Integrals threads:           1
    Memory [MiB]:              375
    Schwarz Cutoff:          1E-12
    Fitting Condition:       1E-10

   => Auxiliary Basis Set <=

  Basis Set: (CC-PVDZ AUX)
    Blend: CC-PVDZ-JKFIT
    Number of shells: 45
    Number of basis functions: 135
    Number of Cartesian functions: 155
    Spherical Harmonics?: true
    Max angular momentum: 3

  ==> DFT Potential <==

   => LibXC <=

    Version 6.2.2
    S. Lehtola, C. Steigemann, M. J.T. Oliveira, and M. A.L. Marques.,  SoftwareX 7, 1â€“5 (2018) (10.1016/j.softx.2017.11.002)

   => Composite Functional: B3LYP <=

    B3LYP Hyb-GGA Exchange-Correlation Functional

    P. J. Stephens, F. J. Devlin, C. F. Chabalowski, and M. J. Frisch.,  J. Phys. Chem. 98, 11623 (1994) (10.1021/j100096a001)

    Deriv               =              1
    GGA                 =           TRUE
    Meta                =          FALSE

    Exchange Hybrid     =           TRUE
    MP2 Hybrid          =          FALSE

   => Exchange Functionals <=

    0.0800   Slater exchange
    0.7200         Becke 88

   => Exact (HF) Exchange <=

    0.2000               HF

   => Correlation Functionals <=

    0.1900   Vosko, Wilk & Nusair (VWN5_RPA)
    0.8100   Lee, Yang & Parr

   => LibXC Density Thresholds  <==

    XC_HYB_GGA_XC_B3LYP:  1.00E-15

   => Molecular Quadrature <=

    Radial Scheme          =       TREUTLER
    Pruning Scheme         =           NONE
    Nuclear Scheme         =       TREUTLER

    Blocking Scheme        =         OCTREE
    BS radius alpha        =              1
    Pruning alpha          =              1
    Radial Points          =             75
    Spherical Points       =            302
    Total Points           =          43634
    Total Blocks           =            439
    Max Points             =            256
    Max Functions          =             23
    Weights Tolerance      =       1.00E-15

  -Total Gradient:
     Atom            X                  Y                   Z
    ------   -----------------  -----------------  -----------------
       1        0.000000000000    -0.000000000000    -0.000135740964
       2        0.000000000000     0.000000000000     0.000134079479

*** tstop() called on Joses-MacBook-Pro-2.local at Thu Jul 17 09:14:43 2025
Module time:
	user time   =       0.61 seconds =       0.01 minutes
	system time =       1.23 seconds =       0.02 minutes
	total time  =          0 seconds =       0.00 minutes
Total time:
	user time   =      85.77 seconds =       1.43 minutes
	system time =     119.80 seconds =       2.00 minutes
	total time  =         19 seconds =       0.32 minutes

    			-----------------------------------------

    			 OPTKING 3.0: for geometry optimizations

    			     By R.A. King, Bethel University

    			        with contributions from

    			    A.V. Copan, J. Cayton, A. Heide

    			-----------------------------------------

	                            ===> Fragment 1 <==

	 Z (Atomic Numbers)          Masses                          Geom
	       1.000000             1.007825          0.00000000   0.00000000  10.22957902
	      13.000000            26.981539          0.00000000  0.00000000 -0.38209926

	 - Coordinate -           - BOHR/RAD -       - ANG/DEG -
	 R(1,2)           =        10.611678           5.615458

	        --- Internal Coordinate Step in ANG or DEG, aJ/ANG or AJ/DEG ---
	-------------------------------------------------------------------------------
	           Coordinate      Previous         Force          Change          New
	           ----------      --------        ------          ------        ------
	               R(1,2)       5.61546        0.00111        0.00232       5.61778
	-------------------------------------------------------------------------------

	                                 ==> Convergence Check <==

	Measures of convergence in internal coordinates in au.

	Criteria marked as inactive (o), active & met (*), and active & unmet ( ).

	----------------------------------------------------------------------------------------------
	   Step    Total Energy     Delta E     Max Force     RMS Force      Max Disp      RMS Disp
	----------------------------------------------------------------------------------------------
	  Convergence Criteria     1.00e-06 *    3.00e-04 *             o    1.20e-03 *             o
	----------------------------------------------------------------------------------------------
	    26    -242.77338647   -6.04e-07 *    1.35e-04 *    1.35e-04 o    4.38e-03      4.38e-03 o  ~
	----------------------------------------------------------------------------------------------

Next Geometry in Ang
	Fragment 1 (Ang)

	    H   0.0000000000   0.0000000000   5.4144193586
	   Al   0.0000000000   0.0000000000  -0.2033574862

    Final optimized geometry and variables:
    Molecular point group: c2v
    Full point group: C_inf_v

    Geometry (in Angstrom), charge = -1, multiplicity = 6:

    H            0.000000000000     0.000000000000     5.413260090921
    AL           0.000000000000     0.000000000000    -0.202198218591

    Psi4 stopped on: Thursday, 17 July 2025 09:14AM
    Psi4 wall time for execution: 0:00:20.53

*** Psi4 exiting successfully. Buy a developer a beer!
