                               Psi4 1.9.1 release

  ==> Input File <==

--------------------------------------------------------------------------
molecule {
-1 6
Ne   0.00000        0.60000        0.00000
Si   0.00000       -0.60000        0.00000
}

set {
basis              cc-pvdz
reference          uks
maxiter            500
geom_maxiter       500
DAMPING_PERCENTAGE 1
guess              SAP
}

optimize('b3lyp')
--------------------------------------------------------------------------

    Molecular point group: c2v
  Charge       = -1
  Multiplicity = 6
  Basis Set: CC-PVDZ
    Blend: CC-PVDZ
  Basis Set: (CC-PVDZ AUX)
    Blend: CC-PVDZ-JKFIT
  @DF-UKS Final Energy:  -417.26802231008156
    Total Energy =                       -417.2680223100815624
 Dipole X            :          0.0000000            0.0000000            0.0000000
 Dipole Y            :          0.0000000            0.0000000            0.0000000
 Dipole Z            :          2.3488213           -0.0059043            2.3429170
 Magnitude           :                                                    2.3429170
    Molecular point group: c2v
  Basis Set: CC-PVDZ
    Blend: CC-PVDZ
  Basis Set: (CC-PVDZ AUX)
    Blend: CC-PVDZ-JKFIT
  Basis Set: CC-PVDZ
    Blend: CC-PVDZ
  Basis Set: (CC-PVDZ AUX)
    Blend: CC-PVDZ-JKFIT
  @DF-UKS Final Energy:  -417.49036502422581
    Total Energy =                       -417.4903650242258095
  Basis Set: CC-PVDZ
    Blend: CC-PVDZ
  Basis Set: (CC-PVDZ AUX)
    Blend: CC-PVDZ-JKFIT
  Basis Set: CC-PVDZ
    Blend: CC-PVDZ
  @DF-UKS Final Energy:  -417.62539303980918
    Total Energy =                       -417.6253930398091825
  @DF-UKS Final Energy:  -417.70819047914762
    Total Energy =                       -417.7081904791475608
  @DF-UKS Final Energy:  -417.75932972922237
    Total Energy =                       -417.7593297292223724
  @DF-UKS Final Energy:  -417.78684271038338
    Total Energy =                       -417.7868427103833824
  @DF-UKS Final Energy:  -417.80133012617301
    Total Energy =                       -417.8013301261729566
  @DF-UKS Final Energy:  -417.81049256697344
    Total Energy =                       -417.8104925669734939
  @DF-UKS Final Energy:  -417.81919150740674
    Total Energy =                       -417.8191915074067992
  @DF-UKS Final Energy:  -417.81974096977137
    Total Energy =                       -417.8197409697714875
  @DF-UKS Final Energy:  -417.82885411879676
    Total Energy =                       -417.8288541187967553
  @DF-UKS Final Energy:  -417.82907582242927
    Total Energy =                       -417.8290758224292745
  @DF-UKS Final Energy:  -417.83272681622276
    Total Energy =                       -417.8327268162227597
  @DF-UKS Final Energy:  -417.83277798636095
    Total Energy =                       -417.8327779863609521
  @DF-UKS Final Energy:  -417.83395218837154
    Total Energy =                       -417.8339521883714838
  @DF-UKS Final Energy:  -417.83423982355316
    Total Energy =                       -417.8342398235531618
  @DF-UKS Final Energy:  -417.83433525422402
    Total Energy =                       -417.8343352542240154
  @DF-UKS Final Energy:  -417.83435634338241
    Total Energy =                       -417.8343563433824102
  Basis Set: (CC-PVDZ AUX)
    Blend: CC-PVDZ-JKFIT
  Basis Set: CC-PVDZ
    Blend: CC-PVDZ
  Basis Set: (CC-PVDZ AUX)
    Blend: CC-PVDZ-JKFIT
  @DF-UKS Final Energy:  -417.83436204615936
    Total Energy =                       -417.8343620461593559
  Basis Set: CC-PVDZ
    Blend: CC-PVDZ
  Basis Set: (CC-PVDZ AUX)
    Blend: CC-PVDZ-JKFIT
  Charge       = -1
  Multiplicity = 6
  Basis Set: CC-PVDZ
    Blend: CC-PVDZ
  Basis Set: (CC-PVDZ AUX)
    Blend: CC-PVDZ-JKFIT

    Orbital Energies [Eh]
    ---------------------

    Alpha Occupied:

       1A1   -65.914034     2A1   -30.828982     3A1    -5.064241
       1B1    -3.421620     1B2    -3.421620     4A1    -3.421617
       5A1    -1.294589     2B1    -0.403410     2B2    -0.403410
       6A1    -0.402292     7A1    -0.251091     3B1     0.018772
       3B2     0.018772     8A1     0.019006     9A1     0.379702

    Alpha Virtual:

       4B2     0.489824     4B1     0.489824    10A1     0.490221
      11A1     0.560504     5B1     0.560540     5B2     0.560540
      12A1     0.560555     1A2     0.560555     6B1     1.494919
       6B2     1.494919    13A1     1.506071    14A1     1.959052
       2A2     4.862142    15A1     4.862238     7B1     4.862870
       7B2     4.862870    16A1     4.863230

    Beta Occupied:

       1A1   -65.895647     2A1   -30.828865     3A1    -5.039298
       1B2    -3.398069     1B1    -3.398069     4A1    -3.398040
       5A1    -1.294418     2B1    -0.403348     2B2    -0.403348
       6A1    -0.401987

    Beta Virtual:

       7A1    -0.019779     8A1     0.202313     3B1     0.204939
       3B2     0.204939     9A1     0.530452    10A1     0.590584
       4B1     0.594397     4B2     0.594397     5B1     0.698680
       5B2     0.698680    11A1     0.698968    12A1     0.699558
       1A2     0.699558     6B1     1.494851     6B2     1.494851
      13A1     1.506638    14A1     1.959488     2A2     4.862198
      15A1     4.862293     7B1     4.863031     7B2     4.863031
      16A1     4.863427

    Final Occupation by Irrep:
             A1    A2    B1    B2
    DOCC [     6,    0,    2,    2 ]
    SOCC [     3,    0,    1,    1 ]
    NA   [     9,    0,    3,    3 ]
    NB   [     6,    0,    2,    2 ]

  @DF-UKS Final Energy:  -417.83436233731078

   => Energetics <=

    Nuclear Repulsion Energy =             18.1910179292140377
    One-Electron Energy =                -623.8760026227292883
    Two-Electron Energy =                 214.9387753303570605
    DFT Exchange-Correlation Energy =     -27.0881529741526030
    Empirical Dispersion Energy =           0.0000000000000000
    VV10 Nonlocal Energy =                  0.0000000000000000
    Total Energy =                       -417.8343623373107789

  UHF NO Occupations:
  HONO-2 :    3 B1 1.0000000
  HONO-1 :    9 A1 1.0000000
  HONO-0 :    3 B2 1.0000000
  LUNO+0 :   10 A1 0.0000009
  LUNO+1 :    4 B1 0.0000008
  LUNO+2 :    4 B2 0.0000008
  LUNO+3 :   11 A1 0.0000001

Computation Completed

Properties will be evaluated at   0.000000,   0.000000,   0.000000 [a0]

Properties computed using the SCF density matrix

 Multipole Moments:

 ------------------------------------------------------------------------------------
     Multipole            Electronic (a.u.)      Nuclear  (a.u.)        Total (a.u.)
 ------------------------------------------------------------------------------------

 L = 1.  Multiply by 2.5417464519 to convert [e a0] to [Debye]
 Dipole X            :          0.0000000            0.0000000            0.0000000
 Dipole Y            :          0.0000000            0.0000000            0.0000000
 Dipole Z            :          3.2280497           -0.0200382            3.2080115
 Magnitude           :                                                    3.2080115

 ------------------------------------------------------------------------------------

*** tstop() called on Joses-MacBook-Pro-2.local at Thu Jul 17 11:01:30 2025
Module time:
	user time   =       2.36 seconds =       0.04 minutes
	system time =       3.32 seconds =       0.06 minutes
	total time  =          0 seconds =       0.00 minutes
Total time:
	user time   =      94.93 seconds =       1.58 minutes
	system time =     106.73 seconds =       1.78 minutes
	total time  =         21 seconds =       0.35 minutes

*** tstart() called on Joses-MacBook-Pro-2.local
*** at Thu Jul 17 11:01:30 2025

         ------------------------------------------------------------
                                   SCF GRAD
                          Rob Parrish, Justin Turney,
                       Andy Simmonett, and Alex Sokolov
         ------------------------------------------------------------

  ==> Geometry <==

    Molecular point group: c2v
    Full point group: C_inf_v

    Geometry (in Angstrom), charge = -1, multiplicity = 6:

       Center              X                  Y                   Z               Mass
    ------------   -----------------  -----------------  -----------------  -----------------
         NE           0.000000000000     0.000000000000     2.375243749969    19.992440176200
         SI           0.000000000000     0.000000000000    -1.697360091228    27.976926534650

  Nuclear repulsion =   18.191017929214038

  ==> Basis Set <==

  Basis Set: CC-PVDZ
    Blend: CC-PVDZ
    Number of shells: 14
    Number of basis functions: 32
    Number of Cartesian functions: 34
    Spherical Harmonics?: true
    Max angular momentum: 2

  ==> DFJKGrad: Density-Fitted SCF Gradients <==

    Gradient:                    1
    J tasked:                  Yes
    K tasked:                  Yes
    wK tasked:                  No
    OpenMP threads:              1
    Integrals threads:           1
    Memory [MiB]:              375
    Schwarz Cutoff:          1E-12
    Fitting Condition:       1E-10

   => Auxiliary Basis Set <=

  Basis Set: (CC-PVDZ AUX)
    Blend: CC-PVDZ-JKFIT
    Number of shells: 60
    Number of basis functions: 182
    Number of Cartesian functions: 211
    Spherical Harmonics?: true
    Max angular momentum: 3

  ==> DFT Potential <==

   => LibXC <=

    Version 6.2.2
    S. Lehtola, C. Steigemann, M. J.T. Oliveira, and M. A.L. Marques.,  SoftwareX 7, 1â€“5 (2018) (10.1016/j.softx.2017.11.002)

   => Composite Functional: B3LYP <=

    B3LYP Hyb-GGA Exchange-Correlation Functional

    P. J. Stephens, F. J. Devlin, C. F. Chabalowski, and M. J. Frisch.,  J. Phys. Chem. 98, 11623 (1994) (10.1021/j100096a001)

    Deriv               =              1
    GGA                 =           TRUE
    Meta                =          FALSE

    Exchange Hybrid     =           TRUE
    MP2 Hybrid          =          FALSE

   => Exchange Functionals <=

    0.0800   Slater exchange
    0.7200         Becke 88

   => Exact (HF) Exchange <=

    0.2000               HF

   => Correlation Functionals <=

    0.1900   Vosko, Wilk & Nusair (VWN5_RPA)
    0.8100   Lee, Yang & Parr

   => LibXC Density Thresholds  <==

    XC_HYB_GGA_XC_B3LYP:  1.00E-15

   => Molecular Quadrature <=

    Radial Scheme          =       TREUTLER
    Pruning Scheme         =           NONE
    Nuclear Scheme         =       TREUTLER

    Blocking Scheme        =         OCTREE
    BS radius alpha        =              1
    Pruning alpha          =              1
    Radial Points          =             75
    Spherical Points       =            302
    Total Points           =          43081
    Total Blocks           =            417
    Max Points             =            256
    Max Functions          =             32
    Weights Tolerance      =       1.00E-15

  -Total Gradient:
     Atom            X                  Y                   Z
    ------   -----------------  -----------------  -----------------
       1        0.000000000000     0.000000000000    -0.000000615735
       2        0.000000000000    -0.000000000000     0.000036848173

*** tstop() called on Joses-MacBook-Pro-2.local at Thu Jul 17 11:01:30 2025
Module time:
	user time   =       1.23 seconds =       0.02 minutes
	system time =       1.37 seconds =       0.02 minutes
	total time  =          0 seconds =       0.00 minutes
Total time:
	user time   =      96.16 seconds =       1.60 minutes
	system time =     108.10 seconds =       1.80 minutes
	total time  =         21 seconds =       0.35 minutes

    			-----------------------------------------

    			 OPTKING 3.0: for geometry optimizations

    			     By R.A. King, Bethel University

    			        with contributions from

    			    A.V. Copan, J. Cayton, A. Heide

    			-----------------------------------------

	                            ===> Fragment 1 <==

	 Z (Atomic Numbers)          Masses                          Geom
	      10.000000            19.992440          0.00000000  0.00000000  4.48856017
	      14.000000            27.976927          0.00000000  0.00000000 -3.20754571

	 - Coordinate -           - BOHR/RAD -       - ANG/DEG -
	 R(1,2)           =         7.696106           4.072604

	        --- Internal Coordinate Step in ANG or DEG, aJ/ANG or AJ/DEG ---
	-------------------------------------------------------------------------------
	           Coordinate      Previous         Force          Change          New
	           ----------      --------        ------          ------        ------
	               R(1,2)       4.07260        0.00015        0.00704       4.07964
	-------------------------------------------------------------------------------

	                                 ==> Convergence Check <==

	Measures of convergence in internal coordinates in au.

	Criteria marked as inactive (o), active & met (*), and active & unmet ( ).

	----------------------------------------------------------------------------------------------
	   Step    Total Energy     Delta E     Max Force     RMS Force      Max Disp      RMS Disp
	----------------------------------------------------------------------------------------------
	  Convergence Criteria     1.00e-06 *    3.00e-04 *             o    1.20e-03 *             o
	----------------------------------------------------------------------------------------------
	    20    -417.83436234   -2.91e-07 *    1.87e-05 *    1.87e-05 o    1.33e-02      1.33e-02 o  ~
	----------------------------------------------------------------------------------------------

Next Geometry in Ang
	Fragment 1 (Ang)

	   Ne   0.0000000000   0.0000000000   2.3787632202
	   Si   0.0000000000   0.0000000000  -1.7008795615

    Final optimized geometry and variables:
    Molecular point group: c2v
    Full point group: C_inf_v

    Geometry (in Angstrom), charge = -1, multiplicity = 6:

    NE           0.000000000000     0.000000000000     2.375243749969
    SI           0.000000000000     0.000000000000    -1.697360091228

    Psi4 stopped on: Thursday, 17 July 2025 11:01AM
    Psi4 wall time for execution: 0:00:21.59

*** Psi4 exiting successfully. Buy a developer a beer!
