                               Psi4 1.9.1 release

  ==> Input File <==

--------------------------------------------------------------------------
molecule {
-1 6
Ar   0.00000        0.60000        0.00000
Ar   0.00000       -0.60000        0.00000
}

set {
basis              cc-pvdz
reference          uks
maxiter            500
geom_maxiter       500
DAMPING_PERCENTAGE 1
guess              SAP
}

optimize('b3lyp')
--------------------------------------------------------------------------

    Molecular point group: d2h
  Charge       = -1
  Multiplicity = 6
  Basis Set: CC-PVDZ
    Blend: CC-PVDZ
  Basis Set: (CC-PVDZ AUX)
    Blend: CC-PVDZ-JKFIT
  @DF-UKS Final Energy: -1051.97250171092787
    Total Energy =                      -1051.9725017109278724
 Dipole X            :          0.0000000            0.0000000            0.0000000
 Dipole Y            :          0.0000000            0.0000000            0.0000000
 Dipole Z            :          0.0000000            0.0000000            0.0000000
 Magnitude           :                                                    0.0000000
    Molecular point group: d2h
  Basis Set: CC-PVDZ
    Blend: CC-PVDZ
  Basis Set: (CC-PVDZ AUX)
    Blend: CC-PVDZ-JKFIT
  Basis Set: CC-PVDZ
    Blend: CC-PVDZ
  Basis Set: (CC-PVDZ AUX)
    Blend: CC-PVDZ-JKFIT
  @DF-UKS Final Energy: -1052.00588326324259
    Total Energy =                      -1052.0058832632425947
  Basis Set: CC-PVDZ
    Blend: CC-PVDZ
  Basis Set: (CC-PVDZ AUX)
    Blend: CC-PVDZ-JKFIT
  Basis Set: CC-PVDZ
    Blend: CC-PVDZ
  @DF-UKS Final Energy: -1052.06654215609319
    Total Energy =                      -1052.0665421560931918
  @DF-UKS Final Energy: -1052.25389101879432
    Total Energy =                      -1052.2538910187943202
  @DF-UKS Final Energy: -1052.54911908713984
    Total Energy =                      -1052.5491190871398430
  @DF-UKS Final Energy: -1052.62477128550472
    Total Energy =                      -1052.6247712855047212
  @DF-UKS Final Energy: -1052.65073601363611
    Total Energy =                      -1052.6507360136361058
  @DF-UKS Final Energy: -1052.66360227986434
    Total Energy =                      -1052.6636022798643353
  @DF-UKS Final Energy: -1052.67283334043032
    Total Energy =                      -1052.6728333404303157
  @DF-UKS Final Energy: -1052.67983121507496
    Total Energy =                      -1052.6798312150749553
  @DF-UKS Final Energy: -1052.75661416043681
    Total Energy =                      -1052.7566141604368113
  @DF-UKS Final Energy: -1052.81655571239639
    Total Energy =                      -1052.8165557123963936
  @DF-UKS Final Energy: -1052.81670848172325
    Total Energy =                      -1052.8167084817232535
  Basis Set: (CC-PVDZ AUX)
    Blend: CC-PVDZ-JKFIT
  Basis Set: CC-PVDZ
    Blend: CC-PVDZ
  Basis Set: (CC-PVDZ AUX)
    Blend: CC-PVDZ-JKFIT
  @DF-UKS Final Energy: -1052.81691078084168
    Total Energy =                      -1052.8169107808416811
  Basis Set: CC-PVDZ
    Blend: CC-PVDZ
  Basis Set: (CC-PVDZ AUX)
    Blend: CC-PVDZ-JKFIT
  Charge       = -1
  Multiplicity = 6
  Basis Set: CC-PVDZ
    Blend: CC-PVDZ
  Basis Set: (CC-PVDZ AUX)
    Blend: CC-PVDZ-JKFIT

    Orbital Energies [Eh]
    ---------------------

    Alpha Occupied:

       1B2u -114.829533     1Ag  -114.829533     2B2u  -10.897151
       2Ag   -10.897073     3Ag    -8.453403     3B2u   -8.453394
       1B1g   -8.452630     1B3u   -8.452629     1B3g   -8.438218
       1B1u   -8.438217     4Ag    -0.833035     4B2u   -0.766558
       5Ag    -0.334727     2B3u   -0.282792     2B1u   -0.251317
       2B1g   -0.237894     2B3g   -0.204782     5B2u   -0.160866
       3B3u    0.641584     6B2u    0.654714     3B1u    0.662507

    Alpha Virtual:

       3B1g    0.777959     6Ag     0.797584     3B3g    0.797657
       7Ag     0.877178     8Ag     0.925541     4B3u    0.963837
       7B2u    0.972276     4B1u    0.988749     1B2g    1.017132
       9Ag     1.019395     1Au     1.027152     8B2u    1.028984
       4B1g    1.075850     4B3g    1.101580     9B2u    1.551497

    Beta Occupied:

       1Ag  -114.808521     1B2u -114.808520     2B2u  -10.877139
       2Ag   -10.877095     3Ag    -8.421584     3B2u   -8.421571
       1B3u   -8.419308     1B1g   -8.419308     1B3g   -8.415665
       1B1u   -8.415665     4Ag    -0.748535     4B2u   -0.670392
       5Ag    -0.232822     2B1u   -0.202982     2B3u   -0.178785
       2B3g   -0.153199

    Beta Virtual:

       2B1g   -0.083267     5B2u   -0.002632     3B1u    0.772308
       3B3u    0.773145     6B2u    0.789101     3B3g    0.852832
       3B1g    0.853634     6Ag     0.892621     7Ag     0.950274
       8Ag     0.998234     7B2u    1.041146     4B1u    1.042937
       4B3u    1.044231     1B2g    1.076029     9Ag     1.077273
       1Au     1.087066     8B2u    1.088283     4B3g    1.167675
       4B1g    1.169730     9B2u    1.618038

    Final Occupation by Irrep:
             Ag   B1g   B2g   B3g    Au   B1u   B2u   B3u
    DOCC [     5,    1,    0,    2,    0,    2,    4,    2 ]
    SOCC [     0,    1,    0,    0,    0,    1,    2,    1 ]
    NA   [     5,    2,    0,    2,    0,    3,    6,    3 ]
    NB   [     5,    1,    0,    2,    0,    2,    4,    2 ]

  @DF-UKS Final Energy: -1052.81691108494624

   => Energetics <=

    Nuclear Repulsion Energy =             76.4313933564346968
    One-Electron Energy =               -1615.6436481611112868
    Two-Electron Energy =                 536.4449733978927952
    DFT Exchange-Correlation Energy =     -50.0496296781624466
    Empirical Dispersion Energy =           0.0000000000000000
    VV10 Nonlocal Energy =                  0.0000000000000000
    Total Energy =                      -1052.8169110849462413

  UHF NO Occupations:
  HONO-2 :    6B2u 1.0000000
  HONO-1 :    2B1g 1.0000000
  HONO-0 :    3B1u 1.0000000
  LUNO+0 :    6 Ag 0.0005335
  LUNO+1 :    7B2u 0.0003033
  LUNO+2 :    3B3g 0.0002907
  LUNO+3 :    7 Ag 0.0002770

Computation Completed

Properties will be evaluated at   0.000000,   0.000000,   0.000000 [a0]

Properties computed using the SCF density matrix

 Multipole Moments:

 ------------------------------------------------------------------------------------
     Multipole            Electronic (a.u.)      Nuclear  (a.u.)        Total (a.u.)
 ------------------------------------------------------------------------------------

 L = 1.  Multiply by 2.5417464519 to convert [e a0] to [Debye]
 Dipole X            :          0.0000000            0.0000000            0.0000000
 Dipole Y            :          0.0000000            0.0000000            0.0000000
 Dipole Z            :          0.0000000            0.0000000            0.0000000
 Magnitude           :                                                    0.0000000

 ------------------------------------------------------------------------------------

*** tstop() called on Joses-MacBook-Pro-2.local at Thu Jul 17 12:13:04 2025
Module time:
	user time   =       5.79 seconds =       0.10 minutes
	system time =       1.76 seconds =       0.03 minutes
	total time  =          0 seconds =       0.00 minutes
Total time:
	user time   =     157.16 seconds =       2.62 minutes
	system time =      43.01 seconds =       0.72 minutes
	total time  =         18 seconds =       0.30 minutes

*** tstart() called on Joses-MacBook-Pro-2.local
*** at Thu Jul 17 12:13:04 2025

         ------------------------------------------------------------
                                   SCF GRAD
                          Rob Parrish, Justin Turney,
                       Andy Simmonett, and Alex Sokolov
         ------------------------------------------------------------

  ==> Geometry <==

    Molecular point group: d2h
    Full point group: D_inf_h

    Geometry (in Angstrom), charge = -1, multiplicity = 6:

       Center              X                  Y                   Z               Mass
    ------------   -----------------  -----------------  -----------------  -----------------
         AR          -0.000000000000     1.121616450570     0.000000000000    39.962383123700
         AR           0.000000000000    -1.121616450570     0.000000000000    39.962383123700

  Nuclear repulsion =   76.431393356434697

  ==> Basis Set <==

  Basis Set: CC-PVDZ
    Blend: CC-PVDZ
    Number of shells: 16
    Number of basis functions: 36
    Number of Cartesian functions: 38
    Spherical Harmonics?: true
    Max angular momentum: 2

  ==> DFJKGrad: Density-Fitted SCF Gradients <==

    Gradient:                    1
    J tasked:                  Yes
    K tasked:                  Yes
    wK tasked:                  No
    OpenMP threads:              1
    Integrals threads:           1
    Memory [MiB]:              375
    Schwarz Cutoff:          1E-12
    Fitting Condition:       1E-10

   => Auxiliary Basis Set <=

  Basis Set: (CC-PVDZ AUX)
    Blend: CC-PVDZ-JKFIT
    Number of shells: 72
    Number of basis functions: 224
    Number of Cartesian functions: 260
    Spherical Harmonics?: true
    Max angular momentum: 3

  ==> DFT Potential <==

   => LibXC <=

    Version 6.2.2
    S. Lehtola, C. Steigemann, M. J.T. Oliveira, and M. A.L. Marques.,  SoftwareX 7, 1â€“5 (2018) (10.1016/j.softx.2017.11.002)

   => Composite Functional: B3LYP <=

    B3LYP Hyb-GGA Exchange-Correlation Functional

    P. J. Stephens, F. J. Devlin, C. F. Chabalowski, and M. J. Frisch.,  J. Phys. Chem. 98, 11623 (1994) (10.1021/j100096a001)

    Deriv               =              1
    GGA                 =           TRUE
    Meta                =          FALSE

    Exchange Hybrid     =           TRUE
    MP2 Hybrid          =          FALSE

   => Exchange Functionals <=

    0.0800   Slater exchange
    0.7200         Becke 88

   => Exact (HF) Exchange <=

    0.2000               HF

   => Correlation Functionals <=

    0.1900   Vosko, Wilk & Nusair (VWN5_RPA)
    0.8100   Lee, Yang & Parr

   => LibXC Density Thresholds  <==

    XC_HYB_GGA_XC_B3LYP:  1.00E-15

   => Molecular Quadrature <=

    Radial Scheme          =       TREUTLER
    Pruning Scheme         =           NONE
    Nuclear Scheme         =       TREUTLER

    Blocking Scheme        =         OCTREE
    BS radius alpha        =              1
    Pruning alpha          =              1
    Radial Points          =             75
    Spherical Points       =            302
    Total Points           =          39150
    Total Blocks           =            366
    Max Points             =            250
    Max Functions          =             36
    Weights Tolerance      =       1.00E-15

  -Total Gradient:
     Atom            X                  Y                   Z
    ------   -----------------  -----------------  -----------------
       1        0.000000000000    -0.000016392427    -0.000000000000
       2       -0.000000000000     0.000016392427    -0.000000000000

*** tstop() called on Joses-MacBook-Pro-2.local at Thu Jul 17 12:13:05 2025
Module time:
	user time   =       2.37 seconds =       0.04 minutes
	system time =       1.21 seconds =       0.02 minutes
	total time  =          1 seconds =       0.02 minutes
Total time:
	user time   =     159.55 seconds =       2.66 minutes
	system time =      44.22 seconds =       0.74 minutes
	total time  =         19 seconds =       0.32 minutes

    			-----------------------------------------

    			 OPTKING 3.0: for geometry optimizations

    			     By R.A. King, Bethel University

    			        with contributions from

    			    A.V. Copan, J. Cayton, A. Heide

    			-----------------------------------------

	                            ===> Fragment 1 <==

	 Z (Atomic Numbers)          Masses                          Geom
	      18.000000            39.962383         -0.00000000  2.11954791  0.00000000
	      18.000000            39.962383          0.00000000 -2.11954791  0.00000000

	 - Coordinate -           - BOHR/RAD -       - ANG/DEG -
	 R(1,2)           =         4.239096           2.243233

	        --- Internal Coordinate Step in ANG or DEG, aJ/ANG or AJ/DEG ---
	-------------------------------------------------------------------------------
	           Coordinate      Previous         Force          Change          New
	           ----------      --------        ------          ------        ------
	               R(1,2)       2.24323        0.00014        0.00004       2.24327
	-------------------------------------------------------------------------------

	                                 ==> Convergence Check <==

	Measures of convergence in internal coordinates in au.

	Criteria marked as inactive (o), active & met (*), and active & unmet ( ).

	----------------------------------------------------------------------------------------------
	   Step    Total Energy     Delta E     Max Force     RMS Force      Max Disp      RMS Disp
	----------------------------------------------------------------------------------------------
	  Convergence Criteria     1.00e-06 *    3.00e-04 *             o    1.20e-03 *             o
	----------------------------------------------------------------------------------------------
	    15   -1052.81691108   -3.04e-07 *    1.64e-05 *    1.64e-05 o    6.83e-05 *    6.83e-05 o  ~
	----------------------------------------------------------------------------------------------

Next Geometry in Ang
	Fragment 1 (Ang)

	   Ar  -0.0000000000   1.1216345305   0.0000000000
	   Ar   0.0000000000  -1.1216345305   0.0000000000

    Final optimized geometry and variables:
    Molecular point group: d2h
    Full point group: D_inf_h

    Geometry (in Angstrom), charge = -1, multiplicity = 6:

    AR          -0.000000000000     1.121616450570     0.000000000000
    AR           0.000000000000    -1.121616450570     0.000000000000

    Psi4 stopped on: Thursday, 17 July 2025 12:13PM
    Psi4 wall time for execution: 0:00:19.75

*** Psi4 exiting successfully. Buy a developer a beer!
