                               Psi4 1.9.1 release

  ==> Input File <==

--------------------------------------------------------------------------
molecule {
-1 6
Si   0.00000        0.60000        0.00000
Si   0.00000       -0.60000        0.00000
}

set {
basis              cc-pvdz
reference          uks
maxiter            500
geom_maxiter       500
DAMPING_PERCENTAGE 1
guess              SAP
}

optimize('b3lyp')
--------------------------------------------------------------------------

    Molecular point group: d2h
  Charge       = -1
  Multiplicity = 6
  Basis Set: CC-PVDZ
    Blend: CC-PVDZ
  Basis Set: (CC-PVDZ AUX)
    Blend: CC-PVDZ-JKFIT
  @DF-UKS Final Energy:  -577.42841360564728
    Total Energy =                       -577.4284136056472789
 Dipole X            :          0.0000000            0.0000000            0.0000000
 Dipole Y            :          0.0000000            0.0000000            0.0000000
 Dipole Z            :          0.0000000            0.0000000            0.0000000
 Magnitude           :                                                    0.0000000
    Molecular point group: d2h
  Basis Set: CC-PVDZ
    Blend: CC-PVDZ
  Basis Set: (CC-PVDZ AUX)
    Blend: CC-PVDZ-JKFIT
  Basis Set: CC-PVDZ
    Blend: CC-PVDZ
  Basis Set: (CC-PVDZ AUX)
    Blend: CC-PVDZ-JKFIT
  @DF-UKS Final Energy:  -577.45281893278025
    Total Energy =                       -577.4528189327803602
  Basis Set: CC-PVDZ
    Blend: CC-PVDZ
  Basis Set: (CC-PVDZ AUX)
    Blend: CC-PVDZ-JKFIT
  Basis Set: CC-PVDZ
    Blend: CC-PVDZ
  @DF-UKS Final Energy:  -577.49967696200952
    Total Energy =                       -577.4996769620095165
  @DF-UKS Final Energy:  -577.66669361951926
    Total Energy =                       -577.6666936195192648
  @DF-UKS Final Energy:  -578.29618194205784
    Total Energy =                       -578.2961819420578422
  @DF-UKS Final Energy:  -578.53627488093150
    Total Energy =                       -578.5362748809315008
  @DF-UKS Final Energy:  -578.72236756056725
    Total Energy =                       -578.7223675605671360
  @DF-UKS Final Energy:  -578.82145726048805
    Total Energy =                       -578.8214572604880459
  @DF-UKS Final Energy:  -578.84788604437142
    Total Energy =                       -578.8478860443715348
  @DF-UKS Final Energy:  -578.86289951776484
    Total Energy =                       -578.8628995177648449
  @DF-UKS Final Energy:  -578.86892555697204
    Total Energy =                       -578.8689255569720444
  @DF-UKS Final Energy:  -578.87107263491555
    Total Energy =                       -578.8710726349155493
  @DF-UKS Final Energy:  -578.87151817081337
    Total Energy =                       -578.8715181708133741
  @DF-UKS Final Energy:  -578.87164153372828
    Total Energy =                       -578.8716415337282797
  @DF-UKS Final Energy:  -578.87165623151122
    Total Energy =                       -578.8716562315112242
  Basis Set: (CC-PVDZ AUX)
    Blend: CC-PVDZ-JKFIT
  Basis Set: CC-PVDZ
    Blend: CC-PVDZ
  Basis Set: (CC-PVDZ AUX)
    Blend: CC-PVDZ-JKFIT
  @DF-UKS Final Energy:  -578.87165805230609
    Total Energy =                       -578.8716580523062021
  Basis Set: CC-PVDZ
    Blend: CC-PVDZ
  Basis Set: (CC-PVDZ AUX)
    Blend: CC-PVDZ-JKFIT
  Charge       = -1
  Multiplicity = 6
  Basis Set: CC-PVDZ
    Blend: CC-PVDZ
  Basis Set: (CC-PVDZ AUX)
    Blend: CC-PVDZ-JKFIT

    Orbital Energies [Eh]
    ---------------------

    Alpha Occupied:

       1Ag   -65.934455     1B2u  -65.934455     2B2u   -5.077645
       2Ag    -5.077599     3Ag    -3.437894     3B2u   -3.437863
       1B1g   -3.436614     1B3g   -3.436614     1B3u   -3.436611
       1B1u   -3.436611     4Ag    -0.284445     4B2u   -0.214670
       5Ag    -0.025534     2B3u   -0.013200     2B1u   -0.013200
       2B1g    0.038836     2B3g    0.038836

    Alpha Virtual:

       5B2u    0.158695     6Ag     0.419138     7Ag     0.433398
       6B2u    0.456509     3B1u    0.475262     3B3u    0.475262
       4B1u    0.495661     4B3u    0.495661     3B3g    0.506029
       3B1g    0.506029     1B2g    0.532244     8Ag     0.532245
       7B2u    0.548913     1Au     0.566715     8B2u    0.566716
       9Ag     0.653119     4B3g    0.680480     4B1g    0.680480
       9B2u    0.910806

    Beta Occupied:

       1B2u  -65.927925     1Ag   -65.927925     2B2u   -5.070311
       2Ag    -5.070253     3Ag    -3.429739     3B2u   -3.429714
       1B1g   -3.424729     1B3g   -3.424729     1B3u   -3.424725
       1B1u   -3.424725     4Ag    -0.206872     4B2u   -0.131619

    Beta Virtual:

       5Ag     0.072747     2B3u    0.100583     2B1u    0.100583
       2B1g    0.155198     2B3g    0.155198     5B2u    0.207986
       6Ag     0.456444     7Ag     0.475703     6B2u    0.491939
       3B1u    0.533885     3B3u    0.533885     4B1u    0.545067
       4B3u    0.545067     3B3g    0.548731     3B1g    0.548731
       7B2u    0.584639     1B2g    0.609202     8Ag     0.609204
       1Au     0.644052     8B2u    0.644053     9Ag     0.695428
       4B3g    0.739645     4B1g    0.739645     9B2u    0.956017

    Final Occupation by Irrep:
             Ag   B1g   B2g   B3g    Au   B1u   B2u   B3u
    DOCC [     4,    1,    0,    1,    0,    1,    4,    1 ]
    SOCC [     1,    1,    0,    1,    0,    1,    0,    1 ]
    NA   [     5,    2,    0,    2,    0,    2,    4,    2 ]
    NB   [     4,    1,    0,    1,    0,    1,    4,    1 ]

  @DF-UKS Final Energy:  -578.87165828972832

   => Energetics <=

    Nuclear Repulsion Energy =             36.8875395111119602
    One-Electron Energy =                -881.4545961059335468
    Two-Electron Energy =                 299.4519495145498240
    DFT Exchange-Correlation Energy =     -33.7565512094565534
    Empirical Dispersion Energy =           0.0000000000000000
    VV10 Nonlocal Energy =                  0.0000000000000000
    Total Energy =                       -578.8716582897283160

  UHF NO Occupations:
  HONO-2 :    2B3u 1.0000000
  HONO-1 :    5 Ag 1.0000000
  HONO-0 :    2B1u 1.0000000
  LUNO+0 :    5B2u 0.0003466
  LUNO+1 :    6 Ag 0.0001902
  LUNO+2 :    6B2u 0.0000001
  LUNO+3 :    3B3u 0.0000000

Computation Completed

Properties will be evaluated at   0.000000,   0.000000,   0.000000 [a0]

Properties computed using the SCF density matrix

 Multipole Moments:

 ------------------------------------------------------------------------------------
     Multipole            Electronic (a.u.)      Nuclear  (a.u.)        Total (a.u.)
 ------------------------------------------------------------------------------------

 L = 1.  Multiply by 2.5417464519 to convert [e a0] to [Debye]
 Dipole X            :          0.0000000            0.0000000            0.0000000
 Dipole Y            :          0.0000000            0.0000000            0.0000000
 Dipole Z            :          0.0000000            0.0000000            0.0000000
 Magnitude           :                                                    0.0000000

 ------------------------------------------------------------------------------------

*** tstop() called on Joses-MacBook-Pro-2.local at Thu Jul 17 11:47:57 2025
Module time:
	user time   =       8.31 seconds =       0.14 minutes
	system time =       2.28 seconds =       0.04 minutes
	total time  =          1 seconds =       0.02 minutes
Total time:
	user time   =     229.00 seconds =       3.82 minutes
	system time =      50.26 seconds =       0.84 minutes
	total time  =         27 seconds =       0.45 minutes

*** tstart() called on Joses-MacBook-Pro-2.local
*** at Thu Jul 17 11:47:57 2025

         ------------------------------------------------------------
                                   SCF GRAD
                          Rob Parrish, Justin Turney,
                       Andy Simmonett, and Alex Sokolov
         ------------------------------------------------------------

  ==> Geometry <==

    Molecular point group: d2h
    Full point group: D_inf_h

    Geometry (in Angstrom), charge = -1, multiplicity = 6:

       Center              X                  Y                   Z               Mass
    ------------   -----------------  -----------------  -----------------  -----------------
         SI          -0.000000000000     1.405877630576     0.000000000000    27.976926534650
         SI           0.000000000000    -1.405877630576     0.000000000000    27.976926534650

  Nuclear repulsion =   36.887539511111960

  ==> Basis Set <==

  Basis Set: CC-PVDZ
    Blend: CC-PVDZ
    Number of shells: 16
    Number of basis functions: 36
    Number of Cartesian functions: 38
    Spherical Harmonics?: true
    Max angular momentum: 2

  ==> DFJKGrad: Density-Fitted SCF Gradients <==

    Gradient:                    1
    J tasked:                  Yes
    K tasked:                  Yes
    wK tasked:                  No
    OpenMP threads:              1
    Integrals threads:           1
    Memory [MiB]:              375
    Schwarz Cutoff:          1E-12
    Fitting Condition:       1E-10

   => Auxiliary Basis Set <=

  Basis Set: (CC-PVDZ AUX)
    Blend: CC-PVDZ-JKFIT
    Number of shells: 72
    Number of basis functions: 224
    Number of Cartesian functions: 260
    Spherical Harmonics?: true
    Max angular momentum: 3

  ==> DFT Potential <==

   => LibXC <=

    Version 6.2.2
    S. Lehtola, C. Steigemann, M. J.T. Oliveira, and M. A.L. Marques.,  SoftwareX 7, 1â€“5 (2018) (10.1016/j.softx.2017.11.002)

   => Composite Functional: B3LYP <=

    B3LYP Hyb-GGA Exchange-Correlation Functional

    P. J. Stephens, F. J. Devlin, C. F. Chabalowski, and M. J. Frisch.,  J. Phys. Chem. 98, 11623 (1994) (10.1021/j100096a001)

    Deriv               =              1
    GGA                 =           TRUE
    Meta                =          FALSE

    Exchange Hybrid     =           TRUE
    MP2 Hybrid          =          FALSE

   => Exchange Functionals <=

    0.0800   Slater exchange
    0.7200         Becke 88

   => Exact (HF) Exchange <=

    0.2000               HF

   => Correlation Functionals <=

    0.1900   Vosko, Wilk & Nusair (VWN5_RPA)
    0.8100   Lee, Yang & Parr

   => LibXC Density Thresholds  <==

    XC_HYB_GGA_XC_B3LYP:  1.00E-15

   => Molecular Quadrature <=

    Radial Scheme          =       TREUTLER
    Pruning Scheme         =           NONE
    Nuclear Scheme         =       TREUTLER

    Blocking Scheme        =         OCTREE
    BS radius alpha        =              1
    Pruning alpha          =              1
    Radial Points          =             75
    Spherical Points       =            302
    Total Points           =          41370
    Total Blocks           =            384
    Max Points             =            255
    Max Functions          =             36
    Weights Tolerance      =       1.00E-15

  -Total Gradient:
     Atom            X                  Y                   Z
    ------   -----------------  -----------------  -----------------
       1        0.000000000000    -0.000022244489     0.000000000000
       2       -0.000000000000     0.000022244489     0.000000000000

*** tstop() called on Joses-MacBook-Pro-2.local at Thu Jul 17 11:47:58 2025
Module time:
	user time   =       2.83 seconds =       0.05 minutes
	system time =       1.51 seconds =       0.03 minutes
	total time  =          1 seconds =       0.02 minutes
Total time:
	user time   =     231.83 seconds =       3.86 minutes
	system time =      51.77 seconds =       0.86 minutes
	total time  =         28 seconds =       0.47 minutes

    			-----------------------------------------

    			 OPTKING 3.0: for geometry optimizations

    			     By R.A. King, Bethel University

    			        with contributions from

    			    A.V. Copan, J. Cayton, A. Heide

    			-----------------------------------------

	                            ===> Fragment 1 <==

	 Z (Atomic Numbers)          Masses                          Geom
	      14.000000            27.976927         -0.00000000  2.65672369  0.00000000
	      14.000000            27.976927          0.00000000 -2.65672369  0.00000000

	 - Coordinate -           - BOHR/RAD -       - ANG/DEG -
	 R(1,2)           =         5.313447           2.811755

	        --- Internal Coordinate Step in ANG or DEG, aJ/ANG or AJ/DEG ---
	-------------------------------------------------------------------------------
	           Coordinate      Previous         Force          Change          New
	           ----------      --------        ------          ------        ------
	               R(1,2)       2.81176        0.00018        0.00049       2.81225
	-------------------------------------------------------------------------------

	                                 ==> Convergence Check <==

	Measures of convergence in internal coordinates in au.

	Criteria marked as inactive (o), active & met (*), and active & unmet ( ).

	----------------------------------------------------------------------------------------------
	   Step    Total Energy     Delta E     Max Force     RMS Force      Max Disp      RMS Disp
	----------------------------------------------------------------------------------------------
	  Convergence Criteria     1.00e-06 *    3.00e-04 *             o    1.20e-03 *             o
	----------------------------------------------------------------------------------------------
	    17    -578.87165829   -2.37e-07 *    2.22e-05 *    2.22e-05 o    9.32e-04 *    9.32e-04 o  ~
	----------------------------------------------------------------------------------------------

Next Geometry in Ang
	Fragment 1 (Ang)

	   Si  -0.0000000000   1.4061242176   0.0000000000
	   Si   0.0000000000  -1.4061242176   0.0000000000

    Final optimized geometry and variables:
    Molecular point group: d2h
    Full point group: D_inf_h

    Geometry (in Angstrom), charge = -1, multiplicity = 6:

    SI          -0.000000000000     1.405877630576     0.000000000000
    SI           0.000000000000    -1.405877630576     0.000000000000

    Psi4 stopped on: Thursday, 17 July 2025 11:47AM
    Psi4 wall time for execution: 0:00:28.93

*** Psi4 exiting successfully. Buy a developer a beer!
