                               Psi4 1.9.1 release

  ==> Input File <==

--------------------------------------------------------------------------
molecule {
-1 6
B   0.00000        0.60000        0.00000
N   0.00000       -0.60000        0.00000
}

set {
basis              cc-pvdz
reference          uks
maxiter            500
geom_maxiter       500
DAMPING_PERCENTAGE 1
guess              SAP
}

optimize('b3lyp')
--------------------------------------------------------------------------

    Molecular point group: c2v
  Charge       = -1
  Multiplicity = 6
  Basis Set: CC-PVDZ
    Blend: CC-PVDZ
  Basis Set: (CC-PVDZ AUX)
    Blend: CC-PVDZ-JKFIT
  @DF-UKS Final Energy:   -79.09687374254428
    Total Energy =                        -79.0968737425442612
 Dipole X            :          0.0000000            0.0000000            0.0000000
 Dipole Y            :          0.0000000            0.0000000            0.0000000
 Dipole Z            :         -0.5686206           -0.6391457           -1.2077664
 Magnitude           :                                                    1.2077664
    Molecular point group: c2v
  Basis Set: CC-PVDZ
    Blend: CC-PVDZ
  Basis Set: (CC-PVDZ AUX)
    Blend: CC-PVDZ-JKFIT
  Basis Set: CC-PVDZ
    Blend: CC-PVDZ
  Basis Set: (CC-PVDZ AUX)
    Blend: CC-PVDZ-JKFIT
  @DF-UKS Final Energy:   -79.22774926374269
    Total Energy =                        -79.2277492637426946
  Basis Set: CC-PVDZ
    Blend: CC-PVDZ
  Basis Set: (CC-PVDZ AUX)
    Blend: CC-PVDZ-JKFIT
  Basis Set: CC-PVDZ
    Blend: CC-PVDZ
  @DF-UKS Final Energy:   -79.24976882630668
    Total Energy =                        -79.2497688263066777
  @DF-UKS Final Energy:   -79.26205994383683
    Total Energy =                        -79.2620599438368458
  @DF-UKS Final Energy:   -79.26490849866587
    Total Energy =                        -79.2649084986658750
  @DF-UKS Final Energy:   -79.26574202456152
    Total Energy =                        -79.2657420245615185
  @DF-UKS Final Energy:   -79.26608217786189
    Total Energy =                        -79.2660821778618896
  @DF-UKS Final Energy:   -79.26616422954478
    Total Energy =                        -79.2661642295447848
  @DF-UKS Final Energy:   -79.26619025597415
    Total Energy =                        -79.2661902559741520
  Basis Set: (CC-PVDZ AUX)
    Blend: CC-PVDZ-JKFIT
  Basis Set: CC-PVDZ
    Blend: CC-PVDZ
  Basis Set: (CC-PVDZ AUX)
    Blend: CC-PVDZ-JKFIT
  @DF-UKS Final Energy:   -79.26619356150913
    Total Energy =                        -79.2661935615091124
  Basis Set: CC-PVDZ
    Blend: CC-PVDZ
  Basis Set: (CC-PVDZ AUX)
    Blend: CC-PVDZ-JKFIT
  Charge       = -1
  Multiplicity = 6
  Basis Set: CC-PVDZ
    Blend: CC-PVDZ
  Basis Set: (CC-PVDZ AUX)
    Blend: CC-PVDZ-JKFIT

    Orbital Energies [Eh]
    ---------------------

    Alpha Occupied:

       1A1   -14.144620     2A1    -6.517448     3A1    -0.544757
       4A1    -0.158256     1B1    -0.092190     1B2    -0.092190
       5A1    -0.029077     2B1     0.114158     2B2     0.114158

    Alpha Virtual:

       6A1     0.315042     3B1     0.530282     3B2     0.530282
       7A1     0.553885     8A1     0.594025     9A1     0.911354
       4B1     0.914802     4B2     0.914802     1A2     0.948492
      10A1     0.948493     5B2     1.040726     5B1     1.040726
      11A1     1.273876    12A1     1.442845    13A1     1.948856
       2A2     1.948858     6B2     2.125736     6B1     2.125736
      14A1     2.370201

    Beta Occupied:

       1A1   -14.101524     2A1    -6.494295     3A1    -0.402054
       4A1    -0.062467

    Beta Virtual:

       1B1     0.130113     1B2     0.130113     5A1     0.144455
       2B1     0.285087     2B2     0.285087     6A1     0.371115
       3B1     0.605616     3B2     0.605616     7A1     0.612821
       8A1     0.664851     9A1     0.961260     4B1     1.018564
       4B2     1.018564     1A2     1.053259    10A1     1.053259
       5B2     1.124491     5B1     1.124491    11A1     1.351788
      12A1     1.515769     2A2     2.095811    13A1     2.095813
       6B2     2.222622     6B1     2.222622    14A1     2.450330

    Final Occupation by Irrep:
             A1    A2    B1    B2
    DOCC [     4,    0,    0,    0 ]
    SOCC [     1,    0,    2,    2 ]
    NA   [     5,    0,    2,    2 ]
    NB   [     4,    0,    0,    0 ]

  @DF-UKS Final Energy:   -79.26619373075761

   => Energetics <=

    Nuclear Repulsion Energy =             10.5028099817886549
    One-Electron Energy =                -130.7192291821198467
    Two-Electron Energy =                  49.8520244975929927
    DFT Exchange-Correlation Energy =      -8.9017990280194130
    Empirical Dispersion Energy =           0.0000000000000000
    VV10 Nonlocal Energy =                  0.0000000000000000
    Total Energy =                        -79.2661937307576068

  UHF NO Occupations:
  HONO-2 :    1 B1 1.0000000
  HONO-1 :    2 B1 1.0000000
  HONO-0 :    5 A1 1.0000000
  LUNO+0 :    6 A1 0.0022113
  LUNO+1 :    7 A1 0.0009248
  LUNO+2 :    8 A1 0.0000005
  LUNO+3 :    9 A1 0.0000003

Computation Completed

Properties will be evaluated at   0.000000,   0.000000,   0.000000 [a0]

Properties computed using the SCF density matrix

 Multipole Moments:

 ------------------------------------------------------------------------------------
     Multipole            Electronic (a.u.)      Nuclear  (a.u.)        Total (a.u.)
 ------------------------------------------------------------------------------------

 L = 1.  Multiply by 2.5417464519 to convert [e a0] to [Debye]
 Dipole X            :          0.0000000            0.0000000            0.0000000
 Dipole Y            :          0.0000000            0.0000000            0.0000000
 Dipole Z            :         -0.2774352           -0.9392524           -1.2166877
 Magnitude           :                                                    1.2166877

 ------------------------------------------------------------------------------------

*** tstop() called on Joses-MacBook-Pro-2.local at Thu Jul 17 09:50:04 2025
Module time:
	user time   =       2.71 seconds =       0.05 minutes
	system time =       3.79 seconds =       0.06 minutes
	total time  =          0 seconds =       0.00 minutes
Total time:
	user time   =      45.45 seconds =       0.76 minutes
	system time =      55.32 seconds =       0.92 minutes
	total time  =          9 seconds =       0.15 minutes

*** tstart() called on Joses-MacBook-Pro-2.local
*** at Thu Jul 17 09:50:04 2025

         ------------------------------------------------------------
                                   SCF GRAD
                          Rob Parrish, Justin Turney,
                       Andy Simmonett, and Alex Sokolov
         ------------------------------------------------------------

  ==> Geometry <==

    Molecular point group: c2v
    Full point group: C_inf_v

    Geometry (in Angstrom), charge = -1, multiplicity = 6:

       Center              X                  Y                   Z               Mass
    ------------   -----------------  -----------------  -----------------  -----------------
         B            0.000000000000     0.000000000000     0.987261146704    11.009305360000
         N            0.000000000000     0.000000000000    -0.776190958549    14.003074004430

  Nuclear repulsion =   10.502809981788655

  ==> Basis Set <==

  Basis Set: CC-PVDZ
    Blend: CC-PVDZ
    Number of shells: 12
    Number of basis functions: 28
    Number of Cartesian functions: 30
    Spherical Harmonics?: true
    Max angular momentum: 2

  ==> DFJKGrad: Density-Fitted SCF Gradients <==

    Gradient:                    1
    J tasked:                  Yes
    K tasked:                  Yes
    wK tasked:                  No
    OpenMP threads:              1
    Integrals threads:           1
    Memory [MiB]:              375
    Schwarz Cutoff:          1E-12
    Fitting Condition:       1E-10

   => Auxiliary Basis Set <=

  Basis Set: (CC-PVDZ AUX)
    Blend: CC-PVDZ-JKFIT
    Number of shells: 48
    Number of basis functions: 140
    Number of Cartesian functions: 162
    Spherical Harmonics?: true
    Max angular momentum: 3

  ==> DFT Potential <==

   => LibXC <=

    Version 6.2.2
    S. Lehtola, C. Steigemann, M. J.T. Oliveira, and M. A.L. Marques.,  SoftwareX 7, 1â€“5 (2018) (10.1016/j.softx.2017.11.002)

   => Composite Functional: B3LYP <=

    B3LYP Hyb-GGA Exchange-Correlation Functional

    P. J. Stephens, F. J. Devlin, C. F. Chabalowski, and M. J. Frisch.,  J. Phys. Chem. 98, 11623 (1994) (10.1021/j100096a001)

    Deriv               =              1
    GGA                 =           TRUE
    Meta                =          FALSE

    Exchange Hybrid     =           TRUE
    MP2 Hybrid          =          FALSE

   => Exchange Functionals <=

    0.0800   Slater exchange
    0.7200         Becke 88

   => Exact (HF) Exchange <=

    0.2000               HF

   => Correlation Functionals <=

    0.1900   Vosko, Wilk & Nusair (VWN5_RPA)
    0.8100   Lee, Yang & Parr

   => LibXC Density Thresholds  <==

    XC_HYB_GGA_XC_B3LYP:  1.00E-15

   => Molecular Quadrature <=

    Radial Scheme          =       TREUTLER
    Pruning Scheme         =           NONE
    Nuclear Scheme         =       TREUTLER

    Blocking Scheme        =         OCTREE
    BS radius alpha        =              1
    Pruning alpha          =              1
    Radial Points          =             75
    Spherical Points       =            302
    Total Points           =          43295
    Total Blocks           =            394
    Max Points             =            255
    Max Functions          =             28
    Weights Tolerance      =       1.00E-15

  -Total Gradient:
     Atom            X                  Y                   Z
    ------   -----------------  -----------------  -----------------
       1        0.000000000000    -0.000000000000    -0.000022213400
       2        0.000000000000     0.000000000000     0.000031043869

*** tstop() called on Joses-MacBook-Pro-2.local at Thu Jul 17 09:50:04 2025
Module time:
	user time   =       0.44 seconds =       0.01 minutes
	system time =       1.21 seconds =       0.02 minutes
	total time  =          0 seconds =       0.00 minutes
Total time:
	user time   =      45.90 seconds =       0.77 minutes
	system time =      56.53 seconds =       0.94 minutes
	total time  =          9 seconds =       0.15 minutes

    			-----------------------------------------

    			 OPTKING 3.0: for geometry optimizations

    			     By R.A. King, Bethel University

    			        with contributions from

    			    A.V. Copan, J. Cayton, A. Heide

    			-----------------------------------------

	                            ===> Fragment 1 <==

	 Z (Atomic Numbers)          Masses                          Geom
	       5.000000            11.009305          0.00000000  0.00000000  1.86565318
	       7.000000            14.003074          0.00000000  0.00000000 -1.46678833

	 - Coordinate -           - BOHR/RAD -       - ANG/DEG -
	 R(1,2)           =         3.332442           1.763452

	        --- Internal Coordinate Step in ANG or DEG, aJ/ANG or AJ/DEG ---
	-------------------------------------------------------------------------------
	           Coordinate      Previous         Force          Change          New
	           ----------      --------        ------          ------        ------
	               R(1,2)       1.76345        0.00022        0.00015       1.76360
	-------------------------------------------------------------------------------

	                                 ==> Convergence Check <==

	Measures of convergence in internal coordinates in au.

	Criteria marked as inactive (o), active & met (*), and active & unmet ( ).

	----------------------------------------------------------------------------------------------
	   Step    Total Energy     Delta E     Max Force     RMS Force      Max Disp      RMS Disp
	----------------------------------------------------------------------------------------------
	  Convergence Criteria     1.00e-06 *    3.00e-04 *             o    1.20e-03 *             o
	----------------------------------------------------------------------------------------------
	    11     -79.26619373   -1.69e-07 *    2.66e-05 *    2.66e-05 o    2.79e-04 *    2.79e-04 o  ~
	----------------------------------------------------------------------------------------------

Next Geometry in Ang
	Fragment 1 (Ang)

	    B   0.0000000000   0.0000000000   0.9873350436
	    N   0.0000000000   0.0000000000  -0.7762648554

    Final optimized geometry and variables:
    Molecular point group: c2v
    Full point group: C_inf_v

    Geometry (in Angstrom), charge = -1, multiplicity = 6:

    B            0.000000000000     0.000000000000     0.987261146704
    N            0.000000000000     0.000000000000    -0.776190958549

    Psi4 stopped on: Thursday, 17 July 2025 09:50AM
    Psi4 wall time for execution: 0:00:10.34

*** Psi4 exiting successfully. Buy a developer a beer!
