                               Psi4 1.9.1 release

  ==> Input File <==

--------------------------------------------------------------------------
molecule {
-1 6
F   0.00000        0.60000        0.00000
Na   0.00000       -0.60000        0.00000
}

set {
basis              cc-pvdz
reference          uks
maxiter            500
geom_maxiter       500
DAMPING_PERCENTAGE 1
guess              SAP
}

optimize('b3lyp')
--------------------------------------------------------------------------

    Molecular point group: c2v
  Charge       = -1
  Multiplicity = 6
  Basis Set: CC-PVDZ
    Blend: CC-PVDZ
  Basis Set: (CC-PVDZ AUX)
    Blend: CC-PVDZ-JKFIT + DEF2-UNIVERSAL-JKFIT
  @DF-UKS Final Energy:  -261.01938991176348
    Total Energy =                       -261.0193899117634828
 Dipole X            :          0.0000000            0.0000000            0.0000000
 Dipole Y            :          0.0000000            0.0000000            0.0000000
 Dipole Z            :          1.6714665           -0.1120389            1.5594276
 Magnitude           :                                                    1.5594276
    Molecular point group: c2v
  Basis Set: CC-PVDZ
    Blend: CC-PVDZ
  Basis Set: (CC-PVDZ AUX)
    Blend: CC-PVDZ-JKFIT + DEF2-UNIVERSAL-JKFIT
  Basis Set: CC-PVDZ
    Blend: CC-PVDZ
  Basis Set: (CC-PVDZ AUX)
    Blend: CC-PVDZ-JKFIT + DEF2-UNIVERSAL-JKFIT
  @DF-UKS Final Energy:  -261.19938489028465
    Total Energy =                       -261.1993848902846480
  Basis Set: CC-PVDZ
    Blend: CC-PVDZ
  Basis Set: (CC-PVDZ AUX)
    Blend: CC-PVDZ-JKFIT + DEF2-UNIVERSAL-JKFIT
  Basis Set: CC-PVDZ
    Blend: CC-PVDZ
  @DF-UKS Final Energy:  -261.31834083864106
    Total Energy =                       -261.3183408386410633
  @DF-UKS Final Energy:  -261.37811791774061
    Total Energy =                       -261.3781179177406102
  @DF-UKS Final Energy:  -261.41820185705473
    Total Energy =                       -261.4182018570547257
  @DF-UKS Final Energy:  -261.44677673035108
    Total Energy =                       -261.4467767303510755
  @DF-UKS Final Energy:  -261.47098752798803
    Total Energy =                       -261.4709875279880293
  @DF-UKS Final Energy:  -261.48597766690062
    Total Energy =                       -261.4859776669006237
  @DF-UKS Final Energy:  -261.49439711559580
    Total Energy =                       -261.4943971155958025
  @DF-UKS Final Energy:  -261.49742398642707
    Total Energy =                       -261.4974239864270658
  @DF-UKS Final Energy:  -261.49791809309806
    Total Energy =                       -261.4979180930980647
  Basis Set: (CC-PVDZ AUX)
    Blend: CC-PVDZ-JKFIT + DEF2-UNIVERSAL-JKFIT
  Basis Set: CC-PVDZ
    Blend: CC-PVDZ
  Basis Set: (CC-PVDZ AUX)
    Blend: CC-PVDZ-JKFIT + DEF2-UNIVERSAL-JKFIT
  @DF-UKS Final Energy:  -261.49793949917006
    Total Energy =                       -261.4979394991700588
  Basis Set: CC-PVDZ
    Blend: CC-PVDZ
  Basis Set: (CC-PVDZ AUX)
    Blend: CC-PVDZ-JKFIT + DEF2-UNIVERSAL-JKFIT
  Charge       = -1
  Multiplicity = 6
  Basis Set: CC-PVDZ
    Blend: CC-PVDZ
  Basis Set: (CC-PVDZ AUX)
    Blend: CC-PVDZ-JKFIT + DEF2-UNIVERSAL-JKFIT

    Orbital Energies [Eh]
    ---------------------

    Alpha Occupied:

       1A1   -38.358158     2A1   -25.265254     3A1    -2.105124
       4A1    -1.607667     5A1    -1.038748     1B1    -1.035080
       1B2    -1.035062     6A1    -0.902241     2B1    -0.900101
       2B2    -0.803000     7A1    -0.040751     3B1     0.044206
       3B2     0.045568

    Alpha Virtual:

       8A1     0.067284     9A1     0.123821     4B1     0.171611
       4B2     0.173167    10A1     0.177860     5B1     0.266465
       5B2     0.268505    11A1     0.280745     1A2     0.280746
      12A1     0.284554     6B1     0.853481    13A1     0.892974
       6B2     0.902453    14A1     1.415615    15A1     3.050912
       7B1     3.051165     2A2     3.120687     7B2     3.122199
      16A1     3.146295

    Beta Occupied:

       1A1   -38.356620     2A1   -25.195283     3A1    -2.102325
       4A1    -1.412164     5A1    -1.036608     1B2    -1.032767
       1B1    -1.032751     2B2    -0.733552

    Beta Virtual:

       6A1    -0.544300     2B1    -0.541167     7A1     0.042008
       8A1     0.084902     3B2     0.112085     3B1     0.113438
       9A1     0.164538    10A1     0.190010     4B2     0.207623
       4B1     0.207626     5B2     0.292150     5B1     0.293452
      11A1     0.307723     1A2     0.322807    12A1     0.322827
       6B2     0.934865     6B1     0.966493    13A1     1.003740
      14A1     1.508832     2A2     3.234010     7B2     3.235377
      15A1     3.243530    16A1     3.264903     7B1     3.265177

    Final Occupation by Irrep:
             A1    A2    B1    B2
    DOCC [     5,    0,    1,    2 ]
    SOCC [     2,    0,    2,    1 ]
    NA   [     7,    0,    3,    3 ]
    NB   [     5,    0,    1,    2 ]

  @DF-UKS Final Energy:  -261.49793957182357

   => Energetics <=

    Nuclear Repulsion Energy =             18.3999125476910095
    One-Electron Energy =                -401.7011300070289508
    Two-Electron Energy =                 141.6235408417161636
    DFT Exchange-Correlation Energy =     -19.8202629542018336
    Empirical Dispersion Energy =           0.0000000000000000
    VV10 Nonlocal Energy =                  0.0000000000000000
    Total Energy =                       -261.4979395718235651

  UHF NO Occupations:
  HONO-2 :    3 B2 1.0000000
  HONO-1 :    2 B1 1.0000000
  HONO-0 :    3 B1 1.0000000
  LUNO+0 :    8 A1 0.0006265
  LUNO+1 :    4 B2 0.0002131
  LUNO+2 :    4 B1 0.0000004
  LUNO+3 :    5 B2 0.0000004

Computation Completed

Properties will be evaluated at   0.000000,   0.000000,   0.000000 [a0]

Properties computed using the SCF density matrix

 Multipole Moments:

 ------------------------------------------------------------------------------------
     Multipole            Electronic (a.u.)      Nuclear  (a.u.)        Total (a.u.)
 ------------------------------------------------------------------------------------

 L = 1.  Multiply by 2.5417464519 to convert [e a0] to [Debye]
 Dipole X            :          0.0000000            0.0000000            0.0000000
 Dipole Y            :          0.0000000            0.0000000            0.0000000
 Dipole Z            :          4.9540225           -0.2658326            4.6881899
 Magnitude           :                                                    4.6881899

 ------------------------------------------------------------------------------------

*** tstop() called on Joses-MacBook-Pro-2.local at Thu Jul 17 10:51:22 2025
Module time:
	user time   =       3.83 seconds =       0.06 minutes
	system time =       1.72 seconds =       0.03 minutes
	total time  =          1 seconds =       0.02 minutes
Total time:
	user time   =      68.95 seconds =       1.15 minutes
	system time =      70.79 seconds =       1.18 minutes
	total time  =         15 seconds =       0.25 minutes

*** tstart() called on Joses-MacBook-Pro-2.local
*** at Thu Jul 17 10:51:22 2025

         ------------------------------------------------------------
                                   SCF GRAD
                          Rob Parrish, Justin Turney,
                       Andy Simmonett, and Alex Sokolov
         ------------------------------------------------------------

  ==> Geometry <==

    Molecular point group: c2v
    Full point group: C_inf_v

    Geometry (in Angstrom), charge = -1, multiplicity = 6:

       Center              X                  Y                   Z               Mass
    ------------   -----------------  -----------------  -----------------  -----------------
         F            0.000000000000     0.000000000000     1.558935723553    18.998403162730
         NA           0.000000000000     0.000000000000    -1.288281279275    22.989769282000

  Nuclear repulsion =   18.399912547691009

  ==> Basis Set <==

  Basis Set: CC-PVDZ
    Blend: CC-PVDZ
    Number of shells: 14
    Number of basis functions: 32
    Number of Cartesian functions: 34
    Spherical Harmonics?: true
    Max angular momentum: 2

  ==> DFJKGrad: Density-Fitted SCF Gradients <==

    Gradient:                    1
    J tasked:                  Yes
    K tasked:                  Yes
    wK tasked:                  No
    OpenMP threads:              1
    Integrals threads:           1
    Memory [MiB]:              375
    Schwarz Cutoff:          1E-12
    Fitting Condition:       1E-10

   => Auxiliary Basis Set <=

  Basis Set: (CC-PVDZ AUX)
    Blend: CC-PVDZ-JKFIT + DEF2-UNIVERSAL-JKFIT
    Number of shells: 58
    Number of basis functions: 182
    Number of Cartesian functions: 218
    Spherical Harmonics?: true
    Max angular momentum: 4

  ==> DFT Potential <==

   => LibXC <=

    Version 6.2.2
    S. Lehtola, C. Steigemann, M. J.T. Oliveira, and M. A.L. Marques.,  SoftwareX 7, 1â€“5 (2018) (10.1016/j.softx.2017.11.002)

   => Composite Functional: B3LYP <=

    B3LYP Hyb-GGA Exchange-Correlation Functional

    P. J. Stephens, F. J. Devlin, C. F. Chabalowski, and M. J. Frisch.,  J. Phys. Chem. 98, 11623 (1994) (10.1021/j100096a001)

    Deriv               =              1
    GGA                 =           TRUE
    Meta                =          FALSE

    Exchange Hybrid     =           TRUE
    MP2 Hybrid          =          FALSE

   => Exchange Functionals <=

    0.0800   Slater exchange
    0.7200         Becke 88

   => Exact (HF) Exchange <=

    0.2000               HF

   => Correlation Functionals <=

    0.1900   Vosko, Wilk & Nusair (VWN5_RPA)
    0.8100   Lee, Yang & Parr

   => LibXC Density Thresholds  <==

    XC_HYB_GGA_XC_B3LYP:  1.00E-15

   => Molecular Quadrature <=

    Radial Scheme          =       TREUTLER
    Pruning Scheme         =           NONE
    Nuclear Scheme         =       TREUTLER

    Blocking Scheme        =         OCTREE
    BS radius alpha        =              1
    Pruning alpha          =              1
    Radial Points          =             75
    Spherical Points       =            302
    Total Points           =          43840
    Total Blocks           =            422
    Max Points             =            256
    Max Functions          =             32
    Weights Tolerance      =       1.00E-15

  -Total Gradient:
     Atom            X                  Y                   Z
    ------   -----------------  -----------------  -----------------
       1        0.000000000000     0.000000000000     0.000009908353
       2        0.000000000000     0.000000000000     0.000019094178

*** tstop() called on Joses-MacBook-Pro-2.local at Thu Jul 17 10:51:22 2025
Module time:
	user time   =       0.97 seconds =       0.02 minutes
	system time =       1.82 seconds =       0.03 minutes
	total time  =          0 seconds =       0.00 minutes
Total time:
	user time   =      69.92 seconds =       1.17 minutes
	system time =      72.62 seconds =       1.21 minutes
	total time  =         15 seconds =       0.25 minutes

    			-----------------------------------------

    			 OPTKING 3.0: for geometry optimizations

    			     By R.A. King, Bethel University

    			        with contributions from

    			    A.V. Copan, J. Cayton, A. Heide

    			-----------------------------------------

	                            ===> Fragment 1 <==

	 Z (Atomic Numbers)          Masses                          Geom
	       9.000000            18.998403          0.00000000  0.00000000  2.94596156
	      11.000000            22.989769          0.00000000  0.00000000 -2.43449879

	 - Coordinate -           - BOHR/RAD -       - ANG/DEG -
	 R(1,2)           =         5.380460           2.847217

	        --- Internal Coordinate Step in ANG or DEG, aJ/ANG or AJ/DEG ---
	-------------------------------------------------------------------------------
	           Coordinate      Previous         Force          Change          New
	           ----------      --------        ------          ------        ------
	               R(1,2)       2.84722        0.00004        0.00013       2.84735
	-------------------------------------------------------------------------------

	                                 ==> Convergence Check <==

	Measures of convergence in internal coordinates in au.

	Criteria marked as inactive (o), active & met (*), and active & unmet ( ).

	----------------------------------------------------------------------------------------------
	   Step    Total Energy     Delta E     Max Force     RMS Force      Max Disp      RMS Disp
	----------------------------------------------------------------------------------------------
	  Convergence Criteria     1.00e-06 *    3.00e-04 *             o    1.20e-03 *             o
	----------------------------------------------------------------------------------------------
	    13    -261.49793957   -7.27e-08 *    4.59e-06 *    4.59e-06 o    2.49e-04 *    2.49e-04 o  ~
	----------------------------------------------------------------------------------------------

Next Geometry in Ang
	Fragment 1 (Ang)

	    F   0.0000000000   0.0000000000   1.5590015103
	   Na   0.0000000000   0.0000000000  -1.2883470661

    Final optimized geometry and variables:
    Molecular point group: c2v
    Full point group: C_inf_v

    Geometry (in Angstrom), charge = -1, multiplicity = 6:

    F            0.000000000000     0.000000000000     1.558935723553
    NA           0.000000000000     0.000000000000    -1.288281279275

    Psi4 stopped on: Thursday, 17 July 2025 10:51AM
    Psi4 wall time for execution: 0:00:15.35

*** Psi4 exiting successfully. Buy a developer a beer!
