                               Psi4 1.9.1 release

  ==> Input File <==

--------------------------------------------------------------------------
molecule {
-1 6
Be   0.00000        0.60000        0.00000
S   0.00000       -0.60000        0.00000
}

set {
basis              cc-pvdz
reference          uks
maxiter            500
geom_maxiter       500
DAMPING_PERCENTAGE 1
guess              SAP
}

optimize('b3lyp')
--------------------------------------------------------------------------

    Molecular point group: c2v
  Charge       = -1
  Multiplicity = 6
  Basis Set: CC-PVDZ
    Blend: CC-PVDZ
  Basis Set: (CC-PVDZ AUX)
    Blend: CC-PVDZ-JKFIT + DEF2-UNIVERSAL-JKFIT
  @DF-UKS Final Energy:  -412.04992124129683
    Total Energy =                       -412.0499212412968291
 Dipole X            :          0.0000000            0.0000000            0.0000000
 Dipole Y            :          0.0000000            0.0000000            0.0000000
 Dipole Z            :         -2.8280885           -0.9022516           -3.7303401
 Magnitude           :                                                    3.7303401
    Molecular point group: c2v
  Basis Set: CC-PVDZ
    Blend: CC-PVDZ
  Basis Set: (CC-PVDZ AUX)
    Blend: CC-PVDZ-JKFIT + DEF2-UNIVERSAL-JKFIT
  Basis Set: CC-PVDZ
    Blend: CC-PVDZ
  Basis Set: (CC-PVDZ AUX)
    Blend: CC-PVDZ-JKFIT + DEF2-UNIVERSAL-JKFIT
  @DF-UKS Final Energy:  -412.29416040575671
    Total Energy =                       -412.2941604057567133
  Basis Set: CC-PVDZ
    Blend: CC-PVDZ
  Basis Set: (CC-PVDZ AUX)
    Blend: CC-PVDZ-JKFIT + DEF2-UNIVERSAL-JKFIT
  Basis Set: CC-PVDZ
    Blend: CC-PVDZ
  @DF-UKS Final Energy:  -412.45727843256594
    Total Energy =                       -412.4572784325659995
  @DF-UKS Final Energy:  -412.55186983883607
    Total Energy =                       -412.5518698388360690
  @DF-UKS Final Energy:  -412.60408602177330
    Total Energy =                       -412.6040860217733552
  @DF-UKS Final Energy:  -412.63607738982739
    Total Energy =                       -412.6360773898273351
  @DF-UKS Final Energy:  -412.65755760256604
    Total Energy =                       -412.6575576025660439
  @DF-UKS Final Energy:  -412.67299409825597
    Total Energy =                       -412.6729940982559128
  @DF-UKS Final Energy:  -412.68337282177782
    Total Energy =                       -412.6833728217778230
  @DF-UKS Final Energy:  -412.68390490978101
    Total Energy =                       -412.6839049097810062
  @DF-UKS Final Energy:  -412.69008654563089
    Total Energy =                       -412.6900865456308907
  @DF-UKS Final Energy:  -412.69024457942163
    Total Energy =                       -412.6902445794216305
  @DF-UKS Final Energy:  -412.69309369112688
    Total Energy =                       -412.6930936911268191
  @DF-UKS Final Energy:  -412.69313569245878
    Total Energy =                       -412.6931356924587817
  @DF-UKS Final Energy:  -412.69440826963086
    Total Energy =                       -412.6944082696308556
  @DF-UKS Final Energy:  -412.69441849241036
    Total Energy =                       -412.6944184924104206
  @DF-UKS Final Energy:  -412.69442853382174
    Total Energy =                       -412.6944285338217355
  @DF-UKS Final Energy:  -412.69496764962753
    Total Energy =                       -412.6949676496275856
  @DF-UKS Final Energy:  -412.69515084418259
    Total Energy =                       -412.6951508441825922
  @DF-UKS Final Energy:  -412.69523356526548
    Total Energy =                       -412.6952335652655393
  @DF-UKS Final Energy:  -412.69526074231356
    Total Energy =                       -412.6952607423136214
  Basis Set: (CC-PVDZ AUX)
    Blend: CC-PVDZ-JKFIT + DEF2-UNIVERSAL-JKFIT
  Basis Set: CC-PVDZ
    Blend: CC-PVDZ
  Basis Set: (CC-PVDZ AUX)
    Blend: CC-PVDZ-JKFIT + DEF2-UNIVERSAL-JKFIT
  @DF-UKS Final Energy:  -412.69526696828450
    Total Energy =                       -412.6952669682844430
  Basis Set: CC-PVDZ
    Blend: CC-PVDZ
  Basis Set: (CC-PVDZ AUX)
    Blend: CC-PVDZ-JKFIT + DEF2-UNIVERSAL-JKFIT
  Charge       = -1
  Multiplicity = 6
  Basis Set: CC-PVDZ
    Blend: CC-PVDZ
  Basis Set: (CC-PVDZ AUX)
    Blend: CC-PVDZ-JKFIT + DEF2-UNIVERSAL-JKFIT

    Orbital Energies [Eh]
    ---------------------

    Alpha Occupied:

       1A1   -88.824826     2A1    -7.883040     1B1    -5.852290
       3A1    -5.852215     1B2    -5.832563     4A1    -3.848956
       5A1    -0.614306     2B1    -0.223831     6A1    -0.221688
       2B2    -0.175341     7A1    -0.043289     3B1     0.088564
       3B2     0.088845

    Alpha Virtual:

       8A1     0.145936     9A1     0.370388     4B1     0.376244
       4B2     0.376687    10A1     0.390360    11A1     0.545960
       5B1     0.560364     5B2     0.591155    12A1     0.608717
       6B1     0.628845    13A1     0.638746     1A2     0.665827
       6B2     0.667393     2A2     0.674335    14A1     0.674340
       7B1     0.680158     7B2     0.680397    15A1     0.681589
      16A1     0.705274

    Beta Occupied:

       1A1   -88.814000     2A1    -7.871987     1B1    -5.830919
       3A1    -5.830755     1B2    -5.826007     4A1    -3.831766
       5A1    -0.521421     2B2    -0.148555

    Beta Virtual:

       2B1    -0.066544     6A1    -0.064666     7A1     0.120902
       8A1     0.210200     3B2     0.233268     3B1     0.236871
       9A1     0.416354    10A1     0.438679     4B2     0.448960
       4B1     0.449847    11A1     0.586312     5B2     0.604399
       5B1     0.610443    12A1     0.664035     1A2     0.723084
       6B2     0.724684    13A1     0.727337     6B1     0.736818
      14A1     0.741397     7B2     0.784322    15A1     0.784897
       7B1     0.784903    16A1     0.806529     2A2     0.806613

    Final Occupation by Irrep:
             A1    A2    B1    B2
    DOCC [     5,    0,    1,    2 ]
    SOCC [     2,    0,    2,    1 ]
    NA   [     7,    0,    3,    3 ]
    NB   [     5,    0,    1,    2 ]

  @DF-UKS Final Energy:  -412.69526745562376

   => Energetics <=

    Nuclear Repulsion Energy =              7.3032913444489278
    One-Electron Energy =                -585.7156736421056848
    Two-Electron Energy =                 188.7537909898722717
    DFT Exchange-Correlation Energy =     -23.0366761478392945
    Empirical Dispersion Energy =           0.0000000000000000
    VV10 Nonlocal Energy =                  0.0000000000000000
    Total Energy =                       -412.6952674556237639

  UHF NO Occupations:
  HONO-2 :    3 B2 1.0000000
  HONO-1 :    3 B1 1.0000000
  HONO-0 :    7 A1 1.0000000
  LUNO+0 :    8 A1 0.0010226
  LUNO+1 :    4 B2 0.0001062
  LUNO+2 :    9 A1 0.0000003
  LUNO+3 :   10 A1 0.0000000

Computation Completed

Properties will be evaluated at   0.000000,   0.000000,   0.000000 [a0]

Properties computed using the SCF density matrix

 Multipole Moments:

 ------------------------------------------------------------------------------------
     Multipole            Electronic (a.u.)      Nuclear  (a.u.)        Total (a.u.)
 ------------------------------------------------------------------------------------

 L = 1.  Multiply by 2.5417464519 to convert [e a0] to [Debye]
 Dipole X            :          0.0000000            0.0000000            0.0000000
 Dipole Y            :          0.0000000            0.0000000            0.0000000
 Dipole Z            :         -3.2492072           -3.4866545           -6.7358617
 Magnitude           :                                                    6.7358617

 ------------------------------------------------------------------------------------

*** tstop() called on Joses-MacBook-Pro-2.local at Thu Jul 17 09:46:56 2025
Module time:
	user time   =       2.65 seconds =       0.04 minutes
	system time =       3.41 seconds =       0.06 minutes
	total time  =          0 seconds =       0.00 minutes
Total time:
	user time   =     131.96 seconds =       2.20 minutes
	system time =     133.38 seconds =       2.22 minutes
	total time  =         26 seconds =       0.43 minutes

*** tstart() called on Joses-MacBook-Pro-2.local
*** at Thu Jul 17 09:46:56 2025

         ------------------------------------------------------------
                                   SCF GRAD
                          Rob Parrish, Justin Turney,
                       Andy Simmonett, and Alex Sokolov
         ------------------------------------------------------------

  ==> Geometry <==

    Molecular point group: c2v
    Full point group: C_inf_v

    Geometry (in Angstrom), charge = -1, multiplicity = 6:

       Center              X                  Y                   Z               Mass
    ------------   -----------------  -----------------  -----------------  -----------------
         BE           0.000000000000     0.000000000000     3.617563931534     9.012183065000
         S            0.000000000000     0.000000000000    -1.019707113202    31.972071174400

  Nuclear repulsion =    7.303291344448928

  ==> Basis Set <==

  Basis Set: CC-PVDZ
    Blend: CC-PVDZ
    Number of shells: 14
    Number of basis functions: 32
    Number of Cartesian functions: 34
    Spherical Harmonics?: true
    Max angular momentum: 2

  ==> DFJKGrad: Density-Fitted SCF Gradients <==

    Gradient:                    1
    J tasked:                  Yes
    K tasked:                  Yes
    wK tasked:                  No
    OpenMP threads:              1
    Integrals threads:           1
    Memory [MiB]:              375
    Schwarz Cutoff:          1E-12
    Fitting Condition:       1E-10

   => Auxiliary Basis Set <=

  Basis Set: (CC-PVDZ AUX)
    Blend: CC-PVDZ-JKFIT + DEF2-UNIVERSAL-JKFIT
    Number of shells: 53
    Number of basis functions: 163
    Number of Cartesian functions: 190
    Spherical Harmonics?: true
    Max angular momentum: 3

  ==> DFT Potential <==

   => LibXC <=

    Version 6.2.2
    S. Lehtola, C. Steigemann, M. J.T. Oliveira, and M. A.L. Marques.,  SoftwareX 7, 1â€“5 (2018) (10.1016/j.softx.2017.11.002)

   => Composite Functional: B3LYP <=

    B3LYP Hyb-GGA Exchange-Correlation Functional

    P. J. Stephens, F. J. Devlin, C. F. Chabalowski, and M. J. Frisch.,  J. Phys. Chem. 98, 11623 (1994) (10.1021/j100096a001)

    Deriv               =              1
    GGA                 =           TRUE
    Meta                =          FALSE

    Exchange Hybrid     =           TRUE
    MP2 Hybrid          =          FALSE

   => Exchange Functionals <=

    0.0800   Slater exchange
    0.7200         Becke 88

   => Exact (HF) Exchange <=

    0.2000               HF

   => Correlation Functionals <=

    0.1900   Vosko, Wilk & Nusair (VWN5_RPA)
    0.8100   Lee, Yang & Parr

   => LibXC Density Thresholds  <==

    XC_HYB_GGA_XC_B3LYP:  1.00E-15

   => Molecular Quadrature <=

    Radial Scheme          =       TREUTLER
    Pruning Scheme         =           NONE
    Nuclear Scheme         =       TREUTLER

    Blocking Scheme        =         OCTREE
    BS radius alpha        =              1
    Pruning alpha          =              1
    Radial Points          =             75
    Spherical Points       =            302
    Total Points           =          42934
    Total Blocks           =            448
    Max Points             =            255
    Max Functions          =             32
    Weights Tolerance      =       1.00E-15

  -Total Gradient:
     Atom            X                  Y                   Z
    ------   -----------------  -----------------  -----------------
       1       -0.000000000000     0.000000000000    -0.000003925455
       2        0.000000000000    -0.000000000000     0.000008155870

*** tstop() called on Joses-MacBook-Pro-2.local at Thu Jul 17 09:46:57 2025
Module time:
	user time   =       0.68 seconds =       0.01 minutes
	system time =       1.66 seconds =       0.03 minutes
	total time  =          1 seconds =       0.02 minutes
Total time:
	user time   =     132.64 seconds =       2.21 minutes
	system time =     135.05 seconds =       2.25 minutes
	total time  =         27 seconds =       0.45 minutes

    			-----------------------------------------

    			 OPTKING 3.0: for geometry optimizations

    			     By R.A. King, Bethel University

    			        with contributions from

    			    A.V. Copan, J. Cayton, A. Heide

    			-----------------------------------------

	                            ===> Fragment 1 <==

	 Z (Atomic Numbers)          Masses                          Geom
	       4.000000             9.012183          0.00000000  0.00000000  6.83620507
	      16.000000            31.972071          0.00000000  0.00000000 -1.92696717

	 - Coordinate -           - BOHR/RAD -       - ANG/DEG -
	 R(1,2)           =         8.763172           4.637271

	        --- Internal Coordinate Step in ANG or DEG, aJ/ANG or AJ/DEG ---
	-------------------------------------------------------------------------------
	           Coordinate      Previous         Force          Change          New
	           ----------      --------        ------          ------        ------
	               R(1,2)       4.63727        0.00005        0.00970       4.64697
	-------------------------------------------------------------------------------

	                                 ==> Convergence Check <==

	Measures of convergence in internal coordinates in au.

	Criteria marked as inactive (o), active & met (*), and active & unmet ( ).

	----------------------------------------------------------------------------------------------
	   Step    Total Energy     Delta E     Max Force     RMS Force      Max Disp      RMS Disp
	----------------------------------------------------------------------------------------------
	  Convergence Criteria     1.00e-06 *    3.00e-04 *             o    1.20e-03 *             o
	----------------------------------------------------------------------------------------------
	    23    -412.69526746   -4.87e-07 *    6.04e-06 *    6.04e-06 o    1.83e-02      1.83e-02 o  ~
	----------------------------------------------------------------------------------------------

Next Geometry in Ang
	Fragment 1 (Ang)

	   Be   0.0000000000   0.0000000000   3.6224132874
	    S   0.0000000000   0.0000000000  -1.0245564690

    Final optimized geometry and variables:
    Molecular point group: c2v
    Full point group: C_inf_v

    Geometry (in Angstrom), charge = -1, multiplicity = 6:

    BE           0.000000000000     0.000000000000     3.617563931534
    S            0.000000000000     0.000000000000    -1.019707113202

    Psi4 stopped on: Thursday, 17 July 2025 09:46AM
    Psi4 wall time for execution: 0:00:27.79

*** Psi4 exiting successfully. Buy a developer a beer!
