                               Psi4 1.9.1 release

  ==> Input File <==

--------------------------------------------------------------------------
molecule {
-1 6
F   0.00000        0.60000        0.00000
P   0.00000       -0.60000        0.00000
}

set {
basis              cc-pvdz
reference          uks
maxiter            500
geom_maxiter       500
DAMPING_PERCENTAGE 1
guess              SAP
}

optimize('b3lyp')
--------------------------------------------------------------------------

    Molecular point group: c2v
  Charge       = -1
  Multiplicity = 6
  Basis Set: CC-PVDZ
    Blend: CC-PVDZ
  Basis Set: (CC-PVDZ AUX)
    Blend: CC-PVDZ-JKFIT
  @DF-UKS Final Energy:  -440.14532568866855
    Total Energy =                       -440.1453256886685494
 Dipole X            :          0.0000000            0.0000000            0.0000000
 Dipole Y            :          0.0000000            0.0000000            0.0000000
 Dipole Z            :          1.7745298           -0.2819010            1.4926288
 Magnitude           :                                                    1.4926288
    Molecular point group: c2v
  Basis Set: CC-PVDZ
    Blend: CC-PVDZ
  Basis Set: (CC-PVDZ AUX)
    Blend: CC-PVDZ-JKFIT
  Basis Set: CC-PVDZ
    Blend: CC-PVDZ
  Basis Set: (CC-PVDZ AUX)
    Blend: CC-PVDZ-JKFIT
  @DF-UKS Final Energy:  -440.31444411885701
    Total Energy =                       -440.3144441188570113
  Basis Set: CC-PVDZ
    Blend: CC-PVDZ
  Basis Set: (CC-PVDZ AUX)
    Blend: CC-PVDZ-JKFIT
  Basis Set: CC-PVDZ
    Blend: CC-PVDZ
  @DF-UKS Final Energy:  -440.41012213525482
    Total Energy =                       -440.4101221352548237
  @DF-UKS Final Energy:  -440.45181690171529
    Total Energy =                       -440.4518169017152900
  @DF-UKS Final Energy:  -440.48378952120009
    Total Energy =                       -440.4837895212000944
  @DF-UKS Final Energy:  -440.50959525841273
    Total Energy =                       -440.5095952584127303
  @DF-UKS Final Energy:  -440.52904035055678
    Total Energy =                       -440.5290403505566701
  @DF-UKS Final Energy:  -440.54601401103355
    Total Energy =                       -440.5460140110335487
  @DF-UKS Final Energy:  -440.55867690916801
    Total Energy =                       -440.5586769091680708
  @DF-UKS Final Energy:  -440.55979885026119
    Total Energy =                       -440.5597988502611884
  @DF-UKS Final Energy:  -440.57234728164838
    Total Energy =                       -440.5723472816483763
  @DF-UKS Final Energy:  -440.57284363473457
    Total Energy =                       -440.5728436347345678
  @DF-UKS Final Energy:  -440.57791749022181
    Total Energy =                       -440.5779174902218074
  @DF-UKS Final Energy:  -440.57798968384486
    Total Energy =                       -440.5779896838449190
  @DF-UKS Final Energy:  -440.57882796460314
    Total Energy =                       -440.5788279646031356
  @DF-UKS Final Energy:  -440.57890651035825
    Total Energy =                       -440.5789065103582516
  @DF-UKS Final Energy:  -440.57891527514323
    Total Energy =                       -440.5789152751432312
  Basis Set: (CC-PVDZ AUX)
    Blend: CC-PVDZ-JKFIT
  Basis Set: CC-PVDZ
    Blend: CC-PVDZ
  Basis Set: (CC-PVDZ AUX)
    Blend: CC-PVDZ-JKFIT
  @DF-UKS Final Energy:  -440.57891656863478
    Total Energy =                       -440.5789165686347815
  Basis Set: CC-PVDZ
    Blend: CC-PVDZ
  Basis Set: (CC-PVDZ AUX)
    Blend: CC-PVDZ-JKFIT
  Charge       = -1
  Multiplicity = 6
  Basis Set: CC-PVDZ
    Blend: CC-PVDZ
  Basis Set: (CC-PVDZ AUX)
    Blend: CC-PVDZ-JKFIT

    Orbital Energies [Eh]
    ---------------------

    Alpha Occupied:

       1A1   -76.765853     2A1   -24.621487     3A1    -6.246304
       4A1    -4.406131     1B1    -4.406008     1B2    -4.406008
       5A1    -1.052718     6A1    -0.378660     7A1    -0.302671
       2B2    -0.291939     2B1    -0.291939     3B1     0.024279
       3B2     0.024279     8A1     0.024395     9A1     0.519225

    Alpha Virtual:

      10A1     0.644821     4B2     0.647471     4B1     0.647471
      11A1     0.728568     5B2     0.729921     5B1     0.729921
       1A2     0.730179    12A1     0.730179    13A1     1.227963
       6B2     1.247120     6B1     1.247120    14A1     1.599688
      15A1     3.600253     7B2     3.620630     7B1     3.620630
       2A2     3.687870    16A1     3.688049

    Beta Occupied:

       1A1   -76.748994     2A1   -24.590563     3A1    -6.226576
       4A1    -4.384163     1B1    -4.384054     1B2    -4.384054
       5A1    -0.962331     2B2    -0.260655     2B1    -0.260655
       6A1    -0.176344

    Beta Virtual:

       7A1    -0.086464     3B1     0.173545     3B2     0.173545
       8A1     0.174549     9A1     0.646975    10A1     0.724186
       4B1     0.725860     4B2     0.725860    11A1     0.824182
       5B2     0.825492     5B1     0.825492    12A1     0.825909
       1A2     0.825909     6B2     1.264680     6B1     1.264680
      13A1     1.335072    14A1     1.647808     2A2     3.703120
      15A1     3.703285     7B2     3.715328     7B1     3.715328
      16A1     3.735851

    Final Occupation by Irrep:
             A1    A2    B1    B2
    DOCC [     6,    0,    2,    2 ]
    SOCC [     3,    0,    1,    1 ]
    NA   [     9,    0,    3,    3 ]
    NB   [     6,    0,    2,    2 ]

  @DF-UKS Final Energy:  -440.57891681795115

   => Energetics <=

    Nuclear Repulsion Energy =             20.3619271101327861
    One-Electron Energy =                -657.4521824817634297
    Two-Electron Energy =                 223.8055942947560766
    DFT Exchange-Correlation Energy =     -27.2942557410765971
    Empirical Dispersion Energy =           0.0000000000000000
    VV10 Nonlocal Energy =                  0.0000000000000000
    Total Energy =                       -440.5789168179511535

  UHF NO Occupations:
  HONO-2 :    9 A1 1.0000000
  HONO-1 :    3 B1 1.0000000
  HONO-0 :    3 B2 1.0000000
  LUNO+0 :   10 A1 0.0003064
  LUNO+1 :    4 B2 0.0000596
  LUNO+2 :    4 B1 0.0000596
  LUNO+3 :   11 A1 0.0000184

Computation Completed

Properties will be evaluated at   0.000000,   0.000000,   0.000000 [a0]

Properties computed using the SCF density matrix

 Multipole Moments:

 ------------------------------------------------------------------------------------
     Multipole            Electronic (a.u.)      Nuclear  (a.u.)        Total (a.u.)
 ------------------------------------------------------------------------------------

 L = 1.  Multiply by 2.5417464519 to convert [e a0] to [Debye]
 Dipole X            :          0.0000000            0.0000000            0.0000000
 Dipole Y            :          0.0000000            0.0000000            0.0000000
 Dipole Z            :          3.1768912           -0.8241977            2.3526935
 Magnitude           :                                                    2.3526935

 ------------------------------------------------------------------------------------

*** tstop() called on Joses-MacBook-Pro-2.local at Thu Jul 17 10:54:52 2025
Module time:
	user time   =       2.31 seconds =       0.04 minutes
	system time =       4.38 seconds =       0.07 minutes
	total time  =          1 seconds =       0.02 minutes
Total time:
	user time   =     103.01 seconds =       1.72 minutes
	system time =     100.49 seconds =       1.67 minutes
	total time  =         20 seconds =       0.33 minutes

*** tstart() called on Joses-MacBook-Pro-2.local
*** at Thu Jul 17 10:54:52 2025

         ------------------------------------------------------------
                                   SCF GRAD
                          Rob Parrish, Justin Turney,
                       Andy Simmonett, and Alex Sokolov
         ------------------------------------------------------------

  ==> Geometry <==

    Molecular point group: c2v
    Full point group: C_inf_v

    Geometry (in Angstrom), charge = -1, multiplicity = 6:

       Center              X                  Y                   Z               Mass
    ------------   -----------------  -----------------  -----------------  -----------------
         F            0.000000000000     0.000000000000     2.174612164278    18.998403162730
         P            0.000000000000     0.000000000000    -1.333843742379    30.973761998420

  Nuclear repulsion =   20.361927110132786

  ==> Basis Set <==

  Basis Set: CC-PVDZ
    Blend: CC-PVDZ
    Number of shells: 14
    Number of basis functions: 32
    Number of Cartesian functions: 34
    Spherical Harmonics?: true
    Max angular momentum: 2

  ==> DFJKGrad: Density-Fitted SCF Gradients <==

    Gradient:                    1
    J tasked:                  Yes
    K tasked:                  Yes
    wK tasked:                  No
    OpenMP threads:              1
    Integrals threads:           1
    Memory [MiB]:              375
    Schwarz Cutoff:          1E-12
    Fitting Condition:       1E-10

   => Auxiliary Basis Set <=

  Basis Set: (CC-PVDZ AUX)
    Blend: CC-PVDZ-JKFIT
    Number of shells: 60
    Number of basis functions: 182
    Number of Cartesian functions: 211
    Spherical Harmonics?: true
    Max angular momentum: 3

  ==> DFT Potential <==

   => LibXC <=

    Version 6.2.2
    S. Lehtola, C. Steigemann, M. J.T. Oliveira, and M. A.L. Marques.,  SoftwareX 7, 1â€“5 (2018) (10.1016/j.softx.2017.11.002)

   => Composite Functional: B3LYP <=

    B3LYP Hyb-GGA Exchange-Correlation Functional

    P. J. Stephens, F. J. Devlin, C. F. Chabalowski, and M. J. Frisch.,  J. Phys. Chem. 98, 11623 (1994) (10.1021/j100096a001)

    Deriv               =              1
    GGA                 =           TRUE
    Meta                =          FALSE

    Exchange Hybrid     =           TRUE
    MP2 Hybrid          =          FALSE

   => Exchange Functionals <=

    0.0800   Slater exchange
    0.7200         Becke 88

   => Exact (HF) Exchange <=

    0.2000               HF

   => Correlation Functionals <=

    0.1900   Vosko, Wilk & Nusair (VWN5_RPA)
    0.8100   Lee, Yang & Parr

   => LibXC Density Thresholds  <==

    XC_HYB_GGA_XC_B3LYP:  1.00E-15

   => Molecular Quadrature <=

    Radial Scheme          =       TREUTLER
    Pruning Scheme         =           NONE
    Nuclear Scheme         =       TREUTLER

    Blocking Scheme        =         OCTREE
    BS radius alpha        =              1
    Pruning alpha          =              1
    Radial Points          =             75
    Spherical Points       =            302
    Total Points           =          42619
    Total Blocks           =            390
    Max Points             =            255
    Max Functions          =             32
    Weights Tolerance      =       1.00E-15

  -Total Gradient:
     Atom            X                  Y                   Z
    ------   -----------------  -----------------  -----------------
       1        0.000000000000    -0.000000000000    -0.000013864947
       2       -0.000000000000     0.000000000000     0.000014982788

*** tstop() called on Joses-MacBook-Pro-2.local at Thu Jul 17 10:54:52 2025
Module time:
	user time   =       0.90 seconds =       0.02 minutes
	system time =       1.23 seconds =       0.02 minutes
	total time  =          0 seconds =       0.00 minutes
Total time:
	user time   =     103.91 seconds =       1.73 minutes
	system time =     101.72 seconds =       1.70 minutes
	total time  =         20 seconds =       0.33 minutes

    			-----------------------------------------

    			 OPTKING 3.0: for geometry optimizations

    			     By R.A. King, Bethel University

    			        with contributions from

    			    A.V. Copan, J. Cayton, A. Heide

    			-----------------------------------------

	                            ===> Fragment 1 <==

	 Z (Atomic Numbers)          Masses                          Geom
	       9.000000            18.998403          0.00000000  0.00000000  4.10942142
	      15.000000            30.973762          0.00000000  0.00000000 -2.52059937

	 - Coordinate -           - BOHR/RAD -       - ANG/DEG -
	 R(1,2)           =         6.630021           3.508456

	        --- Internal Coordinate Step in ANG or DEG, aJ/ANG or AJ/DEG ---
	-------------------------------------------------------------------------------
	           Coordinate      Previous         Force          Change          New
	           ----------      --------        ------          ------        ------
	               R(1,2)       3.50846        0.00012        0.00120       3.50965
	-------------------------------------------------------------------------------

	                                 ==> Convergence Check <==

	Measures of convergence in internal coordinates in au.

	Criteria marked as inactive (o), active & met (*), and active & unmet ( ).

	----------------------------------------------------------------------------------------------
	   Step    Total Energy     Delta E     Max Force     RMS Force      Max Disp      RMS Disp
	----------------------------------------------------------------------------------------------
	  Convergence Criteria     1.00e-06 *    3.00e-04 *             o    1.20e-03 *             o
	----------------------------------------------------------------------------------------------
	    19    -440.57891682   -2.49e-07 *    1.44e-05 *    1.44e-05 o    2.26e-03      2.26e-03 o  ~
	----------------------------------------------------------------------------------------------

Next Geometry in Ang
	Fragment 1 (Ang)

	    F   0.0000000000   0.0000000000   2.1752106533
	    P   0.0000000000   0.0000000000  -1.3344422314

    Final optimized geometry and variables:
    Molecular point group: c2v
    Full point group: C_inf_v

    Geometry (in Angstrom), charge = -1, multiplicity = 6:

    F            0.000000000000     0.000000000000     2.174612164278
    P            0.000000000000     0.000000000000    -1.333843742379

    Psi4 stopped on: Thursday, 17 July 2025 10:54AM
    Psi4 wall time for execution: 0:00:20.43

*** Psi4 exiting successfully. Buy a developer a beer!
