                               Psi4 1.9.1 release

  ==> Input File <==

--------------------------------------------------------------------------
molecule {
-1 6
Li   0.00000        0.60000        0.00000
Na   0.00000       -0.60000        0.00000
}

set {
basis              cc-pvdz
reference          uks
maxiter            500
geom_maxiter       500
DAMPING_PERCENTAGE 1
guess              SAP
}

optimize('b3lyp')
--------------------------------------------------------------------------

    Molecular point group: c2v
  Charge       = -1
  Multiplicity = 6
  Basis Set: CC-PVDZ
    Blend: CC-PVDZ
  Basis Set: (CC-PVDZ AUX)
    Blend: DEF2-UNIVERSAL-JKFIT
  @DF-UKS Final Energy:  -168.21148860055996
    Total Energy =                       -168.2114886005599885
 Dipole X            :          0.0000000            0.0000000            0.0000000
 Dipole Y            :          0.0000000            0.0000000            0.0000000
 Dipole Z            :         -0.2349177           -0.6202195           -0.8551372
 Magnitude           :                                                    0.8551372
    Molecular point group: c2v
  Basis Set: CC-PVDZ
    Blend: CC-PVDZ
  Basis Set: (CC-PVDZ AUX)
    Blend: DEF2-UNIVERSAL-JKFIT
  Basis Set: CC-PVDZ
    Blend: CC-PVDZ
  Basis Set: (CC-PVDZ AUX)
    Blend: DEF2-UNIVERSAL-JKFIT
  @DF-UKS Final Energy:  -168.25756720715898
    Total Energy =                       -168.2575672071589850
  Basis Set: CC-PVDZ
    Blend: CC-PVDZ
  Basis Set: (CC-PVDZ AUX)
    Blend: DEF2-UNIVERSAL-JKFIT
  Basis Set: CC-PVDZ
    Blend: CC-PVDZ
  @DF-UKS Final Energy:  -168.31140758746423
    Total Energy =                       -168.3114075874642310
  @DF-UKS Final Energy:  -168.37787393003521
    Total Energy =                       -168.3778739300352072
  @DF-UKS Final Energy:  -168.41779907817318
    Total Energy =                       -168.4177990781731467
  @DF-UKS Final Energy:  -168.45269310787845
    Total Energy =                       -168.4526931078784457
  @DF-UKS Final Energy:  -168.47107333166861
    Total Energy =                       -168.4710733316686060
  @DF-UKS Final Energy:  -168.47801254189838
    Total Energy =                       -168.4780125418983801
  @DF-UKS Final Energy:  -168.48012361961230
    Total Energy =                       -168.4801236196122716
  @DF-UKS Final Energy:  -168.48088024893914
    Total Energy =                       -168.4808802489391724
  @DF-UKS Final Energy:  -168.48110547200412
    Total Energy =                       -168.4811054720040602
  @DF-UKS Final Energy:  -168.48121917514283
    Total Energy =                       -168.4812191751428259
  @DF-UKS Final Energy:  -168.48124764322353
    Total Energy =                       -168.4812476432234973
  Basis Set: (CC-PVDZ AUX)
    Blend: DEF2-UNIVERSAL-JKFIT
  Basis Set: CC-PVDZ
    Blend: CC-PVDZ
  Basis Set: (CC-PVDZ AUX)
    Blend: DEF2-UNIVERSAL-JKFIT
  @DF-UKS Final Energy:  -168.48125583928166
    Total Energy =                       -168.4812558392816584
  Basis Set: CC-PVDZ
    Blend: CC-PVDZ
  Basis Set: (CC-PVDZ AUX)
    Blend: DEF2-UNIVERSAL-JKFIT
  Charge       = -1
  Multiplicity = 6
  Basis Set: CC-PVDZ
    Blend: CC-PVDZ
  Basis Set: (CC-PVDZ AUX)
    Blend: DEF2-UNIVERSAL-JKFIT

    Orbital Energies [Eh]
    ---------------------

    Alpha Occupied:

       1A1   -39.557898     2A1    -2.850480     3A1    -1.882300
       1B2    -1.863648     4A1    -1.746191     1B1    -1.744014
       5A1    -0.103075     6A1    -0.001301     2B2     0.022487
       2B1     0.026083

    Alpha Virtual:

       7A1     0.061142     3B2     0.100301     3B1     0.100492
       8A1     0.113215     4B2     0.141822     9A1     0.143149
       4B1     0.143703    10A1     0.145352     5B2     0.190887
       5B1     0.191420    11A1     0.230956     1A2     0.238507
      12A1     0.239041    13A1     0.275583     6B2     0.275587
       6B1     0.277858     2A2     0.367695    14A1     0.367717
      15A1     0.401562     7B2     0.454079     7B1     0.454970
      16A1     0.740773

    Beta Occupied:

       1A1   -39.513720     2A1    -2.730650     3A1    -1.874846
       4A1    -1.700064     1B1    -1.697768

    Beta Virtual:

       1B2    -1.461835     5A1     0.019086     6A1     0.073354
       2B1     0.109961     7A1     0.110770     2B2     0.111826
       3B1     0.132692     8A1     0.132946     3B2     0.133950
       9A1     0.175141    10A1     0.176390     4B1     0.179930
       4B2     0.183661     5B1     0.226784     5B2     0.227627
      11A1     0.274563    12A1     0.308748     1A2     0.309330
      13A1     0.313369     6B1     0.337524     6B2     0.338037
       2A2     0.419433    14A1     0.419742    15A1     0.443697
       7B1     0.505935     7B2     0.506654    16A1     0.773908

    Final Occupation by Irrep:
             A1    A2    B1    B2
    DOCC [     4,    0,    1,    0 ]
    SOCC [     2,    0,    1,    2 ]
    NA   [     6,    0,    2,    2 ]
    NB   [     4,    0,    1,    0 ]

  @DF-UKS Final Energy:  -168.48125649088584

   => Energetics <=

    Nuclear Repulsion Energy =              6.2183028968862324
    One-Electron Energy =                -243.1627215373452202
    Two-Electron Energy =                  81.0471023486279876
    DFT Exchange-Correlation Energy =     -12.5839401990548243
    Empirical Dispersion Energy =           0.0000000000000000
    VV10 Nonlocal Energy =                  0.0000000000000000
    Total Energy =                       -168.4812564908858405

  UHF NO Occupations:
  HONO-2 :    2 B2 1.0000000
  HONO-1 :    2 B1 1.0000000
  HONO-0 :    6 A1 1.0000000
  LUNO+0 :    7 A1 0.0000036
  LUNO+1 :    8 A1 0.0000015
  LUNO+2 :    3 B1 0.0000014
  LUNO+3 :    9 A1 0.0000002

Computation Completed

Properties will be evaluated at   0.000000,   0.000000,   0.000000 [a0]

Properties computed using the SCF density matrix

 Multipole Moments:

 ------------------------------------------------------------------------------------
     Multipole            Electronic (a.u.)      Nuclear  (a.u.)        Total (a.u.)
 ------------------------------------------------------------------------------------

 L = 1.  Multiply by 2.5417464519 to convert [e a0] to [Debye]
 Dipole X            :          0.0000000            0.0000000            0.0000000
 Dipole Y            :          0.0000000            0.0000000            0.0000000
 Dipole Z            :          1.2863471           -1.4514678           -0.1651206
 Magnitude           :                                                    0.1651206

 ------------------------------------------------------------------------------------

*** tstop() called on Joses-MacBook-Pro-2.local at Thu Jul 17 09:32:26 2025
Module time:
	user time   =       3.08 seconds =       0.05 minutes
	system time =       2.99 seconds =       0.05 minutes
	total time  =          0 seconds =       0.00 minutes
Total time:
	user time   =      83.05 seconds =       1.38 minutes
	system time =      82.17 seconds =       1.37 minutes
	total time  =         16 seconds =       0.27 minutes

*** tstart() called on Joses-MacBook-Pro-2.local
*** at Thu Jul 17 09:32:26 2025

         ------------------------------------------------------------
                                   SCF GRAD
                          Rob Parrish, Justin Turney,
                       Andy Simmonett, and Alex Sokolov
         ------------------------------------------------------------

  ==> Geometry <==

    Molecular point group: c2v
    Full point group: C_inf_v

    Geometry (in Angstrom), charge = -1, multiplicity = 6:

       Center              X                  Y                   Z               Mass
    ------------   -----------------  -----------------  -----------------  -----------------
         LI           0.000000000000     0.000000000000     2.151656784315     7.016003436600
         NA           0.000000000000     0.000000000000    -0.656641274124    22.989769282000

  Nuclear repulsion =    6.218302896886232

  ==> Basis Set <==

  Basis Set: CC-PVDZ
    Blend: CC-PVDZ
    Number of shells: 14
    Number of basis functions: 32
    Number of Cartesian functions: 34
    Spherical Harmonics?: true
    Max angular momentum: 2

  ==> DFJKGrad: Density-Fitted SCF Gradients <==

    Gradient:                    1
    J tasked:                  Yes
    K tasked:                  Yes
    wK tasked:                  No
    OpenMP threads:              1
    Integrals threads:           1
    Memory [MiB]:              375
    Schwarz Cutoff:          1E-12
    Fitting Condition:       1E-10

   => Auxiliary Basis Set <=

  Basis Set: (CC-PVDZ AUX)
    Blend: DEF2-UNIVERSAL-JKFIT
    Number of shells: 51
    Number of basis functions: 163
    Number of Cartesian functions: 197
    Spherical Harmonics?: true
    Max angular momentum: 4

  ==> DFT Potential <==

   => LibXC <=

    Version 6.2.2
    S. Lehtola, C. Steigemann, M. J.T. Oliveira, and M. A.L. Marques.,  SoftwareX 7, 1â€“5 (2018) (10.1016/j.softx.2017.11.002)

   => Composite Functional: B3LYP <=

    B3LYP Hyb-GGA Exchange-Correlation Functional

    P. J. Stephens, F. J. Devlin, C. F. Chabalowski, and M. J. Frisch.,  J. Phys. Chem. 98, 11623 (1994) (10.1021/j100096a001)

    Deriv               =              1
    GGA                 =           TRUE
    Meta                =          FALSE

    Exchange Hybrid     =           TRUE
    MP2 Hybrid          =          FALSE

   => Exchange Functionals <=

    0.0800   Slater exchange
    0.7200         Becke 88

   => Exact (HF) Exchange <=

    0.2000               HF

   => Correlation Functionals <=

    0.1900   Vosko, Wilk & Nusair (VWN5_RPA)
    0.8100   Lee, Yang & Parr

   => LibXC Density Thresholds  <==

    XC_HYB_GGA_XC_B3LYP:  1.00E-15

   => Molecular Quadrature <=

    Radial Scheme          =       TREUTLER
    Pruning Scheme         =           NONE
    Nuclear Scheme         =       TREUTLER

    Blocking Scheme        =         OCTREE
    BS radius alpha        =              1
    Pruning alpha          =              1
    Radial Points          =             75
    Spherical Points       =            302
    Total Points           =          43622
    Total Blocks           =            457
    Max Points             =            255
    Max Functions          =             32
    Weights Tolerance      =       1.00E-15

  -Total Gradient:
     Atom            X                  Y                   Z
    ------   -----------------  -----------------  -----------------
       1        0.000000000000     0.000000000000    -0.000025762455
       2       -0.000000000000     0.000000000000     0.000021111787

*** tstop() called on Joses-MacBook-Pro-2.local at Thu Jul 17 09:32:26 2025
Module time:
	user time   =       1.09 seconds =       0.02 minutes
	system time =       1.68 seconds =       0.03 minutes
	total time  =          0 seconds =       0.00 minutes
Total time:
	user time   =      84.14 seconds =       1.40 minutes
	system time =      83.85 seconds =       1.40 minutes
	total time  =         16 seconds =       0.27 minutes

    			-----------------------------------------

    			 OPTKING 3.0: for geometry optimizations

    			     By R.A. King, Bethel University

    			        with contributions from

    			    A.V. Copan, J. Cayton, A. Heide

    			-----------------------------------------

	                            ===> Fragment 1 <==

	 Z (Atomic Numbers)          Masses                          Geom
	       3.000000             7.016003          0.00000000  0.00000000  4.06604204
	      11.000000            22.989769          0.00000000  0.00000000 -1.24087217

	 - Coordinate -           - BOHR/RAD -       - ANG/DEG -
	 R(1,2)           =         5.306914           2.808298

	        --- Internal Coordinate Step in ANG or DEG, aJ/ANG or AJ/DEG ---
	-------------------------------------------------------------------------------
	           Coordinate      Previous         Force          Change          New
	           ----------      --------        ------          ------        ------
	               R(1,2)       2.80830        0.00019        0.00212       2.81042
	-------------------------------------------------------------------------------

	                                 ==> Convergence Check <==

	Measures of convergence in internal coordinates in au.

	Criteria marked as inactive (o), active & met (*), and active & unmet ( ).

	----------------------------------------------------------------------------------------------
	   Step    Total Energy     Delta E     Max Force     RMS Force      Max Disp      RMS Disp
	----------------------------------------------------------------------------------------------
	  Convergence Criteria     1.00e-06 *    3.00e-04 *             o    1.20e-03 *             o
	----------------------------------------------------------------------------------------------
	    15    -168.48125649   -6.52e-07 *    2.34e-05 *    2.34e-05 o    4.01e-03      4.01e-03 o  ~
	----------------------------------------------------------------------------------------------

Next Geometry in Ang
	Fragment 1 (Ang)

	   Li   0.0000000000   0.0000000000   2.1527177822
	   Na   0.0000000000   0.0000000000  -0.6577022720

    Final optimized geometry and variables:
    Molecular point group: c2v
    Full point group: C_inf_v

    Geometry (in Angstrom), charge = -1, multiplicity = 6:

    LI           0.000000000000     0.000000000000     2.151656784315
    NA           0.000000000000     0.000000000000    -0.656641274124

    Psi4 stopped on: Thursday, 17 July 2025 09:32AM
    Psi4 wall time for execution: 0:00:17.17

*** Psi4 exiting successfully. Buy a developer a beer!
