                               Psi4 1.9.1 release

  ==> Input File <==

--------------------------------------------------------------------------
molecule {
-1 6
He   0.00000        0.60000        0.00000
Ar   0.00000       -0.60000        0.00000
}

set {
basis              cc-pvdz
reference          uks
maxiter            500
geom_maxiter       500
DAMPING_PERCENTAGE 1
guess              SAP
}

optimize('b3lyp')
--------------------------------------------------------------------------

    Molecular point group: c2v
  Charge       = -1
  Multiplicity = 6
  Basis Set: CC-PVDZ
    Blend: CC-PVDZ
  Basis Set: (CC-PVDZ AUX)
    Blend: CC-PVDZ-JKFIT + DEF2-UNIVERSAL-JKFIT
  @DF-UKS Final Energy:  -527.94237798961672
    Total Energy =                       -527.9423779896167161
 Dipole X            :          0.0000000            0.0000000            0.0000000
 Dipole Y            :          0.0000000            0.0000000            0.0000000
 Dipole Z            :          0.5850474            0.4063348            0.9913823
 Magnitude           :                                                    0.9913823
    Molecular point group: c2v
  Basis Set: CC-PVDZ
    Blend: CC-PVDZ
  Basis Set: (CC-PVDZ AUX)
    Blend: CC-PVDZ-JKFIT + DEF2-UNIVERSAL-JKFIT
  Basis Set: CC-PVDZ
    Blend: CC-PVDZ
  Basis Set: (CC-PVDZ AUX)
    Blend: CC-PVDZ-JKFIT + DEF2-UNIVERSAL-JKFIT
  @DF-UKS Final Energy:  -528.03462855944974
    Total Energy =                       -528.0346285594497431
  Basis Set: CC-PVDZ
    Blend: CC-PVDZ
  Basis Set: (CC-PVDZ AUX)
    Blend: CC-PVDZ-JKFIT + DEF2-UNIVERSAL-JKFIT
  Basis Set: CC-PVDZ
    Blend: CC-PVDZ
  @DF-UKS Final Energy:  -528.04675920041370
    Total Energy =                       -528.0467592004137032
  @DF-UKS Final Energy:  -528.05170699193286
    Total Energy =                       -528.0517069919328605
  @DF-UKS Final Energy:  -528.05264162865740
    Total Energy =                       -528.0526416286573976
  @DF-UKS Final Energy:  -528.05293267563923
    Total Energy =                       -528.0529326756392265
  @DF-UKS Final Energy:  -528.05305368871655
    Total Energy =                       -528.0530536887165454
  @DF-UKS Final Energy:  -528.05313116272453
    Total Energy =                       -528.0531311627245259
  @DF-UKS Final Energy:  -528.05318131461831
    Total Energy =                       -528.0531813146183140
  @DF-UKS Final Energy:  -528.05320714514130
    Total Energy =                       -528.0532071451413003
  @DF-UKS Final Energy:  -528.05322159072978
    Total Energy =                       -528.0532215907298905
  @DF-UKS Final Energy:  -528.05323269342091
    Total Energy =                       -528.0532326934209095
  @DF-UKS Final Energy:  -528.05324979437046
    Total Energy =                       -528.0532497943704584
  @DF-UKS Final Energy:  -528.05348883698844
    Total Energy =                       -528.0534888369884357
  @DF-UKS Final Energy:  -528.08713514187480
    Total Energy =                       -528.0871351418747963
  @DF-UKS Final Energy:  -528.09665953404783
    Total Energy =                       -528.0966595340479444
  @DF-UKS Final Energy:  -528.10410765599920
    Total Energy =                       -528.1041076559992007
  @DF-UKS Final Energy:  -528.10514281003543
    Total Energy =                       -528.1051428100354315
  @DF-UKS Final Energy:  -528.10534974004304
    Total Energy =                       -528.1053497400430388
  @DF-UKS Final Energy:  -528.10536779113727
    Total Energy =                       -528.1053677911372688
  Basis Set: (CC-PVDZ AUX)
    Blend: CC-PVDZ-JKFIT + DEF2-UNIVERSAL-JKFIT
  Basis Set: CC-PVDZ
    Blend: CC-PVDZ
  Basis Set: (CC-PVDZ AUX)
    Blend: CC-PVDZ-JKFIT + DEF2-UNIVERSAL-JKFIT
  @DF-UKS Final Energy:  -528.10536965809979
    Total Energy =                       -528.1053696580997894
  Basis Set: CC-PVDZ
    Blend: CC-PVDZ
  Basis Set: (CC-PVDZ AUX)
    Blend: CC-PVDZ-JKFIT + DEF2-UNIVERSAL-JKFIT
  Charge       = -1
  Multiplicity = 6
  Basis Set: CC-PVDZ
    Blend: CC-PVDZ
  Basis Set: (CC-PVDZ AUX)
    Blend: CC-PVDZ-JKFIT + DEF2-UNIVERSAL-JKFIT

    Orbital Energies [Eh]
    ---------------------

    Alpha Occupied:

       1A1  -114.737289     2A1   -10.846695     3A1    -8.407405
       1B1    -8.407342     1B2    -8.380190     4A1    -0.802996
       5A1    -0.468636     2B1    -0.271828     6A1    -0.271453
       2B2    -0.211708     7A1     0.671556     3B1     0.674445
       3B2     0.710536

    Alpha Virtual:

       8A1     0.881181     9A1     0.979935     4B1     0.980355
       4B2     1.027770     1A2     1.027961    10A1     1.045019
      11A1     1.325643     5B1     2.371294     5B2     2.371425
      12A1     2.377793

    Beta Occupied:

       1A1  -114.698231     2A1   -10.810205     3A1    -8.346146
       1B1    -8.345713     1B2    -8.338432     4A1    -0.636212
       5A1    -0.464158     2B2    -0.127134

    Beta Virtual:

       6A1    -0.029841     2B1    -0.029826     7A1     0.866234
       3B2     0.867665     3B1     0.874008     8A1     1.011279
       4B2     1.127142     1A2     1.127485     9A1     1.131276
      10A1     1.137074     4B1     1.137772    11A1     1.335325
       5B1     2.372617     5B2     2.372747    12A1     2.380015

    Final Occupation by Irrep:
             A1    A2    B1    B2
    DOCC [     5,    0,    1,    2 ]
    SOCC [     2,    0,    2,    1 ]
    NA   [     7,    0,    3,    3 ]
    NB   [     5,    0,    1,    2 ]

  @DF-UKS Final Energy:  -528.10536985669569

   => Energetics <=

    Nuclear Repulsion Energy =              6.3647000512556797
    One-Electron Energy =                -747.9302761296129347
    Two-Electron Energy =                 239.5038277649625797
    DFT Exchange-Correlation Energy =     -26.0436215433010396
    Empirical Dispersion Energy =           0.0000000000000000
    VV10 Nonlocal Energy =                  0.0000000000000000
    Total Energy =                       -528.1053698566956882

  UHF NO Occupations:
  HONO-2 :    3 B1 1.0000000
  HONO-1 :    6 A1 1.0000000
  HONO-0 :    7 A1 1.0000000
  LUNO+0 :    8 A1 0.0010800
  LUNO+1 :    9 A1 0.0000067
  LUNO+2 :   10 A1 0.0000001
  LUNO+3 :    4 B2 0.0000001

Computation Completed

Properties will be evaluated at   0.000000,   0.000000,   0.000000 [a0]

Properties computed using the SCF density matrix

 Multipole Moments:

 ------------------------------------------------------------------------------------
     Multipole            Electronic (a.u.)      Nuclear  (a.u.)        Total (a.u.)
 ------------------------------------------------------------------------------------

 L = 1.  Multiply by 2.5417464519 to convert [e a0] to [Debye]
 Dipole X            :          0.0000000            0.0000000            0.0000000
 Dipole Y            :          0.0000000            0.0000000            0.0000000
 Dipole Z            :         -0.6405396            1.0135111            0.3729715
 Magnitude           :                                                    0.3729715

 ------------------------------------------------------------------------------------

*** tstop() called on Joses-MacBook-Pro-2.local at Thu Jul 17 09:26:48 2025
Module time:
	user time   =       2.58 seconds =       0.04 minutes
	system time =       2.03 seconds =       0.03 minutes
	total time  =          0 seconds =       0.00 minutes
Total time:
	user time   =      86.73 seconds =       1.45 minutes
	system time =      94.34 seconds =       1.57 minutes
	total time  =         17 seconds =       0.28 minutes

*** tstart() called on Joses-MacBook-Pro-2.local
*** at Thu Jul 17 09:26:48 2025

         ------------------------------------------------------------
                                   SCF GRAD
                          Rob Parrish, Justin Turney,
                       Andy Simmonett, and Alex Sokolov
         ------------------------------------------------------------

  ==> Geometry <==

    Molecular point group: c2v
    Full point group: C_inf_v

    Geometry (in Angstrom), charge = -1, multiplicity = 6:

       Center              X                  Y                   Z               Mass
    ------------   -----------------  -----------------  -----------------  -----------------
         HE           0.000000000000     0.000000000000     2.720634044117     4.002603254130
         AR           0.000000000000     0.000000000000    -0.272496728851    39.962383123700

  Nuclear repulsion =    6.364700051255680

  ==> Basis Set <==

  Basis Set: CC-PVDZ
    Blend: CC-PVDZ
    Number of shells: 11
    Number of basis functions: 23
    Number of Cartesian functions: 24
    Spherical Harmonics?: true
    Max angular momentum: 2

  ==> DFJKGrad: Density-Fitted SCF Gradients <==

    Gradient:                    1
    J tasked:                  Yes
    K tasked:                  Yes
    wK tasked:                  No
    OpenMP threads:              1
    Integrals threads:           1
    Memory [MiB]:              375
    Schwarz Cutoff:          1E-12
    Fitting Condition:       1E-10

   => Auxiliary Basis Set <=

  Basis Set: (CC-PVDZ AUX)
    Blend: CC-PVDZ-JKFIT + DEF2-UNIVERSAL-JKFIT
    Number of shells: 45
    Number of basis functions: 135
    Number of Cartesian functions: 155
    Spherical Harmonics?: true
    Max angular momentum: 3

  ==> DFT Potential <==

   => LibXC <=

    Version 6.2.2
    S. Lehtola, C. Steigemann, M. J.T. Oliveira, and M. A.L. Marques.,  SoftwareX 7, 1â€“5 (2018) (10.1016/j.softx.2017.11.002)

   => Composite Functional: B3LYP <=

    B3LYP Hyb-GGA Exchange-Correlation Functional

    P. J. Stephens, F. J. Devlin, C. F. Chabalowski, and M. J. Frisch.,  J. Phys. Chem. 98, 11623 (1994) (10.1021/j100096a001)

    Deriv               =              1
    GGA                 =           TRUE
    Meta                =          FALSE

    Exchange Hybrid     =           TRUE
    MP2 Hybrid          =          FALSE

   => Exchange Functionals <=

    0.0800   Slater exchange
    0.7200         Becke 88

   => Exact (HF) Exchange <=

    0.2000               HF

   => Correlation Functionals <=

    0.1900   Vosko, Wilk & Nusair (VWN5_RPA)
    0.8100   Lee, Yang & Parr

   => LibXC Density Thresholds  <==

    XC_HYB_GGA_XC_B3LYP:  1.00E-15

   => Molecular Quadrature <=

    Radial Scheme          =       TREUTLER
    Pruning Scheme         =           NONE
    Nuclear Scheme         =       TREUTLER

    Blocking Scheme        =         OCTREE
    BS radius alpha        =              1
    Pruning alpha          =              1
    Radial Points          =             75
    Spherical Points       =            302
    Total Points           =          41962
    Total Blocks           =            380
    Max Points             =            256
    Max Functions          =             23
    Weights Tolerance      =       1.00E-15

  -Total Gradient:
     Atom            X                  Y                   Z
    ------   -----------------  -----------------  -----------------
       1        0.000000000000     0.000000000000    -0.000031722051
       2        0.000000000000     0.000000000000     0.000026239064

*** tstop() called on Joses-MacBook-Pro-2.local at Thu Jul 17 09:26:49 2025
Module time:
	user time   =       0.59 seconds =       0.01 minutes
	system time =       1.02 seconds =       0.02 minutes
	total time  =          1 seconds =       0.02 minutes
Total time:
	user time   =      87.33 seconds =       1.46 minutes
	system time =      95.36 seconds =       1.59 minutes
	total time  =         18 seconds =       0.30 minutes

    			-----------------------------------------

    			 OPTKING 3.0: for geometry optimizations

    			     By R.A. King, Bethel University

    			        with contributions from

    			    A.V. Copan, J. Cayton, A. Heide

    			-----------------------------------------

	                            ===> Fragment 1 <==

	 Z (Atomic Numbers)          Masses                          Geom
	       2.000000             4.002603          0.00000000  0.00000000  5.14125323
	      18.000000            39.962383          0.00000000  0.00000000 -0.51494419

	 - Coordinate -           - BOHR/RAD -       - ANG/DEG -
	 R(1,2)           =         5.656197           2.993131

	        --- Internal Coordinate Step in ANG or DEG, aJ/ANG or AJ/DEG ---
	-------------------------------------------------------------------------------
	           Coordinate      Previous         Force          Change          New
	           ----------      --------        ------          ------        ------
	               R(1,2)       2.99313        0.00024        0.00086       2.99399
	-------------------------------------------------------------------------------

	                                 ==> Convergence Check <==

	Measures of convergence in internal coordinates in au.

	Criteria marked as inactive (o), active & met (*), and active & unmet ( ).

	----------------------------------------------------------------------------------------------
	   Step    Total Energy     Delta E     Max Force     RMS Force      Max Disp      RMS Disp
	----------------------------------------------------------------------------------------------
	  Convergence Criteria     1.00e-06 *    3.00e-04 *             o    1.20e-03 *             o
	----------------------------------------------------------------------------------------------
	    22    -528.10536986   -1.99e-07 *    2.90e-05 *    2.90e-05 o    1.63e-03      1.63e-03 o  ~
	----------------------------------------------------------------------------------------------

Next Geometry in Ang
	Fragment 1 (Ang)

	   He   0.0000000000   0.0000000000   2.7210642634
	   Ar   0.0000000000   0.0000000000  -0.2729269481

    Final optimized geometry and variables:
    Molecular point group: c2v
    Full point group: C_inf_v

    Geometry (in Angstrom), charge = -1, multiplicity = 6:

    HE           0.000000000000     0.000000000000     2.720634044117
    AR           0.000000000000     0.000000000000    -0.272496728851

    Psi4 stopped on: Thursday, 17 July 2025 09:26AM
    Psi4 wall time for execution: 0:00:17.73

*** Psi4 exiting successfully. Buy a developer a beer!
