                               Psi4 1.9.1 release

  ==> Input File <==

--------------------------------------------------------------------------
molecule {
-1 6
Ne   0.00000        0.60000        0.00000
Mg   0.00000       -0.60000        0.00000
}

set {
basis              cc-pvdz
reference          uks
maxiter            500
geom_maxiter       500
DAMPING_PERCENTAGE 1
guess              SAP
}

optimize('b3lyp')
--------------------------------------------------------------------------

    Molecular point group: c2v
  Charge       = -1
  Multiplicity = 6
  Basis Set: CC-PVDZ
    Blend: CC-PVDZ
  Basis Set: (CC-PVDZ AUX)
    Blend: CC-PVDZ-JKFIT + DEF2-UNIVERSAL-JKFIT
  @DF-UKS Final Energy:  -327.69263236885206
    Total Energy =                       -327.6926323688520597
 Dipole X            :          0.0000000            0.0000000            0.0000000
 Dipole Y            :          0.0000000            0.0000000            0.0000000
 Dipole Z            :          2.0888967           -0.0030353            2.0858614
 Magnitude           :                                                    2.0858614
    Molecular point group: c2v
  Basis Set: CC-PVDZ
    Blend: CC-PVDZ
  Basis Set: (CC-PVDZ AUX)
    Blend: CC-PVDZ-JKFIT + DEF2-UNIVERSAL-JKFIT
  Basis Set: CC-PVDZ
    Blend: CC-PVDZ
  Basis Set: (CC-PVDZ AUX)
    Blend: CC-PVDZ-JKFIT + DEF2-UNIVERSAL-JKFIT
  @DF-UKS Final Energy:  -327.89066038300683
    Total Energy =                       -327.8906603830068320
  Basis Set: CC-PVDZ
    Blend: CC-PVDZ
  Basis Set: (CC-PVDZ AUX)
    Blend: CC-PVDZ-JKFIT + DEF2-UNIVERSAL-JKFIT
  Basis Set: CC-PVDZ
    Blend: CC-PVDZ
  @DF-UKS Final Energy:  -328.02220859085037
    Total Energy =                       -328.0222085908503686
  @DF-UKS Final Energy:  -328.10949077834005
    Total Energy =                       -328.1094907783401027
  @DF-UKS Final Energy:  -328.17465591712624
    Total Energy =                       -328.1746559171262447
  @DF-UKS Final Energy:  -328.21847824238222
    Total Energy =                       -328.2184782423821616
  @DF-UKS Final Energy:  -328.24376042325258
    Total Energy =                       -328.2437604232525814
  @DF-UKS Final Energy:  -328.25437518939577
    Total Energy =                       -328.2543751893957733
  @DF-UKS Final Energy:  -328.25724610457644
    Total Energy =                       -328.2572461045763816
  @DF-UKS Final Energy:  -328.25763193970062
    Total Energy =                       -328.2576319397006159
  Basis Set: (CC-PVDZ AUX)
    Blend: CC-PVDZ-JKFIT + DEF2-UNIVERSAL-JKFIT
  Basis Set: CC-PVDZ
    Blend: CC-PVDZ
  Basis Set: (CC-PVDZ AUX)
    Blend: CC-PVDZ-JKFIT + DEF2-UNIVERSAL-JKFIT
  @DF-UKS Final Energy:  -328.25764615069852
    Total Energy =                       -328.2576461506985765
  Basis Set: CC-PVDZ
    Blend: CC-PVDZ
  Basis Set: (CC-PVDZ AUX)
    Blend: CC-PVDZ-JKFIT + DEF2-UNIVERSAL-JKFIT
  Charge       = -1
  Multiplicity = 6
  Basis Set: CC-PVDZ
    Blend: CC-PVDZ
  Basis Set: (CC-PVDZ AUX)
    Blend: CC-PVDZ-JKFIT + DEF2-UNIVERSAL-JKFIT

    Orbital Energies [Eh]
    ---------------------

    Alpha Occupied:

       1A1   -46.645468     2A1   -31.502675     3A1    -2.927085
       4A1    -1.873619     5A1    -1.672235     1B1    -1.669877
       1B2    -1.669877     6A1    -1.047049     2B2    -0.935456
       2B1    -0.935456     7A1    -0.074686     8A1     0.057780
       3B2     0.071567     3B1     0.071567

    Alpha Virtual:

       9A1     0.206414    10A1     0.294672     4B1     0.308930
       4B2     0.308930    11A1     0.464025     5B1     0.468266
       5B2     0.468266     1A2     0.489241    12A1     0.489242
       6B2     1.117392     6B1     1.117392    13A1     1.139565
      14A1     1.684972    15A1     4.232105     7B2     4.253269
       7B1     4.253269     2A2     4.336095    16A1     4.336657

    Beta Occupied:

       1A1   -46.641008     2A1   -31.461029     3A1    -2.919895
       4A1    -1.763252     5A1    -1.665990     1B1    -1.663480
       1B2    -1.663480     2B2    -0.893921     2B1    -0.893921

    Beta Virtual:

       6A1    -0.685050     7A1     0.051397     8A1     0.153634
       3B2     0.176097     3B1     0.176097     9A1     0.263445
      10A1     0.343487     4B1     0.360005     4B2     0.360005
      11A1     0.531740     5B1     0.537785     5B2     0.537785
       1A2     0.558412    12A1     0.558418     6B2     1.138709
       6B1     1.138709    13A1     1.246984    14A1     1.744981
       2A2     4.356375    15A1     4.356885     7B2     4.368672
       7B1     4.368672    16A1     4.396922

    Final Occupation by Irrep:
             A1    A2    B1    B2
    DOCC [     5,    0,    2,    2 ]
    SOCC [     3,    0,    1,    1 ]
    NA   [     8,    0,    3,    3 ]
    NB   [     5,    0,    2,    2 ]

  @DF-UKS Final Energy:  -328.25764670925338

   => Energetics <=

    Nuclear Repulsion Energy =             22.8372281307653928
    One-Electron Energy =                -505.3093130448735337
    Two-Electron Energy =                 177.3827288102830551
    DFT Exchange-Correlation Energy =     -23.1682906054282505
    Empirical Dispersion Energy =           0.0000000000000000
    VV10 Nonlocal Energy =                  0.0000000000000000
    Total Energy =                       -328.2576467092533790

  UHF NO Occupations:
  HONO-2 :    3 B2 1.0000000
  HONO-1 :    7 A1 1.0000000
  HONO-0 :    8 A1 1.0000000
  LUNO+0 :    9 A1 0.0002625
  LUNO+1 :    4 B1 0.0000487
  LUNO+2 :    4 B2 0.0000487
  LUNO+3 :   10 A1 0.0000004

Computation Completed

Properties will be evaluated at   0.000000,   0.000000,   0.000000 [a0]

Properties computed using the SCF density matrix

 Multipole Moments:

 ------------------------------------------------------------------------------------
     Multipole            Electronic (a.u.)      Nuclear  (a.u.)        Total (a.u.)
 ------------------------------------------------------------------------------------

 L = 1.  Multiply by 2.5417464519 to convert [e a0] to [Debye]
 Dipole X            :          0.0000000            0.0000000            0.0000000
 Dipole Y            :          0.0000000            0.0000000            0.0000000
 Dipole Z            :          6.7625069           -0.0070334            6.7554735
 Magnitude           :                                                    6.7554735

 ------------------------------------------------------------------------------------

*** tstop() called on Joses-MacBook-Pro-2.local at Thu Jul 17 10:59:26 2025
Module time:
	user time   =       3.66 seconds =       0.06 minutes
	system time =       2.88 seconds =       0.05 minutes
	total time  =          0 seconds =       0.00 minutes
Total time:
	user time   =      57.43 seconds =       0.96 minutes
	system time =      66.39 seconds =       1.11 minutes
	total time  =         13 seconds =       0.22 minutes

*** tstart() called on Joses-MacBook-Pro-2.local
*** at Thu Jul 17 10:59:26 2025

         ------------------------------------------------------------
                                   SCF GRAD
                          Rob Parrish, Justin Turney,
                       Andy Simmonett, and Alex Sokolov
         ------------------------------------------------------------

  ==> Geometry <==

    Molecular point group: c2v
    Full point group: C_inf_v

    Geometry (in Angstrom), charge = -1, multiplicity = 6:

       Center              X                  Y                   Z               Mass
    ------------   -----------------  -----------------  -----------------  -----------------
         NE           0.000000000000     0.000000000000     1.516523372800    19.992440176200
         MG           0.000000000000     0.000000000000    -1.264079637197    23.985041697000

  Nuclear repulsion =   22.837228130765393

  ==> Basis Set <==

  Basis Set: CC-PVDZ
    Blend: CC-PVDZ
    Number of shells: 14
    Number of basis functions: 32
    Number of Cartesian functions: 34
    Spherical Harmonics?: true
    Max angular momentum: 2

  ==> DFJKGrad: Density-Fitted SCF Gradients <==

    Gradient:                    1
    J tasked:                  Yes
    K tasked:                  Yes
    wK tasked:                  No
    OpenMP threads:              1
    Integrals threads:           1
    Memory [MiB]:              375
    Schwarz Cutoff:          1E-12
    Fitting Condition:       1E-10

   => Auxiliary Basis Set <=

  Basis Set: (CC-PVDZ AUX)
    Blend: CC-PVDZ-JKFIT + DEF2-UNIVERSAL-JKFIT
    Number of shells: 58
    Number of basis functions: 182
    Number of Cartesian functions: 218
    Spherical Harmonics?: true
    Max angular momentum: 4

  ==> DFT Potential <==

   => LibXC <=

    Version 6.2.2
    S. Lehtola, C. Steigemann, M. J.T. Oliveira, and M. A.L. Marques.,  SoftwareX 7, 1â€“5 (2018) (10.1016/j.softx.2017.11.002)

   => Composite Functional: B3LYP <=

    B3LYP Hyb-GGA Exchange-Correlation Functional

    P. J. Stephens, F. J. Devlin, C. F. Chabalowski, and M. J. Frisch.,  J. Phys. Chem. 98, 11623 (1994) (10.1021/j100096a001)

    Deriv               =              1
    GGA                 =           TRUE
    Meta                =          FALSE

    Exchange Hybrid     =           TRUE
    MP2 Hybrid          =          FALSE

   => Exchange Functionals <=

    0.0800   Slater exchange
    0.7200         Becke 88

   => Exact (HF) Exchange <=

    0.2000               HF

   => Correlation Functionals <=

    0.1900   Vosko, Wilk & Nusair (VWN5_RPA)
    0.8100   Lee, Yang & Parr

   => LibXC Density Thresholds  <==

    XC_HYB_GGA_XC_B3LYP:  1.00E-15

   => Molecular Quadrature <=

    Radial Scheme          =       TREUTLER
    Pruning Scheme         =           NONE
    Nuclear Scheme         =       TREUTLER

    Blocking Scheme        =         OCTREE
    BS radius alpha        =              1
    Pruning alpha          =              1
    Radial Points          =             75
    Spherical Points       =            302
    Total Points           =          43501
    Total Blocks           =            410
    Max Points             =            256
    Max Functions          =             32
    Weights Tolerance      =       1.00E-15

  -Total Gradient:
     Atom            X                  Y                   Z
    ------   -----------------  -----------------  -----------------
       1        0.000000000000     0.000000000000    -0.000029074198
       2        0.000000000000     0.000000000000     0.000037826130

*** tstop() called on Joses-MacBook-Pro-2.local at Thu Jul 17 10:59:26 2025
Module time:
	user time   =       1.48 seconds =       0.02 minutes
	system time =       1.10 seconds =       0.02 minutes
	total time  =          0 seconds =       0.00 minutes
Total time:
	user time   =      58.91 seconds =       0.98 minutes
	system time =      67.49 seconds =       1.12 minutes
	total time  =         13 seconds =       0.22 minutes

    			-----------------------------------------

    			 OPTKING 3.0: for geometry optimizations

    			     By R.A. King, Bethel University

    			        with contributions from

    			    A.V. Copan, J. Cayton, A. Heide

    			-----------------------------------------

	                            ===> Fragment 1 <==

	 Z (Atomic Numbers)          Masses                          Geom
	      10.000000            19.992440          0.00000000  0.00000000  2.86581384
	      12.000000            23.985042          0.00000000  0.00000000 -2.38876432

	 - Coordinate -           - BOHR/RAD -       - ANG/DEG -
	 R(1,2)           =         5.254578           2.780603

	        --- Internal Coordinate Step in ANG or DEG, aJ/ANG or AJ/DEG ---
	-------------------------------------------------------------------------------
	           Coordinate      Previous         Force          Change          New
	           ----------      --------        ------          ------        ------
	               R(1,2)       2.78060        0.00028        0.00049       2.78109
	-------------------------------------------------------------------------------

	                                 ==> Convergence Check <==

	Measures of convergence in internal coordinates in au.

	Criteria marked as inactive (o), active & met (*), and active & unmet ( ).

	----------------------------------------------------------------------------------------------
	   Step    Total Energy     Delta E     Max Force     RMS Force      Max Disp      RMS Disp
	----------------------------------------------------------------------------------------------
	  Convergence Criteria     1.00e-06 *    3.00e-04 *             o    1.20e-03 *             o
	----------------------------------------------------------------------------------------------
	    12    -328.25764671   -5.59e-07 *    3.35e-05 *    3.35e-05 o    9.28e-04 *    9.28e-04 o  ~
	----------------------------------------------------------------------------------------------

Next Geometry in Ang
	Fragment 1 (Ang)

	   Ne   0.0000000000   0.0000000000   1.5167687920
	   Mg   0.0000000000   0.0000000000  -1.2643250564

    Final optimized geometry and variables:
    Molecular point group: c2v
    Full point group: C_inf_v

    Geometry (in Angstrom), charge = -1, multiplicity = 6:

    NE           0.000000000000     0.000000000000     1.516523372800
    MG           0.000000000000     0.000000000000    -1.264079637197

    Psi4 stopped on: Thursday, 17 July 2025 10:59AM
    Psi4 wall time for execution: 0:00:13.77

*** Psi4 exiting successfully. Buy a developer a beer!
