                               Psi4 1.9.1 release

  ==> Input File <==

--------------------------------------------------------------------------
molecule {
-1 6
S   0.00000        0.60000        0.00000
S   0.00000       -0.60000        0.00000
}

set {
basis              cc-pvdz
reference          uks
maxiter            500
geom_maxiter       500
DAMPING_PERCENTAGE 1
guess              SAP
}

optimize('b3lyp')
--------------------------------------------------------------------------

    Molecular point group: d2h
  Charge       = -1
  Multiplicity = 6
  Basis Set: CC-PVDZ
    Blend: CC-PVDZ
  Basis Set: (CC-PVDZ AUX)
    Blend: CC-PVDZ-JKFIT
  @DF-UKS Final Energy:  -794.48526091583244
    Total Energy =                       -794.4852609158325549
 Dipole X            :          0.0000000            0.0000000            0.0000000
 Dipole Y            :          0.0000000            0.0000000            0.0000000
 Dipole Z            :          0.0000000            0.0000000            0.0000000
 Magnitude           :                                                    0.0000000
    Molecular point group: d2h
  Basis Set: CC-PVDZ
    Blend: CC-PVDZ
  Basis Set: (CC-PVDZ AUX)
    Blend: CC-PVDZ-JKFIT
  Basis Set: CC-PVDZ
    Blend: CC-PVDZ
  Basis Set: (CC-PVDZ AUX)
    Blend: CC-PVDZ-JKFIT
  @DF-UKS Final Energy:  -794.52989970260319
    Total Energy =                       -794.5298997026031884
  Basis Set: CC-PVDZ
    Blend: CC-PVDZ
  Basis Set: (CC-PVDZ AUX)
    Blend: CC-PVDZ-JKFIT
  Basis Set: CC-PVDZ
    Blend: CC-PVDZ
  @DF-UKS Final Energy:  -794.61233025480317
    Total Energy =                       -794.6123302548031688
  @DF-UKS Final Energy:  -794.87711306923472
    Total Energy =                       -794.8771130692347242
  @DF-UKS Final Energy:  -795.39764356230717
    Total Energy =                       -795.3976435623072803
  @DF-UKS Final Energy:  -795.57296737157105
    Total Energy =                       -795.5729673715711670
  @DF-UKS Final Energy:  -795.68381913530686
    Total Energy =                       -795.6838191353068623
  @DF-UKS Final Energy:  -795.73097022311322
    Total Energy =                       -795.7309702231132178
  @DF-UKS Final Energy:  -795.75543091781867
    Total Energy =                       -795.7554309178187850
  @DF-UKS Final Energy:  -795.76600677268937
    Total Energy =                       -795.7660067726893658
  @DF-UKS Final Energy:  -795.76876914244917
    Total Energy =                       -795.7687691424491732
  @DF-UKS Final Energy:  -795.76913737184259
    Total Energy =                       -795.7691373718425893
  @DF-UKS Final Energy:  -795.76918831099238
    Total Energy =                       -795.7691883109923765
  Basis Set: (CC-PVDZ AUX)
    Blend: CC-PVDZ-JKFIT
  Basis Set: CC-PVDZ
    Blend: CC-PVDZ
  Basis Set: (CC-PVDZ AUX)
    Blend: CC-PVDZ-JKFIT
  @DF-UKS Final Energy:  -795.76919620810395
    Total Energy =                       -795.7691962081039492
  Basis Set: CC-PVDZ
    Blend: CC-PVDZ
  Basis Set: (CC-PVDZ AUX)
    Blend: CC-PVDZ-JKFIT
  Charge       = -1
  Multiplicity = 6
  Basis Set: CC-PVDZ
    Blend: CC-PVDZ
  Basis Set: (CC-PVDZ AUX)
    Blend: CC-PVDZ-JKFIT

    Orbital Energies [Eh]
    ---------------------

    Alpha Occupied:

       1B2u  -88.669154     1Ag   -88.669153     2B2u   -7.718161
       2Ag    -7.718116     3Ag    -5.685400     3B2u   -5.685095
       1B3u   -5.679509     1B1u   -5.679509     1B1g   -5.679504
       1B3g   -5.679504     4Ag    -0.543465     4B2u   -0.406946
       5Ag    -0.169230     2B3u   -0.101999     2B1u   -0.101999
       2B3g   -0.009035     2B1g   -0.009035     5B2u    0.117297
       6Ag     0.501217

    Alpha Virtual:

       6B2u    0.636130     7Ag     0.659353     3B3u    0.682960
       3B1u    0.682960     4B3u    0.700442     4B1u    0.700442
       3B1g    0.728392     3B3g    0.728392     1B2g    0.782376
       8Ag     0.782378     1Au     0.848042     7B2u    0.848044
       8B2u    0.856247     9Ag     0.984823     4B3g    1.039958
       4B1g    1.039958     9B2u    1.392707

    Beta Occupied:

       1Ag   -88.657101     1B2u  -88.657101     2B2u   -7.705397
       2Ag    -7.705341     1B3u   -5.664211     1B1u   -5.664211
       1B1g   -5.664196     1B3g   -5.664196     3Ag    -5.662177
       3B2u   -5.661952     4Ag    -0.439890     4B2u   -0.296509
       2B1u   -0.025783     2B3u   -0.025783

    Beta Virtual:

       5Ag     0.010022     2B3g    0.116561     2B1g    0.116561
       5B2u    0.276450     6Ag     0.661314     6B2u    0.704928
       7Ag     0.709308     3B3u    0.736758     3B1u    0.736758
       4B1u    0.766832     4B3u    0.766832     3B1g    0.771948
       3B3g    0.771948     1B2g    0.851458     8Ag     0.851461
       1Au     0.921599     7B2u    0.921602     8B2u    0.931217
       9Ag     1.059575     4B3g    1.116562     4B1g    1.116562
       9B2u    1.482772

    Final Occupation by Irrep:
             Ag   B1g   B2g   B3g    Au   B1u   B2u   B3u
    DOCC [     4,    1,    0,    1,    0,    2,    4,    2 ]
    SOCC [     2,    1,    0,    1,    0,    0,    1,    0 ]
    NA   [     6,    2,    0,    2,    0,    2,    5,    2 ]
    NB   [     4,    1,    0,    1,    0,    2,    4,    2 ]

  @DF-UKS Final Energy:  -795.76919672285919

   => Energetics <=

    Nuclear Repulsion Energy =             65.2484310789707678
    One-Electron Energy =               -1237.3783249088828597
    Two-Electron Energy =                 417.9587505454297798
    DFT Exchange-Correlation Energy =     -41.5980534383767946
    Empirical Dispersion Energy =           0.0000000000000000
    VV10 Nonlocal Energy =                  0.0000000000000000
    Total Energy =                       -795.7691967228591921

  UHF NO Occupations:
  HONO-2 :    2B1g 1.0000000
  HONO-1 :    5B2u 1.0000000
  HONO-0 :    2B3g 1.0000000
  LUNO+0 :    3B3u 0.0009385
  LUNO+1 :    3B1u 0.0009385
  LUNO+2 :    6B2u 0.0001672
  LUNO+3 :    7 Ag 0.0000609

Computation Completed

Properties will be evaluated at   0.000000,   0.000000,   0.000000 [a0]

Properties computed using the SCF density matrix

 Multipole Moments:

 ------------------------------------------------------------------------------------
     Multipole            Electronic (a.u.)      Nuclear  (a.u.)        Total (a.u.)
 ------------------------------------------------------------------------------------

 L = 1.  Multiply by 2.5417464519 to convert [e a0] to [Debye]
 Dipole X            :          0.0000000            0.0000000            0.0000000
 Dipole Y            :          0.0000000            0.0000000            0.0000000
 Dipole Z            :          0.0000000            0.0000000            0.0000000
 Magnitude           :                                                    0.0000000

 ------------------------------------------------------------------------------------

*** tstop() called on Joses-MacBook-Pro-2.local at Thu Jul 17 12:06:07 2025
Module time:
	user time   =       6.23 seconds =       0.10 minutes
	system time =       1.80 seconds =       0.03 minutes
	total time  =          0 seconds =       0.00 minutes
Total time:
	user time   =     161.38 seconds =       2.69 minutes
	system time =      42.27 seconds =       0.70 minutes
	total time  =         19 seconds =       0.32 minutes

*** tstart() called on Joses-MacBook-Pro-2.local
*** at Thu Jul 17 12:06:07 2025

         ------------------------------------------------------------
                                   SCF GRAD
                          Rob Parrish, Justin Turney,
                       Andy Simmonett, and Alex Sokolov
         ------------------------------------------------------------

  ==> Geometry <==

    Molecular point group: d2h
    Full point group: D_inf_h

    Geometry (in Angstrom), charge = -1, multiplicity = 6:

       Center              X                  Y                   Z               Mass
    ------------   -----------------  -----------------  -----------------  -----------------
         S           -0.000000000000     1.038104393403     0.000000000000    31.972071174400
         S            0.000000000000    -1.038104393403     0.000000000000    31.972071174400

  Nuclear repulsion =   65.248431078970768

  ==> Basis Set <==

  Basis Set: CC-PVDZ
    Blend: CC-PVDZ
    Number of shells: 16
    Number of basis functions: 36
    Number of Cartesian functions: 38
    Spherical Harmonics?: true
    Max angular momentum: 2

  ==> DFJKGrad: Density-Fitted SCF Gradients <==

    Gradient:                    1
    J tasked:                  Yes
    K tasked:                  Yes
    wK tasked:                  No
    OpenMP threads:              1
    Integrals threads:           1
    Memory [MiB]:              375
    Schwarz Cutoff:          1E-12
    Fitting Condition:       1E-10

   => Auxiliary Basis Set <=

  Basis Set: (CC-PVDZ AUX)
    Blend: CC-PVDZ-JKFIT
    Number of shells: 72
    Number of basis functions: 224
    Number of Cartesian functions: 260
    Spherical Harmonics?: true
    Max angular momentum: 3

  ==> DFT Potential <==

   => LibXC <=

    Version 6.2.2
    S. Lehtola, C. Steigemann, M. J.T. Oliveira, and M. A.L. Marques.,  SoftwareX 7, 1â€“5 (2018) (10.1016/j.softx.2017.11.002)

   => Composite Functional: B3LYP <=

    B3LYP Hyb-GGA Exchange-Correlation Functional

    P. J. Stephens, F. J. Devlin, C. F. Chabalowski, and M. J. Frisch.,  J. Phys. Chem. 98, 11623 (1994) (10.1021/j100096a001)

    Deriv               =              1
    GGA                 =           TRUE
    Meta                =          FALSE

    Exchange Hybrid     =           TRUE
    MP2 Hybrid          =          FALSE

   => Exchange Functionals <=

    0.0800   Slater exchange
    0.7200         Becke 88

   => Exact (HF) Exchange <=

    0.2000               HF

   => Correlation Functionals <=

    0.1900   Vosko, Wilk & Nusair (VWN5_RPA)
    0.8100   Lee, Yang & Parr

   => LibXC Density Thresholds  <==

    XC_HYB_GGA_XC_B3LYP:  1.00E-15

   => Molecular Quadrature <=

    Radial Scheme          =       TREUTLER
    Pruning Scheme         =           NONE
    Nuclear Scheme         =       TREUTLER

    Blocking Scheme        =         OCTREE
    BS radius alpha        =              1
    Pruning alpha          =              1
    Radial Points          =             75
    Spherical Points       =            302
    Total Points           =          40232
    Total Blocks           =            370
    Max Points             =            254
    Max Functions          =             36
    Weights Tolerance      =       1.00E-15

  -Total Gradient:
     Atom            X                  Y                   Z
    ------   -----------------  -----------------  -----------------
       1        0.000000000000    -0.000063452205     0.000000000000
       2       -0.000000000000     0.000063452205     0.000000000000

*** tstop() called on Joses-MacBook-Pro-2.local at Thu Jul 17 12:06:08 2025
Module time:
	user time   =       2.52 seconds =       0.04 minutes
	system time =       0.84 seconds =       0.01 minutes
	total time  =          1 seconds =       0.02 minutes
Total time:
	user time   =     163.90 seconds =       2.73 minutes
	system time =      43.11 seconds =       0.72 minutes
	total time  =         20 seconds =       0.33 minutes

    			-----------------------------------------

    			 OPTKING 3.0: for geometry optimizations

    			     By R.A. King, Bethel University

    			        with contributions from

    			    A.V. Copan, J. Cayton, A. Heide

    			-----------------------------------------

	                            ===> Fragment 1 <==

	 Z (Atomic Numbers)          Masses                          Geom
	      16.000000            31.972071         -0.00000000  1.96173299  0.00000000
	      16.000000            31.972071          0.00000000 -1.96173299  0.00000000

	 - Coordinate -           - BOHR/RAD -       - ANG/DEG -
	 R(1,2)           =         3.923466           2.076209

	        --- Internal Coordinate Step in ANG or DEG, aJ/ANG or AJ/DEG ---
	-------------------------------------------------------------------------------
	           Coordinate      Previous         Force          Change          New
	           ----------      --------        ------          ------        ------
	               R(1,2)       2.07621        0.00052        0.00015       2.07636
	-------------------------------------------------------------------------------

	                                 ==> Convergence Check <==

	Measures of convergence in internal coordinates in au.

	Criteria marked as inactive (o), active & met (*), and active & unmet ( ).

	----------------------------------------------------------------------------------------------
	   Step    Total Energy     Delta E     Max Force     RMS Force      Max Disp      RMS Disp
	----------------------------------------------------------------------------------------------
	  Convergence Criteria     1.00e-06 *    3.00e-04 *             o    1.20e-03 *             o
	----------------------------------------------------------------------------------------------
	    15    -795.76919672   -5.15e-07 *    6.35e-05 *    6.35e-05 o    2.78e-04 *    2.78e-04 o  ~
	----------------------------------------------------------------------------------------------

Next Geometry in Ang
	Fragment 1 (Ang)

	    S  -0.0000000000   1.0381778796   0.0000000000
	    S   0.0000000000  -1.0381778796   0.0000000000

    Final optimized geometry and variables:
    Molecular point group: d2h
    Full point group: D_inf_h

    Geometry (in Angstrom), charge = -1, multiplicity = 6:

    S           -0.000000000000     1.038104393403     0.000000000000
    S            0.000000000000    -1.038104393403     0.000000000000

    Psi4 stopped on: Thursday, 17 July 2025 12:06PM
    Psi4 wall time for execution: 0:00:20.09

*** Psi4 exiting successfully. Buy a developer a beer!
