                               Psi4 1.9.1 release

  ==> Input File <==

--------------------------------------------------------------------------
molecule {
-1 6
O   0.00000        0.60000        0.00000
Ar   0.00000       -0.60000        0.00000
}

set {
basis              cc-pvdz
reference          uks
maxiter            500
geom_maxiter       500
DAMPING_PERCENTAGE 1
guess              SAP
}

optimize('b3lyp')
--------------------------------------------------------------------------

    Molecular point group: c2v
  Charge       = -1
  Multiplicity = 6
  Basis Set: CC-PVDZ
    Blend: CC-PVDZ
  Basis Set: (CC-PVDZ AUX)
    Blend: CC-PVDZ-JKFIT
  @DF-UKS Final Energy:  -600.75389583550827
    Total Energy =                       -600.7538958355082741
 Dipole X            :          0.0000000            0.0000000            0.0000000
 Dipole Y            :          0.0000000            0.0000000            0.0000000
 Dipole Z            :         -0.4824805            1.2883152            0.8058346
 Magnitude           :                                                    0.8058346
    Molecular point group: c2v
  Basis Set: CC-PVDZ
    Blend: CC-PVDZ
  Basis Set: (CC-PVDZ AUX)
    Blend: CC-PVDZ-JKFIT
  Basis Set: CC-PVDZ
    Blend: CC-PVDZ
  Basis Set: (CC-PVDZ AUX)
    Blend: CC-PVDZ-JKFIT
  @DF-UKS Final Energy:  -600.87300906595965
    Total Energy =                       -600.8730090659596499
  Basis Set: CC-PVDZ
    Blend: CC-PVDZ
  Basis Set: (CC-PVDZ AUX)
    Blend: CC-PVDZ-JKFIT
  Basis Set: CC-PVDZ
    Blend: CC-PVDZ
  @DF-UKS Final Energy:  -600.96061165323511
    Total Energy =                       -600.9606116532351052
  @DF-UKS Final Energy:  -601.01841682776785
    Total Energy =                       -601.0184168277678509
  @DF-UKS Final Energy:  -601.06247911075275
    Total Energy =                       -601.0624791107526335
  @DF-UKS Final Energy:  -601.09632871196766
    Total Energy =                       -601.0963287119676579
  @DF-UKS Final Energy:  -601.10455752396001
    Total Energy =                       -601.1045575239600112
  @DF-UKS Final Energy:  -601.10519393955622
    Total Energy =                       -601.1051939395562158
  Basis Set: (CC-PVDZ AUX)
    Blend: CC-PVDZ-JKFIT
  Basis Set: CC-PVDZ
    Blend: CC-PVDZ
  Basis Set: (CC-PVDZ AUX)
    Blend: CC-PVDZ-JKFIT
  @DF-UKS Final Energy:  -601.10521400871380
    Total Energy =                       -601.1052140087139151
  Basis Set: CC-PVDZ
    Blend: CC-PVDZ
  Basis Set: (CC-PVDZ AUX)
    Blend: CC-PVDZ-JKFIT
  Charge       = -1
  Multiplicity = 6
  Basis Set: CC-PVDZ
    Blend: CC-PVDZ
  Basis Set: (CC-PVDZ AUX)
    Blend: CC-PVDZ-JKFIT

    Orbital Energies [Eh]
    ---------------------

    Alpha Occupied:

       1A1  -114.673134     2A1   -19.073525     3A1   -10.760698
       4A1    -8.316253     1B2    -8.308360     1B1    -8.308360
       5A1    -0.820505     6A1    -0.686801     7A1    -0.260188
       2B1    -0.233646     2B2    -0.233646     3B2    -0.142723
       3B1    -0.142723     8A1    -0.090507     4B2     0.754827
       4B1     0.754827

    Alpha Virtual:

       9A1     0.828489     5B1     0.996431     5B2     0.996431
      10A1     1.008382    11A1     1.034331     1A2     1.129220
      12A1     1.129220    13A1     1.141592     6B2     1.172062
       6B1     1.172062    14A1     1.701042     2A2     2.671633
      15A1     2.671688     7B1     2.688864     7B2     2.688864
      16A1     2.787892

    Beta Occupied:

       1A1  -114.648804     2A1   -19.013655     3A1   -10.737938
       4A1    -8.292578     1B2    -8.269305     1B1    -8.269305
       5A1    -0.666825     6A1    -0.581477     7A1    -0.145488
       2B1    -0.072404     2B2    -0.072404

    Beta Virtual:

       3B2     0.034202     3B1     0.034202     8A1     0.089344
       9A1     0.887635     4B1     0.904005     4B2     0.904005
      10A1     1.081693     5B2     1.087066     5B1     1.087066
      11A1     1.114771    12A1     1.198511     1A2     1.198512
      13A1     1.215979     6B2     1.251998     6B1     1.251998
      14A1     1.789548     2A2     2.811216    15A1     2.811274
       7B2     2.811383     7B1     2.811383    16A1     2.902384

    Final Occupation by Irrep:
             A1    A2    B1    B2
    DOCC [     7,    0,    2,    2 ]
    SOCC [     1,    0,    2,    2 ]
    NA   [     8,    0,    4,    4 ]
    NB   [     7,    0,    2,    2 ]

  @DF-UKS Final Energy:  -601.10521470182039

   => Energetics <=

    Nuclear Repulsion Energy =             36.3992931348584108
    One-Electron Energy =                -910.9133216457903472
    Two-Electron Energy =                 305.4259514212687350
    DFT Exchange-Correlation Energy =     -32.0171376121571356
    Empirical Dispersion Energy =           0.0000000000000000
    VV10 Nonlocal Energy =                  0.0000000000000000
    Total Energy =                       -601.1052147018202731

  UHF NO Occupations:
  HONO-2 :    8 A1 1.0000000
  HONO-1 :    4 B2 1.0000000
  HONO-0 :    4 B1 1.0000000
  LUNO+0 :    9 A1 0.0012262
  LUNO+1 :   10 A1 0.0005017
  LUNO+2 :    5 B2 0.0004844
  LUNO+3 :    5 B1 0.0004844

Computation Completed

Properties will be evaluated at   0.000000,   0.000000,   0.000000 [a0]

Properties computed using the SCF density matrix

 Multipole Moments:

 ------------------------------------------------------------------------------------
     Multipole            Electronic (a.u.)      Nuclear  (a.u.)        Total (a.u.)
 ------------------------------------------------------------------------------------

 L = 1.  Multiply by 2.5417464519 to convert [e a0] to [Debye]
 Dipole X            :          0.0000000            0.0000000            0.0000000
 Dipole Y            :          0.0000000            0.0000000            0.0000000
 Dipole Z            :         -1.3639930            2.2475614            0.8835684
 Magnitude           :                                                    0.8835684

 ------------------------------------------------------------------------------------

*** tstop() called on Joses-MacBook-Pro-2.local at Thu Jul 17 10:49:22 2025
Module time:
	user time   =       4.29 seconds =       0.07 minutes
	system time =       3.90 seconds =       0.06 minutes
	total time  =          1 seconds =       0.02 minutes
Total time:
	user time   =      55.96 seconds =       0.93 minutes
	system time =      54.33 seconds =       0.91 minutes
	total time  =         11 seconds =       0.18 minutes

*** tstart() called on Joses-MacBook-Pro-2.local
*** at Thu Jul 17 10:49:22 2025

         ------------------------------------------------------------
                                   SCF GRAD
                          Rob Parrish, Justin Turney,
                       Andy Simmonett, and Alex Sokolov
         ------------------------------------------------------------

  ==> Geometry <==

    Molecular point group: c2v
    Full point group: C_inf_v

    Geometry (in Angstrom), charge = -1, multiplicity = 6:

       Center              X                  Y                   Z               Mass
    ------------   -----------------  -----------------  -----------------  -----------------
         O            0.000000000000     0.000000000000     1.495083059159    15.994914619570
         AR           0.000000000000     0.000000000000    -0.598405901029    39.962383123700

  Nuclear repulsion =   36.399293134858411

  ==> Basis Set <==

  Basis Set: CC-PVDZ
    Blend: CC-PVDZ
    Number of shells: 14
    Number of basis functions: 32
    Number of Cartesian functions: 34
    Spherical Harmonics?: true
    Max angular momentum: 2

  ==> DFJKGrad: Density-Fitted SCF Gradients <==

    Gradient:                    1
    J tasked:                  Yes
    K tasked:                  Yes
    wK tasked:                  No
    OpenMP threads:              1
    Integrals threads:           1
    Memory [MiB]:              375
    Schwarz Cutoff:          1E-12
    Fitting Condition:       1E-10

   => Auxiliary Basis Set <=

  Basis Set: (CC-PVDZ AUX)
    Blend: CC-PVDZ-JKFIT
    Number of shells: 60
    Number of basis functions: 182
    Number of Cartesian functions: 211
    Spherical Harmonics?: true
    Max angular momentum: 3

  ==> DFT Potential <==

   => LibXC <=

    Version 6.2.2
    S. Lehtola, C. Steigemann, M. J.T. Oliveira, and M. A.L. Marques.,  SoftwareX 7, 1â€“5 (2018) (10.1016/j.softx.2017.11.002)

   => Composite Functional: B3LYP <=

    B3LYP Hyb-GGA Exchange-Correlation Functional

    P. J. Stephens, F. J. Devlin, C. F. Chabalowski, and M. J. Frisch.,  J. Phys. Chem. 98, 11623 (1994) (10.1021/j100096a001)

    Deriv               =              1
    GGA                 =           TRUE
    Meta                =          FALSE

    Exchange Hybrid     =           TRUE
    MP2 Hybrid          =          FALSE

   => Exchange Functionals <=

    0.0800   Slater exchange
    0.7200         Becke 88

   => Exact (HF) Exchange <=

    0.2000               HF

   => Correlation Functionals <=

    0.1900   Vosko, Wilk & Nusair (VWN5_RPA)
    0.8100   Lee, Yang & Parr

   => LibXC Density Thresholds  <==

    XC_HYB_GGA_XC_B3LYP:  1.00E-15

   => Molecular Quadrature <=

    Radial Scheme          =       TREUTLER
    Pruning Scheme         =           NONE
    Nuclear Scheme         =       TREUTLER

    Blocking Scheme        =         OCTREE
    BS radius alpha        =              1
    Pruning alpha          =              1
    Radial Points          =             75
    Spherical Points       =            302
    Total Points           =          41087
    Total Blocks           =            366
    Max Points             =            254
    Max Functions          =             32
    Weights Tolerance      =       1.00E-15

  -Total Gradient:
     Atom            X                  Y                   Z
    ------   -----------------  -----------------  -----------------
       1        0.000000000000     0.000000000000    -0.000086434167
       2        0.000000000000    -0.000000000000     0.000065527806

*** tstop() called on Joses-MacBook-Pro-2.local at Thu Jul 17 10:49:22 2025
Module time:
	user time   =       0.97 seconds =       0.02 minutes
	system time =       1.42 seconds =       0.02 minutes
	total time  =          0 seconds =       0.00 minutes
Total time:
	user time   =      56.95 seconds =       0.95 minutes
	system time =      55.75 seconds =       0.93 minutes
	total time  =         11 seconds =       0.18 minutes

    			-----------------------------------------

    			 OPTKING 3.0: for geometry optimizations

    			     By R.A. King, Bethel University

    			        with contributions from

    			    A.V. Copan, J. Cayton, A. Heide

    			-----------------------------------------

	                            ===> Fragment 1 <==

	 Z (Atomic Numbers)          Masses                          Geom
	       8.000000            15.994915          0.00000000  0.00000000  2.82529752
	      18.000000            39.962383          0.00000000  0.00000000 -1.13082326

	 - Coordinate -           - BOHR/RAD -       - ANG/DEG -
	 R(1,2)           =         3.956121           2.093489

	        --- Internal Coordinate Step in ANG or DEG, aJ/ANG or AJ/DEG ---
	-------------------------------------------------------------------------------
	           Coordinate      Previous         Force          Change          New
	           ----------      --------        ------          ------        ------
	               R(1,2)       2.09349        0.00063        0.00029       2.09378
	-------------------------------------------------------------------------------

	                                 ==> Convergence Check <==

	Measures of convergence in internal coordinates in au.

	Criteria marked as inactive (o), active & met (*), and active & unmet ( ).

	----------------------------------------------------------------------------------------------
	   Step    Total Energy     Delta E     Max Force     RMS Force      Max Disp      RMS Disp
	----------------------------------------------------------------------------------------------
	  Convergence Criteria     1.00e-06 *    3.00e-04 *             o    1.20e-03 *             o
	----------------------------------------------------------------------------------------------
	    10    -601.10521470   -6.93e-07 *    7.60e-05 *    7.60e-05 o    5.43e-04 *    5.43e-04 o  ~
	----------------------------------------------------------------------------------------------

Next Geometry in Ang
	Fragment 1 (Ang)

	    O   0.0000000000   0.0000000000   1.4952268390
	   Ar   0.0000000000   0.0000000000  -0.5985496808

    Final optimized geometry and variables:
    Molecular point group: c2v
    Full point group: C_inf_v

    Geometry (in Angstrom), charge = -1, multiplicity = 6:

    O            0.000000000000     0.000000000000     1.495083059159
    AR           0.000000000000     0.000000000000    -0.598405901029

    Psi4 stopped on: Thursday, 17 July 2025 10:49AM
    Psi4 wall time for execution: 0:00:12.03

*** Psi4 exiting successfully. Buy a developer a beer!
