                               Psi4 1.9.1 release

  ==> Input File <==

--------------------------------------------------------------------------
molecule {
-1 6
O   0.00000        0.60000        0.00000
Mg   0.00000       -0.60000        0.00000
}

set {
basis              cc-pvdz
reference          uks
maxiter            500
geom_maxiter       500
DAMPING_PERCENTAGE 1
guess              SAP
}

optimize('b3lyp')
--------------------------------------------------------------------------

    Molecular point group: c2v
  Charge       = -1
  Multiplicity = 6
  Basis Set: CC-PVDZ
    Blend: CC-PVDZ
  Basis Set: (CC-PVDZ AUX)
    Blend: CC-PVDZ-JKFIT + DEF2-UNIVERSAL-JKFIT
  @DF-UKS Final Energy:  -274.49966091077522
    Total Energy =                       -274.4996609107752192
 Dipole X            :          0.0000000            0.0000000            0.0000000
 Dipole Y            :          0.0000000            0.0000000            0.0000000
 Dipole Z            :          2.0778631           -0.0033262            2.0745369
 Magnitude           :                                                    2.0745369
    Molecular point group: c2v
  Basis Set: CC-PVDZ
    Blend: CC-PVDZ
  Basis Set: (CC-PVDZ AUX)
    Blend: CC-PVDZ-JKFIT + DEF2-UNIVERSAL-JKFIT
  Basis Set: CC-PVDZ
    Blend: CC-PVDZ
  Basis Set: (CC-PVDZ AUX)
    Blend: CC-PVDZ-JKFIT + DEF2-UNIVERSAL-JKFIT
  @DF-UKS Final Energy:  -274.73549801010779
    Total Energy =                       -274.7354980101077899
  Basis Set: CC-PVDZ
    Blend: CC-PVDZ
  Basis Set: (CC-PVDZ AUX)
    Blend: CC-PVDZ-JKFIT + DEF2-UNIVERSAL-JKFIT
  Basis Set: CC-PVDZ
    Blend: CC-PVDZ
  @DF-UKS Final Energy:  -274.87225311789263
    Total Energy =                       -274.8722531178926261
  @DF-UKS Final Energy:  -274.94532532618473
    Total Energy =                       -274.9453253261847294
  @DF-UKS Final Energy:  -274.98735889219216
    Total Energy =                       -274.9873588921921623
  @DF-UKS Final Energy:  -275.01261311474286
    Total Energy =                       -275.0126131147428623
  @DF-UKS Final Energy:  -275.02824649389299
    Total Energy =                       -275.0282464938929934
  @DF-UKS Final Energy:  -275.03853626659605
    Total Energy =                       -275.0385362665960542
  @DF-UKS Final Energy:  -275.04551292966227
    Total Energy =                       -275.0455129296622658
  @DF-UKS Final Energy:  -275.05003363843616
    Total Energy =                       -275.0500336384361617
  @DF-UKS Final Energy:  -275.05015535917369
    Total Energy =                       -275.0501553591736865
  @DF-UKS Final Energy:  -275.05307657125553
    Total Energy =                       -275.0530765712555308
  @DF-UKS Final Energy:  -275.05311511555090
    Total Energy =                       -275.0531151155508951
  @DF-UKS Final Energy:  -275.05459992642028
    Total Energy =                       -275.0545999264202806
  @DF-UKS Final Energy:  -275.05461148943010
    Total Energy =                       -275.0546114894301013
  @DF-UKS Final Energy:  -275.05462289337066
    Total Energy =                       -275.0546228933706630
  @DF-UKS Final Energy:  -275.05534488417914
    Total Energy =                       -275.0553448841791351
  @DF-UKS Final Energy:  -275.05534813579771
    Total Energy =                       -275.0553481357977148
  @DF-UKS Final Energy:  -275.05535136962209
    Total Energy =                       -275.0553513696220875
  @DF-UKS Final Energy:  -275.05535457580970
    Total Energy =                       -275.0553545758097016
  @DF-UKS Final Energy:  -275.05569938612206
    Total Energy =                       -275.0556993861220576
  @DF-UKS Final Energy:  -275.05570019913449
    Total Energy =                       -275.0557001991344919
  @DF-UKS Final Energy:  -275.05570100834382
    Total Energy =                       -275.0557010083438172
  @DF-UKS Final Energy:  -275.05570181322884
    Total Energy =                       -275.0557018132288363
  @DF-UKS Final Energy:  -275.05570261366586
    Total Energy =                       -275.0557026136658578
  @DF-UKS Final Energy:  -275.05570340972952
    Total Energy =                       -275.0557034097295173
  @DF-UKS Final Energy:  -275.05570420138542
    Total Energy =                       -275.0557042013854243
  @DF-UKS Final Energy:  -275.05570498887357
    Total Energy =                       -275.0557049888735719
  @DF-UKS Final Energy:  -275.05585299090313
    Total Energy =                       -275.0558529909031336
  @DF-UKS Final Energy:  -275.05589779504703
    Total Energy =                       -275.0558977950470307
  @DF-UKS Final Energy:  -275.05591264650513
    Total Energy =                       -275.0559126465051349
  Basis Set: (CC-PVDZ AUX)
    Blend: CC-PVDZ-JKFIT + DEF2-UNIVERSAL-JKFIT
  Basis Set: CC-PVDZ
    Blend: CC-PVDZ
  Basis Set: (CC-PVDZ AUX)
    Blend: CC-PVDZ-JKFIT + DEF2-UNIVERSAL-JKFIT
  @DF-UKS Final Energy:  -275.05591504054490
    Total Energy =                       -275.0559150405449031
  Basis Set: CC-PVDZ
    Blend: CC-PVDZ
  Basis Set: (CC-PVDZ AUX)
    Blend: CC-PVDZ-JKFIT + DEF2-UNIVERSAL-JKFIT
  Charge       = -1
  Multiplicity = 6
  Basis Set: CC-PVDZ
    Blend: CC-PVDZ
  Basis Set: (CC-PVDZ AUX)
    Blend: CC-PVDZ-JKFIT + DEF2-UNIVERSAL-JKFIT

    Orbital Energies [Eh]
    ---------------------

    Alpha Occupied:

       1A1   -46.679593     2A1   -19.176262     3A1    -2.958692
       4A1    -1.703822     1B1    -1.701401     1B2    -1.701396
       5A1    -0.906763     2B1    -0.344961     6A1    -0.344560
       2B2    -0.268255     7A1    -0.063182     3B1     0.062634
       3B2     0.062808

    Alpha Virtual:

       8A1     0.104616     9A1     0.230600     4B1     0.294954
       4B2     0.295141    10A1     0.303620    11A1     0.462393
       1A2     0.462393     5B1     0.465236     5B2     0.465299
      12A1     0.470979     6B1     0.915384    13A1     0.929069
       6B2     0.963069    14A1     1.187586     7B1     2.538644
      15A1     2.538911     2A2     2.596679     7B2     2.597068
      16A1     2.617641

    Beta Occupied:

       1A1   -46.675444     2A1   -19.126392     3A1    -2.951887
       4A1    -1.699919     1B1    -1.694673     1B2    -1.694661
       5A1    -0.748592     2B2    -0.216753

    Beta Virtual:

       6A1    -0.064413     2B1    -0.063558     7A1     0.051817
       8A1     0.149386     3B2     0.164416     3B1     0.167673
       9A1     0.270451    10A1     0.329053     4B2     0.344603
       4B1     0.345560    11A1     0.515338     5B2     0.520811
       5B1     0.520911    12A1     0.537966     1A2     0.538007
       6B2     0.992858     6B1     1.029343    13A1     1.041857
      14A1     1.269366     2A2     2.687610     7B2     2.687917
      15A1     2.695143     7B1     2.712302    16A1     2.712549

    Final Occupation by Irrep:
             A1    A2    B1    B2
    DOCC [     5,    0,    1,    2 ]
    SOCC [     2,    0,    2,    1 ]
    NA   [     7,    0,    3,    3 ]
    NB   [     5,    0,    1,    2 ]

  @DF-UKS Final Energy:  -275.05591598807439

   => Energetics <=

    Nuclear Repulsion Energy =             10.5672716109470759
    One-Electron Energy =                -406.2485609207465700
    Two-Electron Energy =                 140.8418438868627618
    DFT Exchange-Correlation Energy =     -20.2164705651377119
    Empirical Dispersion Energy =           0.0000000000000000
    VV10 Nonlocal Energy =                  0.0000000000000000
    Total Energy =                       -275.0559159880743891

  UHF NO Occupations:
  HONO-2 :    3 B1 1.0000000
  HONO-1 :    3 B2 1.0000000
  HONO-0 :    7 A1 1.0000000
  LUNO+0 :    8 A1 0.0007195
  LUNO+1 :    4 B2 0.0002434
  LUNO+2 :    9 A1 0.0000004
  LUNO+3 :    4 B1 0.0000002

Computation Completed

Properties will be evaluated at   0.000000,   0.000000,   0.000000 [a0]

Properties computed using the SCF density matrix

 Multipole Moments:

 ------------------------------------------------------------------------------------
     Multipole            Electronic (a.u.)      Nuclear  (a.u.)        Total (a.u.)
 ------------------------------------------------------------------------------------

 L = 1.  Multiply by 2.5417464519 to convert [e a0] to [Debye]
 Dipole X            :          0.0000000            0.0000000            0.0000000
 Dipole Y            :          0.0000000            0.0000000            0.0000000
 Dipole Z            :          3.6354903           -0.0133252            3.6221651
 Magnitude           :                                                    3.6221651

 ------------------------------------------------------------------------------------

*** tstop() called on Joses-MacBook-Pro-2.local at Thu Jul 17 10:41:44 2025
Module time:
	user time   =       2.51 seconds =       0.04 minutes
	system time =       2.81 seconds =       0.05 minutes
	total time  =          0 seconds =       0.00 minutes
Total time:
	user time   =     139.31 seconds =       2.32 minutes
	system time =     160.00 seconds =       2.67 minutes
	total time  =         31 seconds =       0.52 minutes

*** tstart() called on Joses-MacBook-Pro-2.local
*** at Thu Jul 17 10:41:44 2025

         ------------------------------------------------------------
                                   SCF GRAD
                          Rob Parrish, Justin Turney,
                       Andy Simmonett, and Alex Sokolov
         ------------------------------------------------------------

  ==> Geometry <==

    Molecular point group: c2v
    Full point group: C_inf_v

    Geometry (in Angstrom), charge = -1, multiplicity = 6:

       Center              X                  Y                   Z               Mass
    ------------   -----------------  -----------------  -----------------  -----------------
         O            0.000000000000     0.000000000000     2.884082358957    15.994914619570
         MG           0.000000000000     0.000000000000    -1.923309188705    23.985041697000

  Nuclear repulsion =   10.567271610947076

  ==> Basis Set <==

  Basis Set: CC-PVDZ
    Blend: CC-PVDZ
    Number of shells: 14
    Number of basis functions: 32
    Number of Cartesian functions: 34
    Spherical Harmonics?: true
    Max angular momentum: 2

  ==> DFJKGrad: Density-Fitted SCF Gradients <==

    Gradient:                    1
    J tasked:                  Yes
    K tasked:                  Yes
    wK tasked:                  No
    OpenMP threads:              1
    Integrals threads:           1
    Memory [MiB]:              375
    Schwarz Cutoff:          1E-12
    Fitting Condition:       1E-10

   => Auxiliary Basis Set <=

  Basis Set: (CC-PVDZ AUX)
    Blend: CC-PVDZ-JKFIT + DEF2-UNIVERSAL-JKFIT
    Number of shells: 58
    Number of basis functions: 182
    Number of Cartesian functions: 218
    Spherical Harmonics?: true
    Max angular momentum: 4

  ==> DFT Potential <==

   => LibXC <=

    Version 6.2.2
    S. Lehtola, C. Steigemann, M. J.T. Oliveira, and M. A.L. Marques.,  SoftwareX 7, 1â€“5 (2018) (10.1016/j.softx.2017.11.002)

   => Composite Functional: B3LYP <=

    B3LYP Hyb-GGA Exchange-Correlation Functional

    P. J. Stephens, F. J. Devlin, C. F. Chabalowski, and M. J. Frisch.,  J. Phys. Chem. 98, 11623 (1994) (10.1021/j100096a001)

    Deriv               =              1
    GGA                 =           TRUE
    Meta                =          FALSE

    Exchange Hybrid     =           TRUE
    MP2 Hybrid          =          FALSE

   => Exchange Functionals <=

    0.0800   Slater exchange
    0.7200         Becke 88

   => Exact (HF) Exchange <=

    0.2000               HF

   => Correlation Functionals <=

    0.1900   Vosko, Wilk & Nusair (VWN5_RPA)
    0.8100   Lee, Yang & Parr

   => LibXC Density Thresholds  <==

    XC_HYB_GGA_XC_B3LYP:  1.00E-15

   => Molecular Quadrature <=

    Radial Scheme          =       TREUTLER
    Pruning Scheme         =           NONE
    Nuclear Scheme         =       TREUTLER

    Blocking Scheme        =         OCTREE
    BS radius alpha        =              1
    Pruning alpha          =              1
    Radial Points          =             75
    Spherical Points       =            302
    Total Points           =          43599
    Total Blocks           =            443
    Max Points             =            253
    Max Functions          =             32
    Weights Tolerance      =       1.00E-15

  -Total Gradient:
     Atom            X                  Y                   Z
    ------   -----------------  -----------------  -----------------
       1       -0.000000000000     0.000000000000     0.000009182376
       2        0.000000000000     0.000000000000     0.000014602209

*** tstop() called on Joses-MacBook-Pro-2.local at Thu Jul 17 10:41:44 2025
Module time:
	user time   =       1.11 seconds =       0.02 minutes
	system time =       1.72 seconds =       0.03 minutes
	total time  =          0 seconds =       0.00 minutes
Total time:
	user time   =     140.42 seconds =       2.34 minutes
	system time =     161.74 seconds =       2.70 minutes
	total time  =         31 seconds =       0.52 minutes

    			-----------------------------------------

    			 OPTKING 3.0: for geometry optimizations

    			     By R.A. King, Bethel University

    			        with contributions from

    			    A.V. Copan, J. Cayton, A. Heide

    			-----------------------------------------

	                            ===> Fragment 1 <==

	 Z (Atomic Numbers)          Masses                          Geom
	       8.000000            15.994915          0.00000000  0.00000000  5.45012578
	      12.000000            23.985042          0.00000000  0.00000000 -3.63452762

	 - Coordinate -           - BOHR/RAD -       - ANG/DEG -
	 R(1,2)           =         9.084653           4.807392

	        --- Internal Coordinate Step in ANG or DEG, aJ/ANG or AJ/DEG ---
	-------------------------------------------------------------------------------
	           Coordinate      Previous         Force          Change          New
	           ----------      --------        ------          ------        ------
	               R(1,2)       4.80739        0.00002        0.00770       4.81510
	-------------------------------------------------------------------------------

	                                 ==> Convergence Check <==

	Measures of convergence in internal coordinates in au.

	Criteria marked as inactive (o), active & met (*), and active & unmet ( ).

	----------------------------------------------------------------------------------------------
	   Step    Total Energy     Delta E     Max Force     RMS Force      Max Disp      RMS Disp
	----------------------------------------------------------------------------------------------
	  Convergence Criteria     1.00e-06 *    3.00e-04 *             o    1.20e-03 *             o
	----------------------------------------------------------------------------------------------
	    33    -275.05591599   -9.48e-07 *    2.71e-06 *    2.71e-06 o    1.46e-02      1.46e-02 o  ~
	----------------------------------------------------------------------------------------------

Next Geometry in Ang
	Fragment 1 (Ang)

	    O   0.0000000000   0.0000000000   2.8879347214
	   Mg   0.0000000000   0.0000000000  -1.9271615511

    Final optimized geometry and variables:
    Molecular point group: c2v
    Full point group: C_inf_v

    Geometry (in Angstrom), charge = -1, multiplicity = 6:

    O            0.000000000000     0.000000000000     2.884082358957
    MG           0.000000000000     0.000000000000    -1.923309188705

    Psi4 stopped on: Thursday, 17 July 2025 10:41AM
    Psi4 wall time for execution: 0:00:31.91

*** Psi4 exiting successfully. Buy a developer a beer!
