                               Psi4 1.9.1 release

  ==> Input File <==

--------------------------------------------------------------------------
molecule {
-1 6
F   0.00000        0.60000        0.00000
Cl   0.00000       -0.60000        0.00000
}

set {
basis              cc-pvdz
reference          uks
maxiter            500
geom_maxiter       500
DAMPING_PERCENTAGE 1
guess              SAP
}

optimize('b3lyp')
--------------------------------------------------------------------------

    Molecular point group: c2v
  Charge       = -1
  Multiplicity = 6
  Basis Set: CC-PVDZ
    Blend: CC-PVDZ
  Basis Set: (CC-PVDZ AUX)
    Blend: CC-PVDZ-JKFIT
  @DF-UKS Final Energy:  -558.28432487063924
    Total Energy =                       -558.2843248706392387
 Dipole X            :          0.0000000            0.0000000            0.0000000
 Dipole Y            :          0.0000000            0.0000000            0.0000000
 Dipole Z            :          1.6977606           -0.3467936            1.3509670
 Magnitude           :                                                    1.3509670
    Molecular point group: c2v
  Basis Set: CC-PVDZ
    Blend: CC-PVDZ
  Basis Set: (CC-PVDZ AUX)
    Blend: CC-PVDZ-JKFIT
  Basis Set: CC-PVDZ
    Blend: CC-PVDZ
  Basis Set: (CC-PVDZ AUX)
    Blend: CC-PVDZ-JKFIT
  @DF-UKS Final Energy:  -558.42504837926560
    Total Energy =                       -558.4250483792656041
  Basis Set: CC-PVDZ
    Blend: CC-PVDZ
  Basis Set: (CC-PVDZ AUX)
    Blend: CC-PVDZ-JKFIT
  Basis Set: CC-PVDZ
    Blend: CC-PVDZ
  @DF-UKS Final Energy:  -558.51665581994337
    Total Energy =                       -558.5166558199432529
  @DF-UKS Final Energy:  -558.56316498886588
    Total Energy =                       -558.5631649888658785
  @DF-UKS Final Energy:  -558.59271634442837
    Total Energy =                       -558.5927163444284815
  @DF-UKS Final Energy:  -558.60909084015407
    Total Energy =                       -558.6090908401540673
  @DF-UKS Final Energy:  -558.61700682113610
    Total Energy =                       -558.6170068211361013
  @DF-UKS Final Energy:  -558.62056008550474
    Total Energy =                       -558.6205600855047351
  @DF-UKS Final Energy:  -558.62185299787370
    Total Energy =                       -558.6218529978737024
  @DF-UKS Final Energy:  -558.62215318242784
    Total Energy =                       -558.6221531824279509
  @DF-UKS Final Energy:  -558.62225013903947
    Total Energy =                       -558.6222501390393518
  @DF-UKS Final Energy:  -558.62226832538818
    Total Energy =                       -558.6222683253880632
  Basis Set: (CC-PVDZ AUX)
    Blend: CC-PVDZ-JKFIT
  Basis Set: CC-PVDZ
    Blend: CC-PVDZ
  Basis Set: (CC-PVDZ AUX)
    Blend: CC-PVDZ-JKFIT
  @DF-UKS Final Energy:  -558.62227265661875
    Total Energy =                       -558.6222726566187475
  Basis Set: CC-PVDZ
    Blend: CC-PVDZ
  Basis Set: (CC-PVDZ AUX)
    Blend: CC-PVDZ-JKFIT
  Charge       = -1
  Multiplicity = 6
  Basis Set: CC-PVDZ
    Blend: CC-PVDZ
  Basis Set: (CC-PVDZ AUX)
    Blend: CC-PVDZ-JKFIT

    Orbital Energies [Eh]
    ---------------------

    Alpha Occupied:

       1A1  -101.246223     2A1   -24.428105     3A1    -9.212112
       1B2    -6.973313     1B1    -6.973313     4A1    -6.966745
       5A1    -0.881885     6A1    -0.643967     7A1    -0.231771
       2B1    -0.186595     2B2    -0.186595     3B1    -0.125368
       3B2    -0.125368     8A1    -0.073766     4B2     0.638256
       4B1     0.638256

    Alpha Virtual:

       9A1     0.711883    10A1     0.801333     5B1     0.880318
       5B2     0.880318    11A1     0.881842     1A2     0.881842
      12A1     0.930473     6B1     1.420112     6B2     1.420112
      13A1     1.478142    14A1     2.082683     7B1     3.815599
       7B2     3.815599    15A1     3.838334    16A1     3.844758
       2A2     3.844809

    Beta Occupied:

       1A1  -101.214832     2A1   -24.405093     3A1    -9.181720
       4A1    -6.938586     1B2    -6.919636     1B1    -6.919636
       5A1    -0.822786     6A1    -0.490543     7A1    -0.130306
       2B1    -0.103120     2B2    -0.103120

    Beta Virtual:

       3B1     0.043510     3B2     0.043510     8A1     0.099999
       9A1     0.784005     4B2     0.817853     4B1     0.817853
      10A1     0.893546     5B1     0.982623     5B2     0.982623
      11A1     1.020593     1A2     1.020594    12A1     1.023919
       6B1     1.445007     6B2     1.445007    13A1     1.529359
      14A1     2.131118    15A1     3.869149     2A2     3.869198
       7B1     3.873217     7B2     3.873217    16A1     3.907468

    Final Occupation by Irrep:
             A1    A2    B1    B2
    DOCC [     7,    0,    2,    2 ]
    SOCC [     1,    0,    2,    2 ]
    NA   [     8,    0,    4,    4 ]
    NB   [     7,    0,    2,    2 ]

  @DF-UKS Final Energy:  -558.62227324517244

   => Energetics <=

    Nuclear Repulsion Energy =             38.6896081511598524
    One-Electron Energy =                -858.0277938996912326
    Two-Electron Energy =                 292.1534153848132860
    DFT Exchange-Correlation Energy =     -31.4375028814542361
    Empirical Dispersion Energy =           0.0000000000000000
    VV10 Nonlocal Energy =                  0.0000000000000000
    Total Energy =                       -558.6222732451724369

  UHF NO Occupations:
  HONO-2 :    4 B1 1.0000000
  HONO-1 :    3 B2 1.0000000
  HONO-0 :    4 B2 1.0000000
  LUNO+0 :    9 A1 0.0013671
  LUNO+1 :   10 A1 0.0004243
  LUNO+2 :    5 B1 0.0001219
  LUNO+3 :    5 B2 0.0001219

Computation Completed

Properties will be evaluated at   0.000000,   0.000000,   0.000000 [a0]

Properties computed using the SCF density matrix

 Multipole Moments:

 ------------------------------------------------------------------------------------
     Multipole            Electronic (a.u.)      Nuclear  (a.u.)        Total (a.u.)
 ------------------------------------------------------------------------------------

 L = 1.  Multiply by 2.5417464519 to convert [e a0] to [Debye]
 Dipole X            :          0.0000000            0.0000000            0.0000000
 Dipole Y            :          0.0000000            0.0000000            0.0000000
 Dipole Z            :          0.7747132           -0.6047670            0.1699462
 Magnitude           :                                                    0.1699462

 ------------------------------------------------------------------------------------

*** tstop() called on Joses-MacBook-Pro-2.local at Thu Jul 17 10:56:26 2025
Module time:
	user time   =       4.94 seconds =       0.08 minutes
	system time =       2.92 seconds =       0.05 minutes
	total time  =          1 seconds =       0.02 minutes
Total time:
	user time   =      75.85 seconds =       1.26 minutes
	system time =      86.30 seconds =       1.44 minutes
	total time  =         17 seconds =       0.28 minutes

*** tstart() called on Joses-MacBook-Pro-2.local
*** at Thu Jul 17 10:56:26 2025

         ------------------------------------------------------------
                                   SCF GRAD
                          Rob Parrish, Justin Turney,
                       Andy Simmonett, and Alex Sokolov
         ------------------------------------------------------------

  ==> Geometry <==

    Molecular point group: c2v
    Full point group: C_inf_v

    Geometry (in Angstrom), charge = -1, multiplicity = 6:

       Center              X                  Y                   Z               Mass
    ------------   -----------------  -----------------  -----------------  -----------------
         F            0.000000000000     0.000000000000     1.355967500077    18.998403162730
         CL           0.000000000000     0.000000000000    -0.736690376327    34.968852682000

  Nuclear repulsion =   38.689608151159852

  ==> Basis Set <==

  Basis Set: CC-PVDZ
    Blend: CC-PVDZ
    Number of shells: 14
    Number of basis functions: 32
    Number of Cartesian functions: 34
    Spherical Harmonics?: true
    Max angular momentum: 2

  ==> DFJKGrad: Density-Fitted SCF Gradients <==

    Gradient:                    1
    J tasked:                  Yes
    K tasked:                  Yes
    wK tasked:                  No
    OpenMP threads:              1
    Integrals threads:           1
    Memory [MiB]:              375
    Schwarz Cutoff:          1E-12
    Fitting Condition:       1E-10

   => Auxiliary Basis Set <=

  Basis Set: (CC-PVDZ AUX)
    Blend: CC-PVDZ-JKFIT
    Number of shells: 60
    Number of basis functions: 182
    Number of Cartesian functions: 211
    Spherical Harmonics?: true
    Max angular momentum: 3

  ==> DFT Potential <==

   => LibXC <=

    Version 6.2.2
    S. Lehtola, C. Steigemann, M. J.T. Oliveira, and M. A.L. Marques.,  SoftwareX 7, 1â€“5 (2018) (10.1016/j.softx.2017.11.002)

   => Composite Functional: B3LYP <=

    B3LYP Hyb-GGA Exchange-Correlation Functional

    P. J. Stephens, F. J. Devlin, C. F. Chabalowski, and M. J. Frisch.,  J. Phys. Chem. 98, 11623 (1994) (10.1021/j100096a001)

    Deriv               =              1
    GGA                 =           TRUE
    Meta                =          FALSE

    Exchange Hybrid     =           TRUE
    MP2 Hybrid          =          FALSE

   => Exchange Functionals <=

    0.0800   Slater exchange
    0.7200         Becke 88

   => Exact (HF) Exchange <=

    0.2000               HF

   => Correlation Functionals <=

    0.1900   Vosko, Wilk & Nusair (VWN5_RPA)
    0.8100   Lee, Yang & Parr

   => LibXC Density Thresholds  <==

    XC_HYB_GGA_XC_B3LYP:  1.00E-15

   => Molecular Quadrature <=

    Radial Scheme          =       TREUTLER
    Pruning Scheme         =           NONE
    Nuclear Scheme         =       TREUTLER

    Blocking Scheme        =         OCTREE
    BS radius alpha        =              1
    Pruning alpha          =              1
    Radial Points          =             75
    Spherical Points       =            302
    Total Points           =          41897
    Total Blocks           =            374
    Max Points             =            256
    Max Functions          =             32
    Weights Tolerance      =       1.00E-15

  -Total Gradient:
     Atom            X                  Y                   Z
    ------   -----------------  -----------------  -----------------
       1        0.000000000000     0.000000000000    -0.000024899677
       2        0.000000000000    -0.000000000000     0.000044674243

*** tstop() called on Joses-MacBook-Pro-2.local at Thu Jul 17 10:56:26 2025
Module time:
	user time   =       1.31 seconds =       0.02 minutes
	system time =       1.28 seconds =       0.02 minutes
	total time  =          0 seconds =       0.00 minutes
Total time:
	user time   =      77.16 seconds =       1.29 minutes
	system time =      87.58 seconds =       1.46 minutes
	total time  =         17 seconds =       0.28 minutes

    			-----------------------------------------

    			 OPTKING 3.0: for geometry optimizations

    			     By R.A. King, Bethel University

    			        with contributions from

    			    A.V. Copan, J. Cayton, A. Heide

    			-----------------------------------------

	                            ===> Fragment 1 <==

	 Z (Atomic Numbers)          Masses                          Geom
	       9.000000            18.998403          0.00000000  0.00000000  2.56240721
	      17.000000            34.968853          0.00000000  0.00000000 -1.39214305

	 - Coordinate -           - BOHR/RAD -       - ANG/DEG -
	 R(1,2)           =         3.954550           2.092658

	        --- Internal Coordinate Step in ANG or DEG, aJ/ANG or AJ/DEG ---
	-------------------------------------------------------------------------------
	           Coordinate      Previous         Force          Change          New
	           ----------      --------        ------          ------        ------
	               R(1,2)       2.09266        0.00029        0.00043       2.09309
	-------------------------------------------------------------------------------

	                                 ==> Convergence Check <==

	Measures of convergence in internal coordinates in au.

	Criteria marked as inactive (o), active & met (*), and active & unmet ( ).

	----------------------------------------------------------------------------------------------
	   Step    Total Energy     Delta E     Max Force     RMS Force      Max Disp      RMS Disp
	----------------------------------------------------------------------------------------------
	  Convergence Criteria     1.00e-06 *    3.00e-04 *             o    1.20e-03 *             o
	----------------------------------------------------------------------------------------------
	    14    -558.62227325   -5.89e-07 *    3.48e-05 *    3.48e-05 o    8.19e-04 *    8.19e-04 o  ~
	----------------------------------------------------------------------------------------------

Next Geometry in Ang
	Fragment 1 (Ang)

	    F   0.0000000000   0.0000000000   1.3561842049
	   Cl   0.0000000000   0.0000000000  -0.7369070811

    Final optimized geometry and variables:
    Molecular point group: c2v
    Full point group: C_inf_v

    Geometry (in Angstrom), charge = -1, multiplicity = 6:

    F            0.000000000000     0.000000000000     1.355967500077
    CL           0.000000000000     0.000000000000    -0.736690376327

    Psi4 stopped on: Thursday, 17 July 2025 10:56AM
    Psi4 wall time for execution: 0:00:18.09

*** Psi4 exiting successfully. Buy a developer a beer!
