                               Psi4 1.9.1 release

  ==> Input File <==

--------------------------------------------------------------------------
molecule {
-1 6
O   0.00000        0.60000        0.00000
S   0.00000       -0.60000        0.00000
}

set {
basis              cc-pvdz
reference          uks
maxiter            500
geom_maxiter       500
DAMPING_PERCENTAGE 1
guess              SAP
}

optimize('b3lyp')
--------------------------------------------------------------------------

    Molecular point group: c2v
  Charge       = -1
  Multiplicity = 6
  Basis Set: CC-PVDZ
    Blend: CC-PVDZ
  Basis Set: (CC-PVDZ AUX)
    Blend: CC-PVDZ-JKFIT
  @DF-UKS Final Energy:  -472.24218445732998
    Total Energy =                       -472.2421844573299836
 Dipole X            :          0.0000000            0.0000000            0.0000000
 Dipole Y            :          0.0000000            0.0000000            0.0000000
 Dipole Z            :          0.4549667           -0.0067162            0.4482505
 Magnitude           :                                                    0.4482505
    Molecular point group: c2v
  Basis Set: CC-PVDZ
    Blend: CC-PVDZ
  Basis Set: (CC-PVDZ AUX)
    Blend: CC-PVDZ-JKFIT
  Basis Set: CC-PVDZ
    Blend: CC-PVDZ
  Basis Set: (CC-PVDZ AUX)
    Blend: CC-PVDZ-JKFIT
  @DF-UKS Final Energy:  -472.38859002937187
    Total Energy =                       -472.3885900293718692
  Basis Set: CC-PVDZ
    Blend: CC-PVDZ
  Basis Set: (CC-PVDZ AUX)
    Blend: CC-PVDZ-JKFIT
  Basis Set: CC-PVDZ
    Blend: CC-PVDZ
  @DF-UKS Final Energy:  -472.47425223595184
    Total Energy =                       -472.4742522359518375
  @DF-UKS Final Energy:  -472.51825421103871
    Total Energy =                       -472.5182542110387089
  @DF-UKS Final Energy:  -472.55999933297630
    Total Energy =                       -472.5599993329763038
  @DF-UKS Final Energy:  -472.59736312210316
    Total Energy =                       -472.5973631221032178
  @DF-UKS Final Energy:  -472.62365953088209
    Total Energy =                       -472.6236595308821506
  @DF-UKS Final Energy:  -472.63961237556941
    Total Energy =                       -472.6396123755694134
  @DF-UKS Final Energy:  -472.64910886696390
    Total Energy =                       -472.6491088669638998
  @DF-UKS Final Energy:  -472.65233610435109
    Total Energy =                       -472.6523361043510931
  @DF-UKS Final Energy:  -472.65354296515335
    Total Energy =                       -472.6535429651534059
  @DF-UKS Final Energy:  -472.65403378439277
    Total Energy =                       -472.6540337843927659
  @DF-UKS Final Energy:  -472.65424625089429
    Total Energy =                       -472.6542462508942322
  @DF-UKS Final Energy:  -472.65433028366198
    Total Energy =                       -472.6543302836620342
  @DF-UKS Final Energy:  -472.65440728898642
    Total Energy =                       -472.6544072889863628
  @DF-UKS Final Energy:  -472.65455715128201
    Total Energy =                       -472.6545571512820061
  @DF-UKS Final Energy:  -472.65544718150221
    Total Energy =                       -472.6554471815021543
  @DF-UKS Final Energy:  -472.65545605629848
    Total Energy =                       -472.6554560562984761
  @DF-UKS Final Energy:  -472.65546500136128
    Total Energy =                       -472.6554650013612786
  @DF-UKS Final Energy:  -472.65687402813523
    Total Energy =                       -472.6568740281351779
  @DF-UKS Final Energy:  -472.66970702545308
    Total Energy =                       -472.6697070254530786
  @DF-UKS Final Energy:  -472.66970810101486
    Total Energy =                       -472.6697081010148622
  @DF-UKS Final Energy:  -472.66970917172358
    Total Energy =                       -472.6697091717235821
  @DF-UKS Final Energy:  -472.66971024605004
    Total Energy =                       -472.6697102460500446
  @DF-UKS Final Energy:  -472.66971132355650
    Total Energy =                       -472.6697113235564984
  @DF-UKS Final Energy:  -472.66971239261886
    Total Energy =                       -472.6697123926188056
  @DF-UKS Final Energy:  -472.66971346525889
    Total Energy =                       -472.6697134652588943
  @DF-UKS Final Energy:  -472.66971454109085
    Total Energy =                       -472.6697145410908547
  @DF-UKS Final Energy:  -472.66971560849208
    Total Energy =                       -472.6697156084921403
  @DF-UKS Final Energy:  -472.66971667946018
    Total Energy =                       -472.6697166794602367
  @DF-UKS Final Energy:  -472.66971775360253
    Total Energy =                       -472.6697177536025265
  @DF-UKS Final Energy:  -472.66971881936843
    Total Energy =                       -472.6697188193683701
  @DF-UKS Final Energy:  -472.66971988864833
    Total Energy =                       -472.6697198886483875
  @DF-UKS Final Energy:  -472.66972096114296
    Total Energy =                       -472.6697209611429003
  @DF-UKS Final Energy:  -472.66972202523817
    Total Energy =                       -472.6697220252381726
  @DF-UKS Final Energy:  -472.66972309285131
    Total Energy =                       -472.6697230928512568
  @DF-UKS Final Energy:  -472.66972416368918
    Total Energy =                       -472.6697241636891818
  @DF-UKS Final Energy:  -472.66972522613804
    Total Energy =                       -472.6697252261380413
  Basis Set: (CC-PVDZ AUX)
    Blend: CC-PVDZ-JKFIT
  Basis Set: CC-PVDZ
    Blend: CC-PVDZ
  Basis Set: (CC-PVDZ AUX)
    Blend: CC-PVDZ-JKFIT
  @DF-UKS Final Energy:  -472.66989945846302
    Total Energy =                       -472.6698994584630213
  Basis Set: CC-PVDZ
    Blend: CC-PVDZ
  Basis Set: (CC-PVDZ AUX)
    Blend: CC-PVDZ-JKFIT
  Charge       = -1
  Multiplicity = 6
  Basis Set: CC-PVDZ
    Blend: CC-PVDZ
  Basis Set: (CC-PVDZ AUX)
    Blend: CC-PVDZ-JKFIT

    Orbital Energies [Eh]
    ---------------------

    Alpha Occupied:

       1A1   -88.632682     2A1   -19.032722     3A1    -7.720810
       4A1    -5.688094     1B1    -5.684799     1B2    -5.676406
       5A1    -0.776705     6A1    -0.514368     7A1    -0.227431
       2B2    -0.202117     2B1    -0.153022     8A1    -0.128017
       3B1    -0.124455     3B2    -0.098229     4B1     0.566312

    Alpha Virtual:

       9A1     0.615936    10A1     0.635023     4B2     0.655261
      11A1     0.739904     5B1     0.741062     5B2     0.752459
       1A2     0.765020    12A1     0.768003    13A1     1.001614
       6B2     1.017967     6B1     1.050633    14A1     1.267662
      15A1     2.671800     7B2     2.673589     7B1     2.711780
       2A2     2.731551    16A1     2.740338

    Beta Occupied:

       1A1   -88.613592     2A1   -18.993437     3A1    -7.701560
       4A1    -5.663166     1B2    -5.660183     1B1    -5.640218
       5A1    -0.650348     6A1    -0.394581     2B1    -0.111815
       2B2    -0.022496

    Beta Virtual:

       3B2    -0.016259     7A1     0.032187     8A1     0.035721
       3B1     0.063133     9A1     0.685600     4B2     0.695203
      10A1     0.700343     4B1     0.730572     5B2     0.826830
      11A1     0.829169     1A2     0.850429     5B1     0.858567
      12A1     0.865642     6B1     1.076471     6B2     1.097687
      13A1     1.113380    14A1     1.334955     2A2     2.793719
      15A1     2.797071     7B1     2.798329     7B2     2.811212
      16A1     2.816189

    Final Occupation by Irrep:
             A1    A2    B1    B2
    DOCC [     6,    0,    2,    2 ]
    SOCC [     2,    0,    2,    1 ]
    NA   [     8,    0,    4,    3 ]
    NB   [     6,    0,    2,    2 ]

  @DF-UKS Final Energy:  -472.66990043603943

   => Energetics <=

    Nuclear Repulsion Energy =              3.9981244227914896
    One-Electron Energy =                -665.9818481275518707
    Two-Electron Energy =                 217.0941485396546966
    DFT Exchange-Correlation Energy =     -27.7803252709338260
    Empirical Dispersion Energy =           0.0000000000000000
    VV10 Nonlocal Energy =                  0.0000000000000000
    Total Energy =                       -472.6699004360394269

  UHF NO Occupations:
  HONO-2 :    7 A1 1.0000000
  HONO-1 :    8 A1 1.0000000
  HONO-0 :    4 B1 1.0000000
  LUNO+0 :    4 B2 0.0010714
  LUNO+1 :    9 A1 0.0009070
  LUNO+2 :   10 A1 0.0004775
  LUNO+3 :    5 B1 0.0001634

Computation Completed

Properties will be evaluated at   0.000000,   0.000000,   0.000000 [a0]

Properties computed using the SCF density matrix

 Multipole Moments:

 ------------------------------------------------------------------------------------
     Multipole            Electronic (a.u.)      Nuclear  (a.u.)        Total (a.u.)
 ------------------------------------------------------------------------------------

 L = 1.  Multiply by 2.5417464519 to convert [e a0] to [Debye]
 Dipole X            :          0.0000000            0.0000000            0.0000000
 Dipole Y            :          0.0000000            0.0000000            0.0000000
 Dipole Z            :         -0.4573787           -0.0948193           -0.5521980
 Magnitude           :                                                    0.5521980

 ------------------------------------------------------------------------------------

*** tstop() called on Joses-MacBook-Pro-2.local at Thu Jul 17 10:47:47 2025
Module time:
	user time   =       2.80 seconds =       0.05 minutes
	system time =       2.37 seconds =       0.04 minutes
	total time  =          1 seconds =       0.02 minutes
Total time:
	user time   =     937.09 seconds =      15.62 minutes
	system time =     992.34 seconds =      16.54 minutes
	total time  =        191 seconds =       3.18 minutes

*** tstart() called on Joses-MacBook-Pro-2.local
*** at Thu Jul 17 10:47:47 2025

         ------------------------------------------------------------
                                   SCF GRAD
                          Rob Parrish, Justin Turney,
                       Andy Simmonett, and Alex Sokolov
         ------------------------------------------------------------

  ==> Geometry <==

    Molecular point group: c2v
    Full point group: C_inf_v

    Geometry (in Angstrom), charge = -1, multiplicity = 6:

       Center              X                  Y                   Z               Mass
    ------------   -----------------  -----------------  -----------------  -----------------
         O            0.000000000000     0.000000000000    11.292319035915    15.994914619570
         S            0.000000000000     0.000000000000    -5.649295532065    31.972071174400

  Nuclear repulsion =    3.998124422791490

  ==> Basis Set <==

  Basis Set: CC-PVDZ
    Blend: CC-PVDZ
    Number of shells: 14
    Number of basis functions: 32
    Number of Cartesian functions: 34
    Spherical Harmonics?: true
    Max angular momentum: 2

  ==> DFJKGrad: Density-Fitted SCF Gradients <==

    Gradient:                    1
    J tasked:                  Yes
    K tasked:                  Yes
    wK tasked:                  No
    OpenMP threads:              1
    Integrals threads:           1
    Memory [MiB]:              375
    Schwarz Cutoff:          1E-12
    Fitting Condition:       1E-10

   => Auxiliary Basis Set <=

  Basis Set: (CC-PVDZ AUX)
    Blend: CC-PVDZ-JKFIT
    Number of shells: 60
    Number of basis functions: 182
    Number of Cartesian functions: 211
    Spherical Harmonics?: true
    Max angular momentum: 3

  ==> DFT Potential <==

   => LibXC <=

    Version 6.2.2
    S. Lehtola, C. Steigemann, M. J.T. Oliveira, and M. A.L. Marques.,  SoftwareX 7, 1â€“5 (2018) (10.1016/j.softx.2017.11.002)

   => Composite Functional: B3LYP <=

    B3LYP Hyb-GGA Exchange-Correlation Functional

    P. J. Stephens, F. J. Devlin, C. F. Chabalowski, and M. J. Frisch.,  J. Phys. Chem. 98, 11623 (1994) (10.1021/j100096a001)

    Deriv               =              1
    GGA                 =           TRUE
    Meta                =          FALSE

    Exchange Hybrid     =           TRUE
    MP2 Hybrid          =          FALSE

   => Exchange Functionals <=

    0.0800   Slater exchange
    0.7200         Becke 88

   => Exact (HF) Exchange <=

    0.2000               HF

   => Correlation Functionals <=

    0.1900   Vosko, Wilk & Nusair (VWN5_RPA)
    0.8100   Lee, Yang & Parr

   => LibXC Density Thresholds  <==

    XC_HYB_GGA_XC_B3LYP:  1.00E-15

   => Molecular Quadrature <=

    Radial Scheme          =       TREUTLER
    Pruning Scheme         =           NONE
    Nuclear Scheme         =       TREUTLER

    Blocking Scheme        =         OCTREE
    BS radius alpha        =              1
    Pruning alpha          =              1
    Radial Points          =             75
    Spherical Points       =            302
    Total Points           =          41753
    Total Blocks           =            431
    Max Points             =            250
    Max Functions          =             18
    Weights Tolerance      =       1.00E-15

  -Total Gradient:
     Atom            X                  Y                   Z
    ------   -----------------  -----------------  -----------------
       1        0.000000000000     0.000000000000    -0.000175075679
       2        0.000000000000     0.000000000000     0.000174615047

*** tstop() called on Joses-MacBook-Pro-2.local at Thu Jul 17 10:47:47 2025
Module time:
	user time   =       0.85 seconds =       0.01 minutes
	system time =       1.07 seconds =       0.02 minutes
	total time  =          0 seconds =       0.00 minutes
Total time:
	user time   =     937.94 seconds =      15.63 minutes
	system time =     993.41 seconds =      16.56 minutes
	total time  =        191 seconds =       3.18 minutes

    			-----------------------------------------

    			 OPTKING 3.0: for geometry optimizations

    			     By R.A. King, Bethel University

    			        with contributions from

    			    A.V. Copan, J. Cayton, A. Heide

    			-----------------------------------------

	                            ===> Fragment 1 <==

	 Z (Atomic Numbers)          Masses                          Geom
	       8.000000            15.994915          0.00000000   0.00000000  21.33939030
	      16.000000            31.972071          0.00000000   0.00000000 -10.67562136

	 - Coordinate -           - BOHR/RAD -       - ANG/DEG -
	 R(1,2)           =        32.015012          16.941615

	        --- Internal Coordinate Step in ANG or DEG, aJ/ANG or AJ/DEG ---
	-------------------------------------------------------------------------------
	           Coordinate      Previous         Force          Change          New
	           ----------      --------        ------          ------        ------
	               R(1,2)      16.94161        0.00144        0.00296      16.94458
	-------------------------------------------------------------------------------

	                                 ==> Convergence Check <==

	Measures of convergence in internal coordinates in au.

	Criteria marked as inactive (o), active & met (*), and active & unmet ( ).

	----------------------------------------------------------------------------------------------
	   Step    Total Energy     Delta E     Max Force     RMS Force      Max Disp      RMS Disp
	----------------------------------------------------------------------------------------------
	  Convergence Criteria     1.00e-06 *    3.00e-04 *             o    1.20e-03 *             o
	----------------------------------------------------------------------------------------------
	   219    -472.66990044   -9.78e-07 *    1.75e-04 *    1.75e-04 o    5.60e-03      5.60e-03 o  ~
	----------------------------------------------------------------------------------------------

Next Geometry in Ang
	Fragment 1 (Ang)

	    O   0.0000000000   0.0000000000  11.2938009748
	    S   0.0000000000   0.0000000000  -5.6507774709

    Final optimized geometry and variables:
    Molecular point group: c2v
    Full point group: C_inf_v

    Geometry (in Angstrom), charge = -1, multiplicity = 6:

    O            0.000000000000     0.000000000000    11.292319035915
    S            0.000000000000     0.000000000000    -5.649295532065

    Psi4 stopped on: Thursday, 17 July 2025 10:47AM
    Psi4 wall time for execution: 0:03:11.47

*** Psi4 exiting successfully. Buy a developer a beer!
