                               Psi4 1.9.1 release

  ==> Input File <==

--------------------------------------------------------------------------
molecule {
-1 6
S   0.00000        0.60000        0.00000
Ar   0.00000       -0.60000        0.00000
}

set {
basis              cc-pvdz
reference          uks
maxiter            500
geom_maxiter       500
DAMPING_PERCENTAGE 1
guess              SAP
}

optimize('b3lyp')
--------------------------------------------------------------------------

    Molecular point group: c2v
  Charge       = -1
  Multiplicity = 6
  Basis Set: CC-PVDZ
    Blend: CC-PVDZ
  Basis Set: (CC-PVDZ AUX)
    Blend: CC-PVDZ-JKFIT
  @DF-UKS Final Energy:  -923.37723508137151
    Total Energy =                       -923.3772350813715093
 Dipole X            :          0.0000000            0.0000000            0.0000000
 Dipole Y            :          0.0000000            0.0000000            0.0000000
 Dipole Z            :         -3.7382272            2.0144189           -1.7238083
 Magnitude           :                                                    1.7238083
    Molecular point group: c2v
  Basis Set: CC-PVDZ
    Blend: CC-PVDZ
  Basis Set: (CC-PVDZ AUX)
    Blend: CC-PVDZ-JKFIT
  Basis Set: CC-PVDZ
    Blend: CC-PVDZ
  Basis Set: (CC-PVDZ AUX)
    Blend: CC-PVDZ-JKFIT
  @DF-UKS Final Energy:  -923.41199322460011
    Total Energy =                       -923.4119932246001099
  Basis Set: CC-PVDZ
    Blend: CC-PVDZ
  Basis Set: (CC-PVDZ AUX)
    Blend: CC-PVDZ-JKFIT
  Basis Set: CC-PVDZ
    Blend: CC-PVDZ
  @DF-UKS Final Energy:  -923.47570966592434
    Total Energy =                       -923.4757096659243416
  @DF-UKS Final Energy:  -923.67723578475875
    Total Energy =                       -923.6772357847587500
  @DF-UKS Final Energy:  -924.12461551241176
    Total Energy =                       -924.1246155124117649
  @DF-UKS Final Energy:  -924.30406369019965
    Total Energy =                       -924.3040636901996550
  @DF-UKS Final Energy:  -924.39626404136175
    Total Energy =                       -924.3962640413617464
  @DF-UKS Final Energy:  -924.42684563596583
    Total Energy =                       -924.4268456359658330
  @DF-UKS Final Energy:  -924.44485950493731
    Total Energy =                       -924.4448595049373125
  @DF-UKS Final Energy:  -924.45876499897861
    Total Energy =                       -924.4587649989787224
  @DF-UKS Final Energy:  -924.47324698284262
    Total Energy =                       -924.4732469828426247
  @DF-UKS Final Energy:  -924.50926855462001
    Total Energy =                       -924.5092685546201210
  @DF-UKS Final Energy:  -924.51320135845720
    Total Energy =                       -924.5132013584573087
  @DF-UKS Final Energy:  -924.54578680426653
    Total Energy =                       -924.5457868042666405
  @DF-UKS Final Energy:  -924.54742720747663
    Total Energy =                       -924.5474272074766304
  @DF-UKS Final Energy:  -924.56490541496419
    Total Energy =                       -924.5649054149640733
  @DF-UKS Final Energy:  -924.56554317926191
    Total Energy =                       -924.5655431792619083
  @DF-UKS Final Energy:  -924.57440331601185
    Total Energy =                       -924.5744033160118533
  @DF-UKS Final Energy:  -924.57443754920087
    Total Energy =                       -924.5744375492008658
  Basis Set: (CC-PVDZ AUX)
    Blend: CC-PVDZ-JKFIT
  Basis Set: CC-PVDZ
    Blend: CC-PVDZ
  Basis Set: (CC-PVDZ AUX)
    Blend: CC-PVDZ-JKFIT
  @DF-UKS Final Energy:  -924.57476902590906
    Total Energy =                       -924.5747690259090632
  Basis Set: CC-PVDZ
    Blend: CC-PVDZ
  Basis Set: (CC-PVDZ AUX)
    Blend: CC-PVDZ-JKFIT
  Charge       = -1
  Multiplicity = 6
  Basis Set: CC-PVDZ
    Blend: CC-PVDZ
  Basis Set: (CC-PVDZ AUX)
    Blend: CC-PVDZ-JKFIT

    Orbital Energies [Eh]
    ---------------------

    Alpha Occupied:

       1A1  -114.865513     2A1   -88.555445     3A1   -10.907404
       1B2    -8.457355     1B1    -8.457203     4A1    -8.456570
       5A1    -7.655434     6A1    -5.617314     2B2    -5.616642
       2B1    -5.612768     7A1    -0.751245     8A1    -0.478863
       3B2    -0.213577     3B1    -0.213148     9A1    -0.210057
       4B2    -0.079248     4B1    -0.074326    10A1    -0.072011
      11A1     0.569480     5B1     0.605243

    Alpha Virtual:

      12A1     0.660994     5B2     0.669200    13A1     0.769270
       6B2     0.773794     6B1     0.775938     1A2     0.797782
       7B2     0.800526    14A1     0.801020     7B1     0.809693
      15A1     0.849202    16A1     1.004105    17A1     1.046902
       2A2     1.046917     8B2     1.052239     8B1     1.052770
      18A1     1.081456

    Beta Occupied:

       1A1  -114.863252     2A1   -88.527269     3A1   -10.905182
       1B2    -8.455931     1B1    -8.455100     4A1    -8.451162
       5A1    -7.625842     2B2    -5.585149     6A1    -5.584081
       2B1    -5.562200     7A1    -0.744769     8A1    -0.319208
       3B2    -0.211050     3B1    -0.209359     9A1    -0.198083

    Beta Virtual:

       4B2     0.096527    10A1     0.108290     4B1     0.127255
      11A1     0.713821    12A1     0.737997     5B2     0.746795
       5B1     0.763178     6B2     0.797998     6B1     0.814444
      13A1     0.837648     7B2     0.903830    14A1     0.904329
       1A2     0.920323     7B1     0.926918    15A1     0.928974
      16A1     1.028789    17A1     1.049081     2A2     1.049092
       8B2     1.057069     8B1     1.058352    18A1     1.106291

    Final Occupation by Irrep:
             A1    A2    B1    B2
    DOCC [     9,    0,    3,    3 ]
    SOCC [     2,    0,    2,    1 ]
    NA   [    11,    0,    5,    4 ]
    NB   [     9,    0,    3,    3 ]

  @DF-UKS Final Energy:  -924.57476910837863

   => Energetics <=

    Nuclear Repulsion Energy =             44.4252949122139498
    One-Electron Energy =               -1374.6143552803823695
    Two-Electron Energy =                 451.4626351783848577
    DFT Exchange-Correlation Energy =     -45.8483439185951482
    Empirical Dispersion Energy =           0.0000000000000000
    VV10 Nonlocal Energy =                  0.0000000000000000
    Total Energy =                       -924.5747691083786322

  UHF NO Occupations:
  HONO-2 :    4 B1 1.0000000
  HONO-1 :   11 A1 1.0000000
  HONO-0 :    5 B1 1.0000000
  LUNO+0 :   12 A1 0.0001545
  LUNO+1 :   13 A1 0.0000140
  LUNO+2 :   14 A1 0.0000052
  LUNO+3 :    6 B1 0.0000048

Computation Completed

Properties will be evaluated at   0.000000,   0.000000,   0.000000 [a0]

Properties computed using the SCF density matrix

 Multipole Moments:

 ------------------------------------------------------------------------------------
     Multipole            Electronic (a.u.)      Nuclear  (a.u.)        Total (a.u.)
 ------------------------------------------------------------------------------------

 L = 1.  Multiply by 2.5417464519 to convert [e a0] to [Debye]
 Dipole X            :          0.0000000            0.0000000            0.0000000
 Dipole Y            :          0.0000000            0.0000000            0.0000000
 Dipole Z            :         -7.5096896            5.7587980           -1.7508916
 Magnitude           :                                                    1.7508916

 ------------------------------------------------------------------------------------

*** tstop() called on Joses-MacBook-Pro-2.local at Thu Jul 17 12:09:08 2025
Module time:
	user time   =      25.61 seconds =       0.43 minutes
	system time =       2.50 seconds =       0.04 minutes
	total time  =          2 seconds =       0.03 minutes
Total time:
	user time   =     426.06 seconds =       7.10 minutes
	system time =      76.03 seconds =       1.27 minutes
	total time  =         49 seconds =       0.82 minutes

*** tstart() called on Joses-MacBook-Pro-2.local
*** at Thu Jul 17 12:09:08 2025

         ------------------------------------------------------------
                                   SCF GRAD
                          Rob Parrish, Justin Turney,
                       Andy Simmonett, and Alex Sokolov
         ------------------------------------------------------------

  ==> Geometry <==

    Molecular point group: c2v
    Full point group: C_inf_v

    Geometry (in Angstrom), charge = -1, multiplicity = 6:

       Center              X                  Y                   Z               Mass
    ------------   -----------------  -----------------  -----------------  -----------------
         S            0.000000000000     0.000000000000     1.905801773659    31.972071174400
         AR           0.000000000000     0.000000000000    -1.524744652068    39.962383123700

  Nuclear repulsion =   44.425294912213950

  ==> Basis Set <==

  Basis Set: CC-PVDZ
    Blend: CC-PVDZ
    Number of shells: 16
    Number of basis functions: 36
    Number of Cartesian functions: 38
    Spherical Harmonics?: true
    Max angular momentum: 2

  ==> DFJKGrad: Density-Fitted SCF Gradients <==

    Gradient:                    1
    J tasked:                  Yes
    K tasked:                  Yes
    wK tasked:                  No
    OpenMP threads:              1
    Integrals threads:           1
    Memory [MiB]:              375
    Schwarz Cutoff:          1E-12
    Fitting Condition:       1E-10

   => Auxiliary Basis Set <=

  Basis Set: (CC-PVDZ AUX)
    Blend: CC-PVDZ-JKFIT
    Number of shells: 72
    Number of basis functions: 224
    Number of Cartesian functions: 260
    Spherical Harmonics?: true
    Max angular momentum: 3

  ==> DFT Potential <==

   => LibXC <=

    Version 6.2.2
    S. Lehtola, C. Steigemann, M. J.T. Oliveira, and M. A.L. Marques.,  SoftwareX 7, 1â€“5 (2018) (10.1016/j.softx.2017.11.002)

   => Composite Functional: B3LYP <=

    B3LYP Hyb-GGA Exchange-Correlation Functional

    P. J. Stephens, F. J. Devlin, C. F. Chabalowski, and M. J. Frisch.,  J. Phys. Chem. 98, 11623 (1994) (10.1021/j100096a001)

    Deriv               =              1
    GGA                 =           TRUE
    Meta                =          FALSE

    Exchange Hybrid     =           TRUE
    MP2 Hybrid          =          FALSE

   => Exchange Functionals <=

    0.0800   Slater exchange
    0.7200         Becke 88

   => Exact (HF) Exchange <=

    0.2000               HF

   => Correlation Functionals <=

    0.1900   Vosko, Wilk & Nusair (VWN5_RPA)
    0.8100   Lee, Yang & Parr

   => LibXC Density Thresholds  <==

    XC_HYB_GGA_XC_B3LYP:  1.00E-15

   => Molecular Quadrature <=

    Radial Scheme          =       TREUTLER
    Pruning Scheme         =           NONE
    Nuclear Scheme         =       TREUTLER

    Blocking Scheme        =         OCTREE
    BS radius alpha        =              1
    Pruning alpha          =              1
    Radial Points          =             75
    Spherical Points       =            302
    Total Points           =          40392
    Total Blocks           =            374
    Max Points             =            255
    Max Functions          =             36
    Weights Tolerance      =       1.00E-15

  -Total Gradient:
     Atom            X                  Y                   Z
    ------   -----------------  -----------------  -----------------
       1        0.000000000000    -0.000000000000    -0.000004806527
       2        0.000000000000    -0.000000000000    -0.000004099287

*** tstop() called on Joses-MacBook-Pro-2.local at Thu Jul 17 12:09:09 2025
Module time:
	user time   =       3.14 seconds =       0.05 minutes
	system time =       1.58 seconds =       0.03 minutes
	total time  =          1 seconds =       0.02 minutes
Total time:
	user time   =     429.20 seconds =       7.15 minutes
	system time =      77.62 seconds =       1.29 minutes
	total time  =         50 seconds =       0.83 minutes

    			-----------------------------------------

    			 OPTKING 3.0: for geometry optimizations

    			     By R.A. King, Bethel University

    			        with contributions from

    			    A.V. Copan, J. Cayton, A. Heide

    			-----------------------------------------

	                            ===> Fragment 1 <==

	 Z (Atomic Numbers)          Masses                          Geom
	      16.000000            31.972071          0.00000000  0.00000000  3.60144340
	      18.000000            39.962383          0.00000000  0.00000000 -2.88134980

	 - Coordinate -           - BOHR/RAD -       - ANG/DEG -
	 R(1,2)           =         6.482793           3.430546

	        --- Internal Coordinate Step in ANG or DEG, aJ/ANG or AJ/DEG ---
	-------------------------------------------------------------------------------
	           Coordinate      Previous         Force          Change          New
	           ----------      --------        ------          ------        ------
	               R(1,2)       3.43055        0.00000        0.00001       3.43055
	-------------------------------------------------------------------------------

	                                 ==> Convergence Check <==

	Measures of convergence in internal coordinates in au.

	Criteria marked as inactive (o), active & met (*), and active & unmet ( ).

	----------------------------------------------------------------------------------------------
	   Step    Total Energy     Delta E     Max Force     RMS Force      Max Disp      RMS Disp
	----------------------------------------------------------------------------------------------
	  Convergence Criteria     1.00e-06 *    3.00e-04 *             o    1.20e-03 *             o
	----------------------------------------------------------------------------------------------
	    21    -924.57476911   -8.25e-08 *    3.54e-07 *    3.54e-07 o    1.08e-05 *    1.08e-05 o  ~
	----------------------------------------------------------------------------------------------

Next Geometry in Ang
	Fragment 1 (Ang)

	    S   0.0000000000   0.0000000000   1.9058046418
	   Ar   0.0000000000   0.0000000000  -1.5247475202

    Final optimized geometry and variables:
    Molecular point group: c2v
    Full point group: C_inf_v

    Geometry (in Angstrom), charge = -1, multiplicity = 6:

    S            0.000000000000     0.000000000000     1.905801773659
    AR           0.000000000000     0.000000000000    -1.524744652068

    Psi4 stopped on: Thursday, 17 July 2025 12:09PM
    Psi4 wall time for execution: 0:00:50.11

*** Psi4 exiting successfully. Buy a developer a beer!
