                               Psi4 1.9.1 release

  ==> Input File <==

--------------------------------------------------------------------------
molecule {
-1 6
C   0.00000        0.60000        0.00000
C   0.00000       -0.60000        0.00000
}

set {
basis              cc-pvdz
reference          uks
maxiter            500
geom_maxiter       500
DAMPING_PERCENTAGE 1
guess              SAP
}

optimize('b3lyp')
--------------------------------------------------------------------------

    Molecular point group: d2h
  Charge       = -1
  Multiplicity = 6
  Basis Set: CC-PVDZ
    Blend: CC-PVDZ
  Basis Set: (CC-PVDZ AUX)
    Blend: CC-PVDZ-JKFIT
  @DF-UKS Final Energy:   -75.59010718922734
    Total Energy =                        -75.5901071892273393
 Dipole X            :          0.0000000            0.0000000            0.0000000
 Dipole Y            :          0.0000000            0.0000000            0.0000000
 Dipole Z            :          0.0000000            0.0000000            0.0000000
 Magnitude           :                                                    0.0000000
    Molecular point group: d2h
  Basis Set: CC-PVDZ
    Blend: CC-PVDZ
  Basis Set: (CC-PVDZ AUX)
    Blend: CC-PVDZ-JKFIT
  Basis Set: CC-PVDZ
    Blend: CC-PVDZ
  Basis Set: (CC-PVDZ AUX)
    Blend: CC-PVDZ-JKFIT
  @DF-UKS Final Energy:   -75.75385970521656
    Total Energy =                        -75.7538597052165557
  Basis Set: CC-PVDZ
    Blend: CC-PVDZ
  Basis Set: (CC-PVDZ AUX)
    Blend: CC-PVDZ-JKFIT
  Basis Set: CC-PVDZ
    Blend: CC-PVDZ
  @DF-UKS Final Energy:   -75.77915679517241
    Total Energy =                        -75.7791567951724119
  @DF-UKS Final Energy:   -75.79695233346391
    Total Energy =                        -75.7969523334639064
  @DF-UKS Final Energy:   -75.80235040709432
    Total Energy =                        -75.8023504070943233
  @DF-UKS Final Energy:   -75.80487761179236
    Total Energy =                        -75.8048776117923637
  @DF-UKS Final Energy:   -75.80594444187322
    Total Energy =                        -75.8059444418732085
  @DF-UKS Final Energy:   -75.80617050545490
    Total Energy =                        -75.8061705054548867
  @DF-UKS Final Energy:   -75.80622439487672
    Total Energy =                        -75.8062243948767218
  @DF-UKS Final Energy:   -75.80624012675040
    Total Energy =                        -75.8062401267503958
  Basis Set: (CC-PVDZ AUX)
    Blend: CC-PVDZ-JKFIT
  Basis Set: CC-PVDZ
    Blend: CC-PVDZ
  Basis Set: (CC-PVDZ AUX)
    Blend: CC-PVDZ-JKFIT
  @DF-UKS Final Energy:   -75.80624269806134
    Total Energy =                        -75.8062426980613395
  Basis Set: CC-PVDZ
    Blend: CC-PVDZ
  Basis Set: (CC-PVDZ AUX)
    Blend: CC-PVDZ-JKFIT
  Charge       = -1
  Multiplicity = 6
  Basis Set: CC-PVDZ
    Blend: CC-PVDZ
  Basis Set: (CC-PVDZ AUX)
    Blend: CC-PVDZ-JKFIT

    Orbital Energies [Eh]
    ---------------------

    Alpha Occupied:

       1B2u   -9.958791     1Ag    -9.958787     2Ag    -0.364805
       2B2u   -0.229102     3Ag    -0.004589     1B1u   -0.001799
       1B3u   -0.001799     1B3g    0.086898     1B1g    0.086898

    Alpha Virtual:

       3B2u    0.303998     4B2u    0.693143     2B3u    0.715163
       2B1u    0.715163     4Ag     0.757090     2B3g    0.765499
       2B1g    0.765499     5Ag     0.857195     5B2u    1.077122
       3B3u    1.253103     3B1u    1.253103     1B2g    1.368400
       6Ag     1.368401     7Ag     1.443313     1Au     1.457073
       6B2u    1.457074     3B1g    1.709551     3B3g    1.709551
       7B2u    2.112674

    Beta Occupied:

       1B2u   -9.927856     1Ag    -9.927817     2Ag    -0.240570
       2B2u   -0.085732

    Beta Virtual:

       3Ag     0.147989     1B1u    0.180694     1B3u    0.180694
       1B3g    0.280874     1B1g    0.280874     3B2u    0.392587
       4B2u    0.757259     2B3u    0.805207     2B1u    0.805207
       4Ag     0.824176     2B3g    0.848145     2B1g    0.848145
       5Ag     0.915038     5B2u    1.143436     3B3u    1.346139
       3B1u    1.346139     1B2g    1.483452     6Ag     1.483454
       7Ag     1.534438     1Au     1.573817     6B2u    1.573819
       3B1g    1.803134     3B3g    1.803134     7B2u    2.192187

    Final Occupation by Irrep:
             Ag   B1g   B2g   B3g    Au   B1u   B2u   B3u
    DOCC [     2,    0,    0,    0,    0,    0,    2,    0 ]
    SOCC [     1,    1,    0,    1,    0,    1,    0,    1 ]
    NA   [     3,    1,    0,    1,    0,    1,    2,    1 ]
    NB   [     2,    0,    0,    0,    0,    0,    2,    0 ]

  @DF-UKS Final Energy:   -75.80624288415395

   => Energetics <=

    Nuclear Repulsion Energy =              9.8478330221146937
    One-Electron Energy =                -124.4813662184238723
    Two-Electron Energy =                  47.5727648183023391
    DFT Exchange-Correlation Energy =      -8.7454745061471204
    Empirical Dispersion Energy =           0.0000000000000000
    VV10 Nonlocal Energy =                  0.0000000000000000
    Total Energy =                        -75.8062428841539457

  UHF NO Occupations:
  HONO-2 :    1B3u 1.0000000
  HONO-1 :    1B3g 1.0000000
  HONO-0 :    1B1g 1.0000000
  LUNO+0 :    3B2u 0.0012249
  LUNO+1 :    4 Ag 0.0005410
  LUNO+2 :    4B2u 0.0000004
  LUNO+3 :    5 Ag 0.0000000

Computation Completed

Properties will be evaluated at   0.000000,   0.000000,   0.000000 [a0]

Properties computed using the SCF density matrix

 Multipole Moments:

 ------------------------------------------------------------------------------------
     Multipole            Electronic (a.u.)      Nuclear  (a.u.)        Total (a.u.)
 ------------------------------------------------------------------------------------

 L = 1.  Multiply by 2.5417464519 to convert [e a0] to [Debye]
 Dipole X            :          0.0000000            0.0000000            0.0000000
 Dipole Y            :          0.0000000            0.0000000            0.0000000
 Dipole Z            :          0.0000000            0.0000000            0.0000000
 Magnitude           :                                                    0.0000000

 ------------------------------------------------------------------------------------

*** tstop() called on Joses-MacBook-Pro-2.local at Thu Jul 17 09:58:14 2025
Module time:
	user time   =       2.39 seconds =       0.04 minutes
	system time =       2.91 seconds =       0.05 minutes
	total time  =          0 seconds =       0.00 minutes
Total time:
	user time   =      55.79 seconds =       0.93 minutes
	system time =      59.49 seconds =       0.99 minutes
	total time  =         11 seconds =       0.18 minutes

*** tstart() called on Joses-MacBook-Pro-2.local
*** at Thu Jul 17 09:58:14 2025

         ------------------------------------------------------------
                                   SCF GRAD
                          Rob Parrish, Justin Turney,
                       Andy Simmonett, and Alex Sokolov
         ------------------------------------------------------------

  ==> Geometry <==

    Molecular point group: d2h
    Full point group: D_inf_h

    Geometry (in Angstrom), charge = -1, multiplicity = 6:

       Center              X                  Y                   Z               Mass
    ------------   -----------------  -----------------  -----------------  -----------------
         C           -0.000000000000     0.967237134370     0.000000000000    12.000000000000
         C            0.000000000000    -0.967237134370     0.000000000000    12.000000000000

  Nuclear repulsion =    9.847833022114694

  ==> Basis Set <==

  Basis Set: CC-PVDZ
    Blend: CC-PVDZ
    Number of shells: 12
    Number of basis functions: 28
    Number of Cartesian functions: 30
    Spherical Harmonics?: true
    Max angular momentum: 2

  ==> DFJKGrad: Density-Fitted SCF Gradients <==

    Gradient:                    1
    J tasked:                  Yes
    K tasked:                  Yes
    wK tasked:                  No
    OpenMP threads:              1
    Integrals threads:           1
    Memory [MiB]:              375
    Schwarz Cutoff:          1E-12
    Fitting Condition:       1E-10

   => Auxiliary Basis Set <=

  Basis Set: (CC-PVDZ AUX)
    Blend: CC-PVDZ-JKFIT
    Number of shells: 48
    Number of basis functions: 140
    Number of Cartesian functions: 162
    Spherical Harmonics?: true
    Max angular momentum: 3

  ==> DFT Potential <==

   => LibXC <=

    Version 6.2.2
    S. Lehtola, C. Steigemann, M. J.T. Oliveira, and M. A.L. Marques.,  SoftwareX 7, 1â€“5 (2018) (10.1016/j.softx.2017.11.002)

   => Composite Functional: B3LYP <=

    B3LYP Hyb-GGA Exchange-Correlation Functional

    P. J. Stephens, F. J. Devlin, C. F. Chabalowski, and M. J. Frisch.,  J. Phys. Chem. 98, 11623 (1994) (10.1021/j100096a001)

    Deriv               =              1
    GGA                 =           TRUE
    Meta                =          FALSE

    Exchange Hybrid     =           TRUE
    MP2 Hybrid          =          FALSE

   => Exchange Functionals <=

    0.0800   Slater exchange
    0.7200         Becke 88

   => Exact (HF) Exchange <=

    0.2000               HF

   => Correlation Functionals <=

    0.1900   Vosko, Wilk & Nusair (VWN5_RPA)
    0.8100   Lee, Yang & Parr

   => LibXC Density Thresholds  <==

    XC_HYB_GGA_XC_B3LYP:  1.00E-15

   => Molecular Quadrature <=

    Radial Scheme          =       TREUTLER
    Pruning Scheme         =           NONE
    Nuclear Scheme         =       TREUTLER

    Blocking Scheme        =         OCTREE
    BS radius alpha        =              1
    Pruning alpha          =              1
    Radial Points          =             75
    Spherical Points       =            302
    Total Points           =          42520
    Total Blocks           =            382
    Max Points             =            255
    Max Functions          =             28
    Weights Tolerance      =       1.00E-15

  -Total Gradient:
     Atom            X                  Y                   Z
    ------   -----------------  -----------------  -----------------
       1        0.000000000000    -0.000018225580     0.000000000000
       2       -0.000000000000     0.000018225580     0.000000000000

*** tstop() called on Joses-MacBook-Pro-2.local at Thu Jul 17 09:58:15 2025
Module time:
	user time   =       0.92 seconds =       0.02 minutes
	system time =       1.15 seconds =       0.02 minutes
	total time  =          1 seconds =       0.02 minutes
Total time:
	user time   =      56.71 seconds =       0.95 minutes
	system time =      60.65 seconds =       1.01 minutes
	total time  =         12 seconds =       0.20 minutes

    			-----------------------------------------

    			 OPTKING 3.0: for geometry optimizations

    			     By R.A. King, Bethel University

    			        with contributions from

    			    A.V. Copan, J. Cayton, A. Heide

    			-----------------------------------------

	                            ===> Fragment 1 <==

	 Z (Atomic Numbers)          Masses                          Geom
	       6.000000            12.000000         -0.00000000  1.82781328  0.00000000
	       6.000000            12.000000          0.00000000 -1.82781328  0.00000000

	 - Coordinate -           - BOHR/RAD -       - ANG/DEG -
	 R(1,2)           =         3.655627           1.934474

	        --- Internal Coordinate Step in ANG or DEG, aJ/ANG or AJ/DEG ---
	-------------------------------------------------------------------------------
	           Coordinate      Previous         Force          Change          New
	           ----------      --------        ------          ------        ------
	               R(1,2)       1.93447        0.00015        0.00020       1.93467
	-------------------------------------------------------------------------------

	                                 ==> Convergence Check <==

	Measures of convergence in internal coordinates in au.

	Criteria marked as inactive (o), active & met (*), and active & unmet ( ).

	----------------------------------------------------------------------------------------------
	   Step    Total Energy     Delta E     Max Force     RMS Force      Max Disp      RMS Disp
	----------------------------------------------------------------------------------------------
	  Convergence Criteria     1.00e-06 *    3.00e-04 *             o    1.20e-03 *             o
	----------------------------------------------------------------------------------------------
	    12     -75.80624288   -1.86e-07 *    1.82e-05 *    1.82e-05 o    3.74e-04 *    3.74e-04 o  ~
	----------------------------------------------------------------------------------------------

Next Geometry in Ang
	Fragment 1 (Ang)

	    C  -0.0000000000   0.9673360145   0.0000000000
	    C   0.0000000000  -0.9673360145   0.0000000000

    Final optimized geometry and variables:
    Molecular point group: d2h
    Full point group: D_inf_h

    Geometry (in Angstrom), charge = -1, multiplicity = 6:

    C           -0.000000000000     0.967237134370     0.000000000000
    C            0.000000000000    -0.967237134370     0.000000000000

    Psi4 stopped on: Thursday, 17 July 2025 09:58AM
    Psi4 wall time for execution: 0:00:12.70

*** Psi4 exiting successfully. Buy a developer a beer!
