                               Psi4 1.9.1 release

  ==> Input File <==

--------------------------------------------------------------------------
molecule {
-1 6
N   0.00000        0.60000        0.00000
Na   0.00000       -0.60000        0.00000
}

set {
basis              cc-pvdz
reference          uks
maxiter            500
geom_maxiter       500
DAMPING_PERCENTAGE 1
guess              SAP
}

optimize('b3lyp')
--------------------------------------------------------------------------

    Molecular point group: c2v
  Charge       = -1
  Multiplicity = 6
  Basis Set: CC-PVDZ
    Blend: CC-PVDZ
  Basis Set: (CC-PVDZ AUX)
    Blend: CC-PVDZ-JKFIT + DEF2-UNIVERSAL-JKFIT
  @DF-UKS Final Energy:  -216.29278341414965
    Total Energy =                       -216.2927834141496533
 Dipole X            :          0.0000000            0.0000000            0.0000000
 Dipole Y            :          0.0000000            0.0000000            0.0000000
 Dipole Z            :          1.2343166            0.4226391            1.6569557
 Magnitude           :                                                    1.6569557
    Molecular point group: c2v
  Basis Set: CC-PVDZ
    Blend: CC-PVDZ
  Basis Set: (CC-PVDZ AUX)
    Blend: CC-PVDZ-JKFIT + DEF2-UNIVERSAL-JKFIT
  Basis Set: CC-PVDZ
    Blend: CC-PVDZ
  Basis Set: (CC-PVDZ AUX)
    Blend: CC-PVDZ-JKFIT + DEF2-UNIVERSAL-JKFIT
  @DF-UKS Final Energy:  -216.51591829249682
    Total Energy =                       -216.5159182924968206
  Basis Set: CC-PVDZ
    Blend: CC-PVDZ
  Basis Set: (CC-PVDZ AUX)
    Blend: CC-PVDZ-JKFIT + DEF2-UNIVERSAL-JKFIT
  Basis Set: CC-PVDZ
    Blend: CC-PVDZ
  @DF-UKS Final Energy:  -216.67163199663744
    Total Energy =                       -216.6716319966374442
  @DF-UKS Final Energy:  -216.76212655859806
    Total Energy =                       -216.7621265585980552
  @DF-UKS Final Energy:  -216.80748005313200
    Total Energy =                       -216.8074800531319966
  @DF-UKS Final Energy:  -216.83112372305465
    Total Energy =                       -216.8311237230546453
  @DF-UKS Final Energy:  -216.84376953704688
    Total Energy =                       -216.8437695370468816
  @DF-UKS Final Energy:  -216.85089979893559
    Total Energy =                       -216.8508997989355578
  @DF-UKS Final Energy:  -216.85522218763765
    Total Energy =                       -216.8552221876376507
  @DF-UKS Final Energy:  -216.85808241657486
    Total Energy =                       -216.8580824165748595
  @DF-UKS Final Energy:  -216.86016666727332
    Total Energy =                       -216.8601666672733188
  @DF-UKS Final Energy:  -216.86176331913344
    Total Energy =                       -216.8617633191334448
  @DF-UKS Final Energy:  -216.86178175941541
    Total Energy =                       -216.8617817594154076
  @DF-UKS Final Energy:  -216.86304178461427
    Total Energy =                       -216.8630417846142109
  @DF-UKS Final Energy:  -216.86304992513115
    Total Energy =                       -216.8630499251311505
  @DF-UKS Final Energy:  -216.86305801610951
    Total Energy =                       -216.8630580161094770
  @DF-UKS Final Energy:  -216.86384770417104
    Total Energy =                       -216.8638477041710360
  @DF-UKS Final Energy:  -216.86385105021216
    Total Energy =                       -216.8638510502121619
  @DF-UKS Final Energy:  -216.86385437934240
    Total Energy =                       -216.8638543793423992
  @DF-UKS Final Energy:  -216.86385769018597
    Total Energy =                       -216.8638576901859665
  @DF-UKS Final Energy:  -216.86386098274508
    Total Energy =                       -216.8638609827450523
  @DF-UKS Final Energy:  -216.86430243368687
    Total Energy =                       -216.8643024336868734
  @DF-UKS Final Energy:  -216.86430371111342
    Total Energy =                       -216.8643037111134220
  @DF-UKS Final Energy:  -216.86430498460066
    Total Energy =                       -216.8643049846006647
  @DF-UKS Final Energy:  -216.86430625344667
    Total Energy =                       -216.8643062534466708
  @DF-UKS Final Energy:  -216.86430751766514
    Total Energy =                       -216.8643075176651109
  @DF-UKS Final Energy:  -216.86430877730970
    Total Energy =                       -216.8643087773097022
  @DF-UKS Final Energy:  -216.86431003241765
    Total Energy =                       -216.8643100324176487
  @DF-UKS Final Energy:  -216.86431128302198
    Total Energy =                       -216.8643112830219764
  Basis Set: (CC-PVDZ AUX)
    Blend: CC-PVDZ-JKFIT + DEF2-UNIVERSAL-JKFIT
  Basis Set: CC-PVDZ
    Blend: CC-PVDZ
  Basis Set: (CC-PVDZ AUX)
    Blend: CC-PVDZ-JKFIT + DEF2-UNIVERSAL-JKFIT
  @DF-UKS Final Energy:  -216.86457202145957
    Total Energy =                       -216.8645720214595656
  Basis Set: CC-PVDZ
    Blend: CC-PVDZ
  Basis Set: (CC-PVDZ AUX)
    Blend: CC-PVDZ-JKFIT + DEF2-UNIVERSAL-JKFIT
  Charge       = -1
  Multiplicity = 6
  Basis Set: CC-PVDZ
    Blend: CC-PVDZ
  Basis Set: (CC-PVDZ AUX)
    Blend: CC-PVDZ-JKFIT + DEF2-UNIVERSAL-JKFIT

    Orbital Energies [Eh]
    ---------------------

    Alpha Occupied:

       1A1   -38.341211     2A1   -14.343139     3A1    -2.086069
       4A1    -1.017426     1B2    -1.017387     1B1    -1.016228
       5A1    -0.709886     2B2    -0.252667     2B1    -0.252410
       6A1    -0.252401     7A1    -0.000115     3B1     0.054194

    Alpha Virtual:

       3B2     0.088668     8A1     0.091167     9A1     0.159331
       4B1     0.185536     4B2     0.192971    10A1     0.193242
       1A2     0.288108     5B1     0.288338    11A1     0.289793
      12A1     0.292745     5B2     0.292998     6B2     0.751708
       6B1     0.752372    13A1     0.763145    14A1     0.911946
       2A2     1.770976     7B2     1.771193    15A1     1.771234
       7B1     1.771398    16A1     1.772027

    Beta Occupied:

       1A1   -38.339821     2A1   -14.286771     3A1    -2.083371
       4A1    -1.015775     1B2    -1.015734     1B1    -1.013926
       5A1    -0.512896

    Beta Virtual:

       6A1    -0.001557     2B2     0.000867     2B1     0.001345
       7A1     0.068406     3B2     0.114205     8A1     0.115071
       3B1     0.117955     9A1     0.181637    10A1     0.212295
       4B2     0.212566     4B1     0.220741     5B2     0.317764
      11A1     0.317902     1A2     0.326376     5B1     0.326791
      12A1     0.330258     6B2     0.859027     6B1     0.859671
      13A1     0.869121    14A1     1.010461     2A2     1.918729
       7B2     1.918799    15A1     1.918932     7B1     1.919063
      16A1     1.919598

    Final Occupation by Irrep:
             A1    A2    B1    B2
    DOCC [     5,    0,    1,    1 ]
    SOCC [     2,    0,    2,    1 ]
    NA   [     7,    0,    3,    2 ]
    NB   [     5,    0,    1,    1 ]

  @DF-UKS Final Energy:  -216.86457250884129

   => Energetics <=

    Nuclear Repulsion Energy =              8.5275104711693412
    One-Electron Energy =                -320.9672398531661202
    Two-Electron Energy =                 112.7675942146553467
    DFT Exchange-Correlation Energy =     -17.1924373414998648
    Empirical Dispersion Energy =           0.0000000000000000
    VV10 Nonlocal Energy =                  0.0000000000000000
    Total Energy =                       -216.8645725088412917

  UHF NO Occupations:
  HONO-2 :    6 A1 1.0000000
  HONO-1 :    7 A1 1.0000000
  HONO-0 :    3 B1 1.0000000
  LUNO+0 :    8 A1 0.0011341
  LUNO+1 :    3 B2 0.0000005
  LUNO+2 :    9 A1 0.0000004
  LUNO+3 :    4 B1 0.0000003

Computation Completed

Properties will be evaluated at   0.000000,   0.000000,   0.000000 [a0]

Properties computed using the SCF density matrix

 Multipole Moments:

 ------------------------------------------------------------------------------------
     Multipole            Electronic (a.u.)      Nuclear  (a.u.)        Total (a.u.)
 ------------------------------------------------------------------------------------

 L = 1.  Multiply by 2.5417464519 to convert [e a0] to [Debye]
 Dipole X            :          0.0000000            0.0000000            0.0000000
 Dipole Y            :          0.0000000            0.0000000            0.0000000
 Dipole Z            :          1.8215228            1.6828988            3.5044216
 Magnitude           :                                                    3.5044216

 ------------------------------------------------------------------------------------

*** tstop() called on Joses-MacBook-Pro-2.local at Thu Jul 17 10:29:27 2025
Module time:
	user time   =       2.24 seconds =       0.04 minutes
	system time =       2.41 seconds =       0.04 minutes
	total time  =          1 seconds =       0.02 minutes
Total time:
	user time   =     138.56 seconds =       2.31 minutes
	system time =     153.23 seconds =       2.55 minutes
	total time  =         30 seconds =       0.50 minutes

*** tstart() called on Joses-MacBook-Pro-2.local
*** at Thu Jul 17 10:29:27 2025

         ------------------------------------------------------------
                                   SCF GRAD
                          Rob Parrish, Justin Turney,
                       Andy Simmonett, and Alex Sokolov
         ------------------------------------------------------------

  ==> Geometry <==

    Molecular point group: c2v
    Full point group: C_inf_v

    Geometry (in Angstrom), charge = -1, multiplicity = 6:

       Center              X                  Y                   Z               Mass
    ------------   -----------------  -----------------  -----------------  -----------------
         N            0.000000000000     0.000000000000     2.969521655556    14.003074004430
         NA           0.000000000000     0.000000000000    -1.808736355308    22.989769282000

  Nuclear repulsion =    8.527510471169341

  ==> Basis Set <==

  Basis Set: CC-PVDZ
    Blend: CC-PVDZ
    Number of shells: 14
    Number of basis functions: 32
    Number of Cartesian functions: 34
    Spherical Harmonics?: true
    Max angular momentum: 2

  ==> DFJKGrad: Density-Fitted SCF Gradients <==

    Gradient:                    1
    J tasked:                  Yes
    K tasked:                  Yes
    wK tasked:                  No
    OpenMP threads:              1
    Integrals threads:           1
    Memory [MiB]:              375
    Schwarz Cutoff:          1E-12
    Fitting Condition:       1E-10

   => Auxiliary Basis Set <=

  Basis Set: (CC-PVDZ AUX)
    Blend: CC-PVDZ-JKFIT + DEF2-UNIVERSAL-JKFIT
    Number of shells: 58
    Number of basis functions: 182
    Number of Cartesian functions: 218
    Spherical Harmonics?: true
    Max angular momentum: 4

  ==> DFT Potential <==

   => LibXC <=

    Version 6.2.2
    S. Lehtola, C. Steigemann, M. J.T. Oliveira, and M. A.L. Marques.,  SoftwareX 7, 1â€“5 (2018) (10.1016/j.softx.2017.11.002)

   => Composite Functional: B3LYP <=

    B3LYP Hyb-GGA Exchange-Correlation Functional

    P. J. Stephens, F. J. Devlin, C. F. Chabalowski, and M. J. Frisch.,  J. Phys. Chem. 98, 11623 (1994) (10.1021/j100096a001)

    Deriv               =              1
    GGA                 =           TRUE
    Meta                =          FALSE

    Exchange Hybrid     =           TRUE
    MP2 Hybrid          =          FALSE

   => Exchange Functionals <=

    0.0800   Slater exchange
    0.7200         Becke 88

   => Exact (HF) Exchange <=

    0.2000               HF

   => Correlation Functionals <=

    0.1900   Vosko, Wilk & Nusair (VWN5_RPA)
    0.8100   Lee, Yang & Parr

   => LibXC Density Thresholds  <==

    XC_HYB_GGA_XC_B3LYP:  1.00E-15

   => Molecular Quadrature <=

    Radial Scheme          =       TREUTLER
    Pruning Scheme         =           NONE
    Nuclear Scheme         =       TREUTLER

    Blocking Scheme        =         OCTREE
    BS radius alpha        =              1
    Pruning alpha          =              1
    Radial Points          =             75
    Spherical Points       =            302
    Total Points           =          43932
    Total Blocks           =            450
    Max Points             =            255
    Max Functions          =             32
    Weights Tolerance      =       1.00E-15

  -Total Gradient:
     Atom            X                  Y                   Z
    ------   -----------------  -----------------  -----------------
       1        0.000000000000     0.000000000000    -0.000267678720
       2        0.000000000000    -0.000000000000     0.000287430009

*** tstop() called on Joses-MacBook-Pro-2.local at Thu Jul 17 10:29:27 2025
Module time:
	user time   =       0.49 seconds =       0.01 minutes
	system time =       2.17 seconds =       0.04 minutes
	total time  =          0 seconds =       0.00 minutes
Total time:
	user time   =     139.05 seconds =       2.32 minutes
	system time =     155.40 seconds =       2.59 minutes
	total time  =         30 seconds =       0.50 minutes

    			-----------------------------------------

    			 OPTKING 3.0: for geometry optimizations

    			     By R.A. King, Bethel University

    			        with contributions from

    			    A.V. Copan, J. Cayton, A. Heide

    			-----------------------------------------

	                            ===> Fragment 1 <==

	 Z (Atomic Numbers)          Masses                          Geom
	       7.000000            14.003074          0.00000000  0.00000000  5.61158265
	      11.000000            22.989769          0.00000000  0.00000000 -3.41801634

	 - Coordinate -           - BOHR/RAD -       - ANG/DEG -
	 R(1,2)           =         9.029599           4.778258

	        --- Internal Coordinate Step in ANG or DEG, aJ/ANG or AJ/DEG ---
	-------------------------------------------------------------------------------
	           Coordinate      Previous         Force          Change          New
	           ----------      --------        ------          ------        ------
	               R(1,2)       4.77826        0.00229        0.00089       4.77914
	-------------------------------------------------------------------------------

	                                 ==> Convergence Check <==

	Measures of convergence in internal coordinates in au.

	Criteria marked as inactive (o), active & met (*), and active & unmet ( ).

	----------------------------------------------------------------------------------------------
	   Step    Total Energy     Delta E     Max Force     RMS Force      Max Disp      RMS Disp
	----------------------------------------------------------------------------------------------
	  Convergence Criteria     1.00e-06 *    3.00e-04 *             o    1.20e-03 *             o
	----------------------------------------------------------------------------------------------
	    31    -216.86457251   -4.87e-07 *    2.78e-04 *    2.78e-04 o    1.67e-03      1.67e-03 o  ~
	----------------------------------------------------------------------------------------------

Next Geometry in Ang
	Fragment 1 (Ang)

	    N   0.0000000000   0.0000000000   2.9699646416
	   Na   0.0000000000   0.0000000000  -1.8091793413

    Final optimized geometry and variables:
    Molecular point group: c2v
    Full point group: C_inf_v

    Geometry (in Angstrom), charge = -1, multiplicity = 6:

    N            0.000000000000     0.000000000000     2.969521655556
    NA           0.000000000000     0.000000000000    -1.808736355308

    Psi4 stopped on: Thursday, 17 July 2025 10:29AM
    Psi4 wall time for execution: 0:00:31.37

*** Psi4 exiting successfully. Buy a developer a beer!
