                               Psi4 1.9.1 release

  ==> Input File <==

--------------------------------------------------------------------------
molecule {
-1 6
Na   0.00000        0.60000        0.00000
Na   0.00000       -0.60000        0.00000
}

set {
basis              cc-pvdz
reference          uks
maxiter            500
geom_maxiter       500
DAMPING_PERCENTAGE 1
guess              SAP
}

optimize('b3lyp')
--------------------------------------------------------------------------

    Molecular point group: d2h
  Charge       = -1
  Multiplicity = 6
  Basis Set: CC-PVDZ
    Blend: CC-PVDZ
  Basis Set: (CC-PVDZ AUX)
    Blend: DEF2-UNIVERSAL-JKFIT
  @DF-UKS Final Energy:  -322.94643229722044
    Total Energy =                       -322.9464322972203831
 Dipole X            :          0.0000000            0.0000000            0.0000000
 Dipole Y            :          0.0000000            0.0000000            0.0000000
 Dipole Z            :          0.0000000            0.0000000            0.0000000
 Magnitude           :                                                    0.0000000
    Molecular point group: d2h
  Basis Set: CC-PVDZ
    Blend: CC-PVDZ
  Basis Set: (CC-PVDZ AUX)
    Blend: DEF2-UNIVERSAL-JKFIT
  Basis Set: CC-PVDZ
    Blend: CC-PVDZ
  Basis Set: (CC-PVDZ AUX)
    Blend: DEF2-UNIVERSAL-JKFIT
  @DF-UKS Final Energy:  -322.95032153164266
    Total Energy =                       -322.9503215316426576
  Basis Set: CC-PVDZ
    Blend: CC-PVDZ
  Basis Set: (CC-PVDZ AUX)
    Blend: DEF2-UNIVERSAL-JKFIT
  Basis Set: CC-PVDZ
    Blend: CC-PVDZ
  @DF-UKS Final Energy:  -322.95787784633012
    Total Energy =                       -322.9578778463301774
  @DF-UKS Final Energy:  -322.98578545231027
    Total Energy =                       -322.9857854523102674
  @DF-UKS Final Energy:  -323.12512533734457
    Total Energy =                       -323.1251253373445138
  @DF-UKS Final Energy:  -323.20952484623575
    Total Energy =                       -323.2095248462357517
  @DF-UKS Final Energy:  -323.25413879496011
    Total Energy =                       -323.2541387949601130
  @DF-UKS Final Energy:  -323.29256033117036
    Total Energy =                       -323.2925603311703640
  @DF-UKS Final Energy:  -323.32757787111865
    Total Energy =                       -323.3275778711186490
  @DF-UKS Final Energy:  -323.36177761116403
    Total Energy =                       -323.3617776111640296
  @DF-UKS Final Energy:  -323.36626465032862
    Total Energy =                       -323.3662646503286169
  @DF-UKS Final Energy:  -323.38244167492866
    Total Energy =                       -323.3824416749286570
  @DF-UKS Final Energy:  -323.38323902272288
    Total Energy =                       -323.3832390227228757
  @DF-UKS Final Energy:  -323.38696962917976
    Total Energy =                       -323.3869696291797027
  @DF-UKS Final Energy:  -323.38786922306497
    Total Energy =                       -323.3878692230649676
  @DF-UKS Final Energy:  -323.38842749583176
    Total Energy =                       -323.3884274958317633
  @DF-UKS Final Energy:  -323.38854132933704
    Total Energy =                       -323.3885413293370448
  Basis Set: (CC-PVDZ AUX)
    Blend: DEF2-UNIVERSAL-JKFIT
  Basis Set: CC-PVDZ
    Blend: CC-PVDZ
  Basis Set: (CC-PVDZ AUX)
    Blend: DEF2-UNIVERSAL-JKFIT
  @DF-UKS Final Energy:  -323.38855238749079
    Total Energy =                       -323.3885523874907904
  Basis Set: CC-PVDZ
    Blend: CC-PVDZ
  Basis Set: (CC-PVDZ AUX)
    Blend: DEF2-UNIVERSAL-JKFIT
  Charge       = -1
  Multiplicity = 6
  Basis Set: CC-PVDZ
    Blend: CC-PVDZ
  Basis Set: (CC-PVDZ AUX)
    Blend: DEF2-UNIVERSAL-JKFIT

    Orbital Energies [Eh]
    ---------------------

    Alpha Occupied:

       1Ag   -38.951107     1B2u  -38.951106     2Ag    -2.478643
       2B2u   -2.478614     3Ag    -1.452895     3B2u   -1.451918
       1B3u   -1.389897     1B1u   -1.389897     1B1g   -1.389863
       1B3g   -1.389863     4Ag    -0.095020     4B2u   -0.022263
       2B1u    0.026916     2B3u    0.026916

    Alpha Virtual:

       5Ag     0.056030     2B1g    0.088796     2B3g    0.088796
       5B2u    0.099307     6Ag     0.133291     7Ag     0.139288
       3B1u    0.141617     3B3u    0.141617     3B1g    0.171546
       3B3g    0.171546     6B2u    0.186604     8Ag     0.228465
       1B2g    0.228465     7B2u    0.234127     4B1u    0.239290
       4B3u    0.239290     8B2u    0.289559     1Au     0.289560
       9Ag     0.312566     4B1g    0.374008     4B3g    0.374008
       9B2u    0.615159

    Beta Occupied:

       1Ag   -38.929257     1B2u  -38.929252     2Ag    -2.420565
       2B2u   -2.420131     1B3u   -1.366140     1B1u   -1.366140
       1B1g   -1.366096     1B3g   -1.366096     3Ag    -1.277325

    Beta Virtual:

       3B2u   -1.241502     4Ag     0.012301     4B2u    0.059838
       2B3u    0.104626     2B1u    0.104626     5Ag     0.104902
       5B2u    0.115216     2B1g    0.122867     2B3g    0.122867
       6Ag     0.166332     7Ag     0.174475     3B1u    0.178380
       3B3u    0.178380     3B1g    0.209418     3B3g    0.209418
       6B2u    0.220631     7B2u    0.273464     8Ag     0.289454
       1B2g    0.289466     4B1u    0.299956     4B3u    0.299956
       8B2u    0.341239     1Au     0.341262     9Ag     0.358164
       4B1g    0.422848     4B3g    0.422848     9B2u    0.649509

    Final Occupation by Irrep:
             Ag   B1g   B2g   B3g    Au   B1u   B2u   B3u
    DOCC [     3,    1,    0,    1,    0,    1,    2,    1 ]
    SOCC [     1,    0,    0,    0,    0,    1,    2,    1 ]
    NA   [     4,    1,    0,    1,    0,    2,    4,    2 ]
    NB   [     3,    1,    0,    1,    0,    1,    2,    1 ]

  @DF-UKS Final Energy:  -323.38855244906387

   => Energetics <=

    Nuclear Repulsion Energy =             20.5970289790142544
    One-Electron Energy =                -490.9117168003784855
    Two-Electron Energy =                 169.6166341899224221
    DFT Exchange-Correlation Energy =     -22.6904988176220357
    Empirical Dispersion Energy =           0.0000000000000000
    VV10 Nonlocal Energy =                  0.0000000000000000
    Total Energy =                       -323.3885524490638659

  UHF NO Occupations:
  HONO-2 :    3B2u 1.0000000
  HONO-1 :    2B3u 1.0000000
  HONO-0 :    4B2u 1.0000000
  LUNO+0 :    5 Ag 0.0000838
  LUNO+1 :    5B2u 0.0000014
  LUNO+2 :    2B1g 0.0000009
  LUNO+3 :    2B3g 0.0000009

Computation Completed

Properties will be evaluated at   0.000000,   0.000000,   0.000000 [a0]

Properties computed using the SCF density matrix

 Multipole Moments:

 ------------------------------------------------------------------------------------
     Multipole            Electronic (a.u.)      Nuclear  (a.u.)        Total (a.u.)
 ------------------------------------------------------------------------------------

 L = 1.  Multiply by 2.5417464519 to convert [e a0] to [Debye]
 Dipole X            :          0.0000000            0.0000000            0.0000000
 Dipole Y            :          0.0000000            0.0000000            0.0000000
 Dipole Z            :          0.0000000            0.0000000            0.0000000
 Magnitude           :                                                    0.0000000

 ------------------------------------------------------------------------------------

*** tstop() called on Joses-MacBook-Pro-2.local at Thu Jul 17 11:07:08 2025
Module time:
	user time   =       6.60 seconds =       0.11 minutes
	system time =       2.66 seconds =       0.04 minutes
	total time  =          1 seconds =       0.02 minutes
Total time:
	user time   =     200.71 seconds =       3.35 minutes
	system time =      99.11 seconds =       1.65 minutes
	total time  =         30 seconds =       0.50 minutes

*** tstart() called on Joses-MacBook-Pro-2.local
*** at Thu Jul 17 11:07:08 2025

         ------------------------------------------------------------
                                   SCF GRAD
                          Rob Parrish, Justin Turney,
                       Andy Simmonett, and Alex Sokolov
         ------------------------------------------------------------

  ==> Geometry <==

    Molecular point group: d2h
    Full point group: D_inf_h

    Geometry (in Angstrom), charge = -1, multiplicity = 6:

       Center              X                  Y                   Z               Mass
    ------------   -----------------  -----------------  -----------------  -----------------
         NA          -0.000000000000     1.554361130343     0.000000000000    22.989769282000
         NA           0.000000000000    -1.554361130343     0.000000000000    22.989769282000

  Nuclear repulsion =   20.597028979014254

  ==> Basis Set <==

  Basis Set: CC-PVDZ
    Blend: CC-PVDZ
    Number of shells: 16
    Number of basis functions: 36
    Number of Cartesian functions: 38
    Spherical Harmonics?: true
    Max angular momentum: 2

  ==> DFJKGrad: Density-Fitted SCF Gradients <==

    Gradient:                    1
    J tasked:                  Yes
    K tasked:                  Yes
    wK tasked:                  No
    OpenMP threads:              1
    Integrals threads:           1
    Memory [MiB]:              375
    Schwarz Cutoff:          1E-12
    Fitting Condition:       1E-10

   => Auxiliary Basis Set <=

  Basis Set: (CC-PVDZ AUX)
    Blend: DEF2-UNIVERSAL-JKFIT
    Number of shells: 68
    Number of basis functions: 224
    Number of Cartesian functions: 274
    Spherical Harmonics?: true
    Max angular momentum: 4

  ==> DFT Potential <==

   => LibXC <=

    Version 6.2.2
    S. Lehtola, C. Steigemann, M. J.T. Oliveira, and M. A.L. Marques.,  SoftwareX 7, 1â€“5 (2018) (10.1016/j.softx.2017.11.002)

   => Composite Functional: B3LYP <=

    B3LYP Hyb-GGA Exchange-Correlation Functional

    P. J. Stephens, F. J. Devlin, C. F. Chabalowski, and M. J. Frisch.,  J. Phys. Chem. 98, 11623 (1994) (10.1021/j100096a001)

    Deriv               =              1
    GGA                 =           TRUE
    Meta                =          FALSE

    Exchange Hybrid     =           TRUE
    MP2 Hybrid          =          FALSE

   => Exchange Functionals <=

    0.0800   Slater exchange
    0.7200         Becke 88

   => Exact (HF) Exchange <=

    0.2000               HF

   => Correlation Functionals <=

    0.1900   Vosko, Wilk & Nusair (VWN5_RPA)
    0.8100   Lee, Yang & Parr

   => LibXC Density Thresholds  <==

    XC_HYB_GGA_XC_B3LYP:  1.00E-15

   => Molecular Quadrature <=

    Radial Scheme          =       TREUTLER
    Pruning Scheme         =           NONE
    Nuclear Scheme         =       TREUTLER

    Blocking Scheme        =         OCTREE
    BS radius alpha        =              1
    Pruning alpha          =              1
    Radial Points          =             75
    Spherical Points       =            302
    Total Points           =          43084
    Total Blocks           =            450
    Max Points             =            254
    Max Functions          =             36
    Weights Tolerance      =       1.00E-15

  -Total Gradient:
     Atom            X                  Y                   Z
    ------   -----------------  -----------------  -----------------
       1        0.000000000000    -0.000001853829     0.000000000000
       2       -0.000000000000     0.000001853829     0.000000000000

*** tstop() called on Joses-MacBook-Pro-2.local at Thu Jul 17 11:07:08 2025
Module time:
	user time   =       2.27 seconds =       0.04 minutes
	system time =       2.34 seconds =       0.04 minutes
	total time  =          0 seconds =       0.00 minutes
Total time:
	user time   =     202.98 seconds =       3.38 minutes
	system time =     101.45 seconds =       1.69 minutes
	total time  =         30 seconds =       0.50 minutes

    			-----------------------------------------

    			 OPTKING 3.0: for geometry optimizations

    			     By R.A. King, Bethel University

    			        with contributions from

    			    A.V. Copan, J. Cayton, A. Heide

    			-----------------------------------------

	                            ===> Fragment 1 <==

	 Z (Atomic Numbers)          Masses                          Geom
	      11.000000            22.989769         -0.00000000  2.93731684  0.00000000
	      11.000000            22.989769          0.00000000 -2.93731684  0.00000000

	 - Coordinate -           - BOHR/RAD -       - ANG/DEG -
	 R(1,2)           =         5.874634           3.108722

	        --- Internal Coordinate Step in ANG or DEG, aJ/ANG or AJ/DEG ---
	-------------------------------------------------------------------------------
	           Coordinate      Previous         Force          Change          New
	           ----------      --------        ------          ------        ------
	               R(1,2)       3.10872        0.00002        0.00013       3.10885
	-------------------------------------------------------------------------------

	                                 ==> Convergence Check <==

	Measures of convergence in internal coordinates in au.

	Criteria marked as inactive (o), active & met (*), and active & unmet ( ).

	----------------------------------------------------------------------------------------------
	   Step    Total Energy     Delta E     Max Force     RMS Force      Max Disp      RMS Disp
	----------------------------------------------------------------------------------------------
	  Convergence Criteria     1.00e-06 *    3.00e-04 *             o    1.20e-03 *             o
	----------------------------------------------------------------------------------------------
	    19    -323.38855245   -6.16e-08 *    1.85e-06 *    1.85e-06 o    2.46e-04 *    2.46e-04 o  ~
	----------------------------------------------------------------------------------------------

Next Geometry in Ang
	Fragment 1 (Ang)

	   Na  -0.0000000000   1.5544261265   0.0000000000
	   Na   0.0000000000  -1.5544261265   0.0000000000

    Final optimized geometry and variables:
    Molecular point group: d2h
    Full point group: D_inf_h

    Geometry (in Angstrom), charge = -1, multiplicity = 6:

    NA          -0.000000000000     1.554361130343     0.000000000000
    NA           0.000000000000    -1.554361130343     0.000000000000

    Psi4 stopped on: Thursday, 17 July 2025 11:07AM
    Psi4 wall time for execution: 0:00:30.76

*** Psi4 exiting successfully. Buy a developer a beer!
