                               Psi4 1.9.1 release

  ==> Input File <==

--------------------------------------------------------------------------
molecule {
-1 6
O   0.00000        0.60000        0.00000
Si   0.00000       -0.60000        0.00000
}

set {
basis              cc-pvdz
reference          uks
maxiter            500
geom_maxiter       500
DAMPING_PERCENTAGE 1
guess              SAP
}

optimize('b3lyp')
--------------------------------------------------------------------------

    Molecular point group: c2v
  Charge       = -1
  Multiplicity = 6
  Basis Set: CC-PVDZ
    Blend: CC-PVDZ
  Basis Set: (CC-PVDZ AUX)
    Blend: CC-PVDZ-JKFIT
  @DF-UKS Final Energy:  -363.93242794031465
    Total Energy =                       -363.9324279403145965
 Dipole X            :          0.0000000            0.0000000            0.0000000
 Dipole Y            :          0.0000000            0.0000000            0.0000000
 Dipole Z            :          0.8750793           -0.0058478            0.8692315
 Magnitude           :                                                    0.8692315
    Molecular point group: c2v
  Basis Set: CC-PVDZ
    Blend: CC-PVDZ
  Basis Set: (CC-PVDZ AUX)
    Blend: CC-PVDZ-JKFIT
  Basis Set: CC-PVDZ
    Blend: CC-PVDZ
  Basis Set: (CC-PVDZ AUX)
    Blend: CC-PVDZ-JKFIT
  @DF-UKS Final Energy:  -364.11095299319891
    Total Energy =                       -364.1109529931989073
  Basis Set: CC-PVDZ
    Blend: CC-PVDZ
  Basis Set: (CC-PVDZ AUX)
    Blend: CC-PVDZ-JKFIT
  Basis Set: CC-PVDZ
    Blend: CC-PVDZ
  @DF-UKS Final Energy:  -364.20664572625782
    Total Energy =                       -364.2066457262578183
  @DF-UKS Final Energy:  -364.24402196641591
    Total Energy =                       -364.2440219664159713
  @DF-UKS Final Energy:  -364.36971691086291
    Total Energy =                       -364.3697169108629623
  @DF-UKS Final Energy:  -364.40932792232013
    Total Energy =                       -364.4093279223200170
  @DF-UKS Final Energy:  -364.43181589953502
    Total Energy =                       -364.4318158995350245
  @DF-UKS Final Energy:  -364.45774025078805
    Total Energy =                       -364.4577402507881061
  @DF-UKS Final Energy:  -364.46028857140948
    Total Energy =                       -364.4602885714094782
  @DF-UKS Final Energy:  -364.47569440899076
    Total Energy =                       -364.4756944089907620
  @DF-UKS Final Energy:  -364.47646332750782
    Total Energy =                       -364.4764633275078154
  @DF-UKS Final Energy:  -364.48301234734748
    Total Energy =                       -364.4830123473474828
  @DF-UKS Final Energy:  -364.48322080271822
    Total Energy =                       -364.4832208027181650
  @DF-UKS Final Energy:  -364.48618848291346
    Total Energy =                       -364.4861884829134624
  @DF-UKS Final Energy:  -364.48624172656696
    Total Energy =                       -364.4862417265669592
  @DF-UKS Final Energy:  -364.48756316922243
    Total Energy =                       -364.4875631692224260
  @DF-UKS Final Energy:  -364.48757549194744
    Total Energy =                       -364.4875754919474389
  @DF-UKS Final Energy:  -364.48811028490007
    Total Energy =                       -364.4881102849000172
  @DF-UKS Final Energy:  -364.48826320641513
    Total Energy =                       -364.4882632064150698
  @DF-UKS Final Energy:  -364.48831743624964
    Total Energy =                       -364.4883174362495879
  @DF-UKS Final Energy:  -364.48832799788505
    Total Energy =                       -364.4883279978849941
  Basis Set: (CC-PVDZ AUX)
    Blend: CC-PVDZ-JKFIT
  Basis Set: CC-PVDZ
    Blend: CC-PVDZ
  Basis Set: (CC-PVDZ AUX)
    Blend: CC-PVDZ-JKFIT
  @DF-UKS Final Energy:  -364.48832944898157
    Total Energy =                       -364.4883294489815739
  Basis Set: CC-PVDZ
    Blend: CC-PVDZ
  Basis Set: (CC-PVDZ AUX)
    Blend: CC-PVDZ-JKFIT
  Charge       = -1
  Multiplicity = 6
  Basis Set: CC-PVDZ
    Blend: CC-PVDZ
  Basis Set: (CC-PVDZ AUX)
    Blend: CC-PVDZ-JKFIT

    Orbital Energies [Eh]
    ---------------------

    Alpha Occupied:

       1A1   -65.865247     2A1   -19.145492     3A1    -5.007997
       1B2    -3.367590     1B1    -3.367587     4A1    -3.367584
       5A1    -0.876379     2B2    -0.315176     6A1    -0.313106
       2B1    -0.238559     7A1    -0.185714     3B2     0.064336
       8A1     0.064459     3B1     0.064471

    Alpha Virtual:

       9A1     0.472440    10A1     0.540063     4B2     0.542528
       4B1     0.542714    11A1     0.607785     5B2     0.608152
       5B1     0.608241     1A2     0.608344    12A1     0.608345
       6B2     0.943508    13A1     0.962661     6B1     0.991243
      14A1     1.207732     7B2     2.569434    15A1     2.569790
       2A2     2.626349     7B1     2.627836    16A1     2.647658

    Beta Occupied:

       1A1   -65.858527     2A1   -19.095691     3A1    -5.000469
       1B2    -3.356621     1B1    -3.356613     4A1    -3.356596
       5A1    -0.718661     2B1    -0.187227     6A1    -0.099727

    Beta Virtual:

       2B2    -0.034226     7A1    -0.033200     3B2     0.176209
       3B1     0.176363     8A1     0.176844     9A1     0.510536
      10A1     0.584241     4B2     0.585392     4B1     0.585547
      11A1     0.681549     5B2     0.681882     5B1     0.681980
       1A2     0.682108    12A1     0.682110     6B1     1.020875
       6B2     1.057424    13A1     1.073239    14A1     1.289148
       2A2     2.717209     7B1     2.718382    15A1     2.724937
       7B2     2.742655    16A1     2.743021

    Final Occupation by Irrep:
             A1    A2    B1    B2
    DOCC [     6,    0,    2,    1 ]
    SOCC [     2,    0,    1,    2 ]
    NA   [     8,    0,    3,    3 ]
    NB   [     6,    0,    2,    1 ]

  @DF-UKS Final Energy:  -364.48832974287632

   => Energetics <=

    Nuclear Repulsion Energy =             13.9512534974187759
    One-Electron Energy =                -536.9848099330708919
    Two-Electron Energy =                 182.3530591583598834
    DFT Exchange-Correlation Energy =     -23.8078324655840632
    Empirical Dispersion Energy =           0.0000000000000000
    VV10 Nonlocal Energy =                  0.0000000000000000
    Total Energy =                       -364.4883297428763171

  UHF NO Occupations:
  HONO-2 :    2 B2 1.0000000
  HONO-1 :    3 B2 1.0000000
  HONO-0 :    8 A1 1.0000000
  LUNO+0 :    9 A1 0.0007073
  LUNO+1 :    4 B1 0.0002451
  LUNO+2 :   10 A1 0.0000241
  LUNO+3 :   11 A1 0.0000001

Computation Completed

Properties will be evaluated at   0.000000,   0.000000,   0.000000 [a0]

Properties computed using the SCF density matrix

 Multipole Moments:

 ------------------------------------------------------------------------------------
     Multipole            Electronic (a.u.)      Nuclear  (a.u.)        Total (a.u.)
 ------------------------------------------------------------------------------------

 L = 1.  Multiply by 2.5417464519 to convert [e a0] to [Debye]
 Dipole X            :          0.0000000            0.0000000            0.0000000
 Dipole Y            :          0.0000000            0.0000000            0.0000000
 Dipole Z            :          2.8515226           -0.0207021            2.8308205
 Magnitude           :                                                    2.8308205

 ------------------------------------------------------------------------------------

*** tstop() called on Joses-MacBook-Pro-2.local at Thu Jul 17 10:43:21 2025
Module time:
	user time   =       5.05 seconds =       0.08 minutes
	system time =       3.91 seconds =       0.07 minutes
	total time  =          1 seconds =       0.02 minutes
Total time:
	user time   =     133.12 seconds =       2.22 minutes
	system time =     111.69 seconds =       1.86 minutes
	total time  =         26 seconds =       0.43 minutes

*** tstart() called on Joses-MacBook-Pro-2.local
*** at Thu Jul 17 10:43:21 2025

         ------------------------------------------------------------
                                   SCF GRAD
                          Rob Parrish, Justin Turney,
                       Andy Simmonett, and Alex Sokolov
         ------------------------------------------------------------

  ==> Geometry <==

    Molecular point group: c2v
    Full point group: C_inf_v

    Geometry (in Angstrom), charge = -1, multiplicity = 6:

       Center              X                  Y                   Z               Mass
    ------------   -----------------  -----------------  -----------------  -----------------
         O            0.000000000000     0.000000000000     2.702908085404    15.994914619570
         SI           0.000000000000     0.000000000000    -1.545301411041    27.976926534650

  Nuclear repulsion =   13.951253497418776

  ==> Basis Set <==

  Basis Set: CC-PVDZ
    Blend: CC-PVDZ
    Number of shells: 14
    Number of basis functions: 32
    Number of Cartesian functions: 34
    Spherical Harmonics?: true
    Max angular momentum: 2

  ==> DFJKGrad: Density-Fitted SCF Gradients <==

    Gradient:                    1
    J tasked:                  Yes
    K tasked:                  Yes
    wK tasked:                  No
    OpenMP threads:              1
    Integrals threads:           1
    Memory [MiB]:              375
    Schwarz Cutoff:          1E-12
    Fitting Condition:       1E-10

   => Auxiliary Basis Set <=

  Basis Set: (CC-PVDZ AUX)
    Blend: CC-PVDZ-JKFIT
    Number of shells: 60
    Number of basis functions: 182
    Number of Cartesian functions: 211
    Spherical Harmonics?: true
    Max angular momentum: 3

  ==> DFT Potential <==

   => LibXC <=

    Version 6.2.2
    S. Lehtola, C. Steigemann, M. J.T. Oliveira, and M. A.L. Marques.,  SoftwareX 7, 1â€“5 (2018) (10.1016/j.softx.2017.11.002)

   => Composite Functional: B3LYP <=

    B3LYP Hyb-GGA Exchange-Correlation Functional

    P. J. Stephens, F. J. Devlin, C. F. Chabalowski, and M. J. Frisch.,  J. Phys. Chem. 98, 11623 (1994) (10.1021/j100096a001)

    Deriv               =              1
    GGA                 =           TRUE
    Meta                =          FALSE

    Exchange Hybrid     =           TRUE
    MP2 Hybrid          =          FALSE

   => Exchange Functionals <=

    0.0800   Slater exchange
    0.7200         Becke 88

   => Exact (HF) Exchange <=

    0.2000               HF

   => Correlation Functionals <=

    0.1900   Vosko, Wilk & Nusair (VWN5_RPA)
    0.8100   Lee, Yang & Parr

   => LibXC Density Thresholds  <==

    XC_HYB_GGA_XC_B3LYP:  1.00E-15

   => Molecular Quadrature <=

    Radial Scheme          =       TREUTLER
    Pruning Scheme         =           NONE
    Nuclear Scheme         =       TREUTLER

    Blocking Scheme        =         OCTREE
    BS radius alpha        =              1
    Pruning alpha          =              1
    Radial Points          =             75
    Spherical Points       =            302
    Total Points           =          42874
    Total Blocks           =            430
    Max Points             =            256
    Max Functions          =             32
    Weights Tolerance      =       1.00E-15

  -Total Gradient:
     Atom            X                  Y                   Z
    ------   -----------------  -----------------  -----------------
       1        0.000000000000    -0.000000000000    -0.000000764767
       2       -0.000000000000     0.000000000000     0.000005960548

*** tstop() called on Joses-MacBook-Pro-2.local at Thu Jul 17 10:43:21 2025
Module time:
	user time   =       0.77 seconds =       0.01 minutes
	system time =       1.65 seconds =       0.03 minutes
	total time  =          0 seconds =       0.00 minutes
Total time:
	user time   =     133.89 seconds =       2.23 minutes
	system time =     113.35 seconds =       1.89 minutes
	total time  =         26 seconds =       0.43 minutes

    			-----------------------------------------

    			 OPTKING 3.0: for geometry optimizations

    			     By R.A. King, Bethel University

    			        with contributions from

    			    A.V. Copan, J. Cayton, A. Heide

    			-----------------------------------------

	                            ===> Fragment 1 <==

	 Z (Atomic Numbers)          Masses                          Geom
	       8.000000            15.994915          0.00000000  0.00000000  5.10775602
	      14.000000            27.976927          0.00000000  0.00000000 -2.92019645

	 - Coordinate -           - BOHR/RAD -       - ANG/DEG -
	 R(1,2)           =         8.027952           4.248209

	        --- Internal Coordinate Step in ANG or DEG, aJ/ANG or AJ/DEG ---
	-------------------------------------------------------------------------------
	           Coordinate      Previous         Force          Change          New
	           ----------      --------        ------          ------        ------
	               R(1,2)       4.24821        0.00003        0.00243       4.25063
	-------------------------------------------------------------------------------

	                                 ==> Convergence Check <==

	Measures of convergence in internal coordinates in au.

	Criteria marked as inactive (o), active & met (*), and active & unmet ( ).

	----------------------------------------------------------------------------------------------
	   Step    Total Energy     Delta E     Max Force     RMS Force      Max Disp      RMS Disp
	----------------------------------------------------------------------------------------------
	  Convergence Criteria     1.00e-06 *    3.00e-04 *             o    1.20e-03 *             o
	----------------------------------------------------------------------------------------------
	    23    -364.48832974   -2.94e-07 *    3.36e-06 *    3.36e-06 o    4.58e-03      4.58e-03 o  ~
	----------------------------------------------------------------------------------------------

Next Geometry in Ang
	Fragment 1 (Ang)

	    O   0.0000000000   0.0000000000   2.7041208230
	   Si   0.0000000000   0.0000000000  -1.5465141486

    Final optimized geometry and variables:
    Molecular point group: c2v
    Full point group: C_inf_v

    Geometry (in Angstrom), charge = -1, multiplicity = 6:

    O            0.000000000000     0.000000000000     2.702908085404
    SI           0.000000000000     0.000000000000    -1.545301411041

    Psi4 stopped on: Thursday, 17 July 2025 10:43AM
    Psi4 wall time for execution: 0:00:26.63

*** Psi4 exiting successfully. Buy a developer a beer!
