                               Psi4 1.9.1 release

  ==> Input File <==

--------------------------------------------------------------------------
molecule {
-1 6
Li   0.00000        0.60000        0.00000
Cl   0.00000       -0.60000        0.00000
}

set {
basis              cc-pvdz
reference          uks
maxiter            500
geom_maxiter       500
DAMPING_PERCENTAGE 1
guess              SAP
}

optimize('b3lyp')
--------------------------------------------------------------------------

    Molecular point group: c2v
  Charge       = -1
  Multiplicity = 6
  Basis Set: CC-PVDZ
    Blend: CC-PVDZ
  Basis Set: (CC-PVDZ AUX)
    Blend: CC-PVDZ-JKFIT + DEF2-UNIVERSAL-JKFIT
  @DF-UKS Final Energy:  -466.72932767159045
    Total Energy =                       -466.7293276715904540
 Dipole X            :          0.0000000            0.0000000            0.0000000
 Dipole Y            :          0.0000000            0.0000000            0.0000000
 Dipole Z            :         -3.2495728           -0.7759044           -4.0254772
 Magnitude           :                                                    4.0254772
    Molecular point group: c2v
  Basis Set: CC-PVDZ
    Blend: CC-PVDZ
  Basis Set: (CC-PVDZ AUX)
    Blend: CC-PVDZ-JKFIT + DEF2-UNIVERSAL-JKFIT
  Basis Set: CC-PVDZ
    Blend: CC-PVDZ
  Basis Set: (CC-PVDZ AUX)
    Blend: CC-PVDZ-JKFIT + DEF2-UNIVERSAL-JKFIT
  @DF-UKS Final Energy:  -466.89594471668784
    Total Energy =                       -466.8959447166878363
  Basis Set: CC-PVDZ
    Blend: CC-PVDZ
  Basis Set: (CC-PVDZ AUX)
    Blend: CC-PVDZ-JKFIT + DEF2-UNIVERSAL-JKFIT
  Basis Set: CC-PVDZ
    Blend: CC-PVDZ
  @DF-UKS Final Energy:  -467.03624638808162
    Total Energy =                       -467.0362463880816222
  @DF-UKS Final Energy:  -467.12766793075576
    Total Energy =                       -467.1276679307557060
  @DF-UKS Final Energy:  -467.18922662248445
    Total Energy =                       -467.1892266224844548
  @DF-UKS Final Energy:  -467.22465794172365
    Total Energy =                       -467.2246579417236489
  @DF-UKS Final Energy:  -467.24743313485044
    Total Energy =                       -467.2474331348504393
  @DF-UKS Final Energy:  -467.26193634910300
    Total Energy =                       -467.2619363491029958
  @DF-UKS Final Energy:  -467.26989711341071
    Total Energy =                       -467.2698971134107069
  @DF-UKS Final Energy:  -467.27270134254320
    Total Energy =                       -467.2727013425432006
  @DF-UKS Final Energy:  -467.27312852809581
    Total Energy =                       -467.2731285280958105
  Basis Set: (CC-PVDZ AUX)
    Blend: CC-PVDZ-JKFIT + DEF2-UNIVERSAL-JKFIT
  Basis Set: CC-PVDZ
    Blend: CC-PVDZ
  Basis Set: (CC-PVDZ AUX)
    Blend: CC-PVDZ-JKFIT + DEF2-UNIVERSAL-JKFIT
  @DF-UKS Final Energy:  -467.27314466698385
    Total Energy =                       -467.2731446669838533
  Basis Set: CC-PVDZ
    Blend: CC-PVDZ
  Basis Set: (CC-PVDZ AUX)
    Blend: CC-PVDZ-JKFIT + DEF2-UNIVERSAL-JKFIT
  Charge       = -1
  Multiplicity = 6
  Basis Set: CC-PVDZ
    Blend: CC-PVDZ
  Basis Set: (CC-PVDZ AUX)
    Blend: CC-PVDZ-JKFIT + DEF2-UNIVERSAL-JKFIT

    Orbital Energies [Eh]
    ---------------------

    Alpha Occupied:

       1A1  -101.776212     2A1    -9.682214     3A1    -7.451449
       1B2    -7.451231     1B1    -7.425171     4A1    -1.864422
       5A1    -0.993281     6A1    -0.518542     2B2    -0.516042
       2B1    -0.457412     7A1    -0.006072     3B2     0.057755
       3B1     0.060184

    Alpha Virtual:

       8A1     0.091705     9A1     0.160425     4B2     0.191890
       4B1     0.193804    10A1     0.226059     5B2     0.331200
       5B1     0.338929    11A1     0.357911     1A2     0.365669
      12A1     0.365825     6B2     0.475981    13A1     0.492521
       6B1     0.509889    14A1     0.541855     2A2     0.560334
       7B2     0.569218    15A1     0.581194     7B1     0.605100
      16A1     0.828013

    Beta Occupied:

       1A1  -101.760453     2A1    -9.666591     3A1    -7.422082
       1B2    -7.421557     1B1    -7.415434     4A1    -1.858572
       5A1    -0.878882     2B1    -0.421271

    Beta Virtual:

       6A1    -0.327749     2B2    -0.324360     7A1     0.082808
       8A1     0.116296     3B1     0.134666     3B2     0.136547
       9A1     0.205574     4B2     0.232989     4B1     0.233429
      10A1     0.239541     5B1     0.376459     5B2     0.379712
      11A1     0.400418     1A2     0.433117    12A1     0.433332
       6B1     0.535435     6B2     0.538966    13A1     0.544188
       2A2     0.630175    14A1     0.635892    15A1     0.650731
       7B1     0.666626     7B2     0.678036    16A1     0.877095

    Final Occupation by Irrep:
             A1    A2    B1    B2
    DOCC [     5,    0,    2,    1 ]
    SOCC [     2,    0,    1,    2 ]
    NA   [     7,    0,    3,    3 ]
    NB   [     5,    0,    2,    1 ]

  @DF-UKS Final Energy:  -467.27314469804281

   => Energetics <=

    Nuclear Repulsion Energy =              8.7881125306590437
    One-Electron Energy =                -660.0939198104542811
    Two-Electron Energy =                 208.1538207753280005
    DFT Exchange-Correlation Energy =     -24.1211581935755888
    Empirical Dispersion Energy =           0.0000000000000000
    VV10 Nonlocal Energy =                  0.0000000000000000
    Total Energy =                       -467.2731446980428132

  UHF NO Occupations:
  HONO-2 :    3 B1 1.0000000
  HONO-1 :    7 A1 1.0000000
  HONO-0 :    3 B2 1.0000000
  LUNO+0 :    8 A1 0.0009799
  LUNO+1 :    4 B1 0.0001349
  LUNO+2 :    9 A1 0.0000006
  LUNO+3 :   10 A1 0.0000000

Computation Completed

Properties will be evaluated at   0.000000,   0.000000,   0.000000 [a0]

Properties computed using the SCF density matrix

 Multipole Moments:

 ------------------------------------------------------------------------------------
     Multipole            Electronic (a.u.)      Nuclear  (a.u.)        Total (a.u.)
 ------------------------------------------------------------------------------------

 L = 1.  Multiply by 2.5417464519 to convert [e a0] to [Debye]
 Dipole X            :          0.0000000            0.0000000            0.0000000
 Dipole Y            :          0.0000000            0.0000000            0.0000000
 Dipole Z            :         -6.0730276           -1.9856498           -8.0586774
 Magnitude           :                                                    8.0586774

 ------------------------------------------------------------------------------------

*** tstop() called on Joses-MacBook-Pro-2.local at Thu Jul 17 09:37:24 2025
Module time:
	user time   =       2.31 seconds =       0.04 minutes
	system time =       3.73 seconds =       0.06 minutes
	total time  =          1 seconds =       0.02 minutes
Total time:
	user time   =      63.73 seconds =       1.06 minutes
	system time =      73.96 seconds =       1.23 minutes
	total time  =         13 seconds =       0.22 minutes

*** tstart() called on Joses-MacBook-Pro-2.local
*** at Thu Jul 17 09:37:24 2025

         ------------------------------------------------------------
                                   SCF GRAD
                          Rob Parrish, Justin Turney,
                       Andy Simmonett, and Alex Sokolov
         ------------------------------------------------------------

  ==> Geometry <==

    Molecular point group: c2v
    Full point group: C_inf_v

    Geometry (in Angstrom), charge = -1, multiplicity = 6:

       Center              X                  Y                   Z               Mass
    ------------   -----------------  -----------------  -----------------  -----------------
         LI           0.000000000000     0.000000000000     2.557787223993     7.016003436600
         CL           0.000000000000     0.000000000000    -0.513183664240    34.968852682000

  Nuclear repulsion =    8.788112530659044

  ==> Basis Set <==

  Basis Set: CC-PVDZ
    Blend: CC-PVDZ
    Number of shells: 14
    Number of basis functions: 32
    Number of Cartesian functions: 34
    Spherical Harmonics?: true
    Max angular momentum: 2

  ==> DFJKGrad: Density-Fitted SCF Gradients <==

    Gradient:                    1
    J tasked:                  Yes
    K tasked:                  Yes
    wK tasked:                  No
    OpenMP threads:              1
    Integrals threads:           1
    Memory [MiB]:              375
    Schwarz Cutoff:          1E-12
    Fitting Condition:       1E-10

   => Auxiliary Basis Set <=

  Basis Set: (CC-PVDZ AUX)
    Blend: CC-PVDZ-JKFIT + DEF2-UNIVERSAL-JKFIT
    Number of shells: 53
    Number of basis functions: 163
    Number of Cartesian functions: 190
    Spherical Harmonics?: true
    Max angular momentum: 3

  ==> DFT Potential <==

   => LibXC <=

    Version 6.2.2
    S. Lehtola, C. Steigemann, M. J.T. Oliveira, and M. A.L. Marques.,  SoftwareX 7, 1â€“5 (2018) (10.1016/j.softx.2017.11.002)

   => Composite Functional: B3LYP <=

    B3LYP Hyb-GGA Exchange-Correlation Functional

    P. J. Stephens, F. J. Devlin, C. F. Chabalowski, and M. J. Frisch.,  J. Phys. Chem. 98, 11623 (1994) (10.1021/j100096a001)

    Deriv               =              1
    GGA                 =           TRUE
    Meta                =          FALSE

    Exchange Hybrid     =           TRUE
    MP2 Hybrid          =          FALSE

   => Exchange Functionals <=

    0.0800   Slater exchange
    0.7200         Becke 88

   => Exact (HF) Exchange <=

    0.2000               HF

   => Correlation Functionals <=

    0.1900   Vosko, Wilk & Nusair (VWN5_RPA)
    0.8100   Lee, Yang & Parr

   => LibXC Density Thresholds  <==

    XC_HYB_GGA_XC_B3LYP:  1.00E-15

   => Molecular Quadrature <=

    Radial Scheme          =       TREUTLER
    Pruning Scheme         =           NONE
    Nuclear Scheme         =       TREUTLER

    Blocking Scheme        =         OCTREE
    BS radius alpha        =              1
    Pruning alpha          =              1
    Radial Points          =             75
    Spherical Points       =            302
    Total Points           =          44369
    Total Blocks           =            448
    Max Points             =            256
    Max Functions          =             32
    Weights Tolerance      =       1.00E-15

  -Total Gradient:
     Atom            X                  Y                   Z
    ------   -----------------  -----------------  -----------------
       1        0.000000000000    -0.000000000000     0.000029846738
       2        0.000000000000     0.000000000000     0.000037005310

*** tstop() called on Joses-MacBook-Pro-2.local at Thu Jul 17 09:37:24 2025
Module time:
	user time   =       0.75 seconds =       0.01 minutes
	system time =       1.73 seconds =       0.03 minutes
	total time  =          0 seconds =       0.00 minutes
Total time:
	user time   =      64.48 seconds =       1.07 minutes
	system time =      75.69 seconds =       1.26 minutes
	total time  =         13 seconds =       0.22 minutes

    			-----------------------------------------

    			 OPTKING 3.0: for geometry optimizations

    			     By R.A. King, Bethel University

    			        with contributions from

    			    A.V. Copan, J. Cayton, A. Heide

    			-----------------------------------------

	                            ===> Fragment 1 <==

	 Z (Atomic Numbers)          Masses                          Geom
	       3.000000             7.016003          0.00000000  0.00000000  4.83351734
	      17.000000            34.968853          0.00000000  0.00000000 -0.96977658

	 - Coordinate -           - BOHR/RAD -       - ANG/DEG -
	 R(1,2)           =         5.803294           3.070971

	        --- Internal Coordinate Step in ANG or DEG, aJ/ANG or AJ/DEG ---
	-------------------------------------------------------------------------------
	           Coordinate      Previous         Force          Change          New
	           ----------      --------        ------          ------        ------
	               R(1,2)       3.07097        0.00003        0.00012       3.07109
	-------------------------------------------------------------------------------

	                                 ==> Convergence Check <==

	Measures of convergence in internal coordinates in au.

	Criteria marked as inactive (o), active & met (*), and active & unmet ( ).

	----------------------------------------------------------------------------------------------
	   Step    Total Energy     Delta E     Max Force     RMS Force      Max Disp      RMS Disp
	----------------------------------------------------------------------------------------------
	  Convergence Criteria     1.00e-06 *    3.00e-04 *             o    1.20e-03 *             o
	----------------------------------------------------------------------------------------------
	    13    -467.27314470   -3.11e-08 *    3.58e-06 *    3.58e-06 o    2.22e-04 *    2.22e-04 o  ~
	----------------------------------------------------------------------------------------------

Next Geometry in Ang
	Fragment 1 (Ang)

	   Li   0.0000000000   0.0000000000   2.5578459992
	   Cl   0.0000000000   0.0000000000  -0.5132424395

    Final optimized geometry and variables:
    Molecular point group: c2v
    Full point group: C_inf_v

    Geometry (in Angstrom), charge = -1, multiplicity = 6:

    LI           0.000000000000     0.000000000000     2.557787223993
    CL           0.000000000000     0.000000000000    -0.513183664240

    Psi4 stopped on: Thursday, 17 July 2025 09:37AM
    Psi4 wall time for execution: 0:00:14.14

*** Psi4 exiting successfully. Buy a developer a beer!
