                               Psi4 1.9.1 release

  ==> Input File <==

--------------------------------------------------------------------------
molecule {
-1 6
C   0.00000        0.60000        0.00000
Ar   0.00000       -0.60000        0.00000
}

set {
basis              cc-pvdz
reference          uks
maxiter            500
geom_maxiter       500
DAMPING_PERCENTAGE 1
guess              SAP
}

optimize('b3lyp')
--------------------------------------------------------------------------

    Molecular point group: c2v
  Charge       = -1
  Multiplicity = 6
  Basis Set: CC-PVDZ
    Blend: CC-PVDZ
  Basis Set: (CC-PVDZ AUX)
    Blend: CC-PVDZ-JKFIT
  @DF-UKS Final Energy:  -564.22712364034862
    Total Energy =                       -564.2271236403486228
 Dipole X            :          0.0000000            0.0000000            0.0000000
 Dipole Y            :          0.0000000            0.0000000            0.0000000
 Dipole Z            :         -1.9849892            1.0375255           -0.9474638
 Magnitude           :                                                    0.9474638
    Molecular point group: c2v
  Basis Set: CC-PVDZ
    Blend: CC-PVDZ
  Basis Set: (CC-PVDZ AUX)
    Blend: CC-PVDZ-JKFIT
  Basis Set: CC-PVDZ
    Blend: CC-PVDZ
  Basis Set: (CC-PVDZ AUX)
    Blend: CC-PVDZ-JKFIT
  @DF-UKS Final Energy:  -564.42812970942953
    Total Energy =                       -564.4281297094295269
  Basis Set: CC-PVDZ
    Blend: CC-PVDZ
  Basis Set: (CC-PVDZ AUX)
    Blend: CC-PVDZ-JKFIT
  Basis Set: CC-PVDZ
    Blend: CC-PVDZ
  @DF-UKS Final Energy:  -564.53272533872860
    Total Energy =                       -564.5327253387285964
  @DF-UKS Final Energy:  -564.57306736913051
    Total Energy =                       -564.5730673691305128
  @DF-UKS Final Energy:  -564.59904297894866
    Total Energy =                       -564.5990429789486598
  @DF-UKS Final Energy:  -564.61838689551439
    Total Energy =                       -564.6183868955143907
  @DF-UKS Final Energy:  -564.64134290013658
    Total Energy =                       -564.6413429001365785
  @DF-UKS Final Energy:  -564.65593136403004
    Total Energy =                       -564.6559313640300388
  @DF-UKS Final Energy:  -564.65600205834971
    Total Energy =                       -564.6560020583498272
  @DF-UKS Final Energy:  -564.65634600101623
    Total Energy =                       -564.6563460010162316
  Basis Set: (CC-PVDZ AUX)
    Blend: CC-PVDZ-JKFIT
  Basis Set: CC-PVDZ
    Blend: CC-PVDZ
  Basis Set: (CC-PVDZ AUX)
    Blend: CC-PVDZ-JKFIT
  @DF-UKS Final Energy:  -564.65636082204355
    Total Energy =                       -564.6563608220434389
  Basis Set: CC-PVDZ
    Blend: CC-PVDZ
  Basis Set: (CC-PVDZ AUX)
    Blend: CC-PVDZ-JKFIT
  Charge       = -1
  Multiplicity = 6
  Basis Set: CC-PVDZ
    Blend: CC-PVDZ
  Basis Set: (CC-PVDZ AUX)
    Blend: CC-PVDZ-JKFIT

    Orbital Energies [Eh]
    ---------------------

    Alpha Occupied:

       1A1  -114.876283     2A1   -10.916811     3A1    -9.892676
       4A1    -8.468958     1B2    -8.465325     1B1    -8.465325
       5A1    -0.763781     6A1    -0.329384     2B2    -0.219761
       2B1    -0.219761     7A1    -0.199473     3B1     0.035968
       3B2     0.035968     8A1     0.065965     9A1     0.649729

    Alpha Virtual:

       4B2     0.706766     4B1     0.706766    10A1     0.776771
       5B2     0.804845     5B1     0.804845    11A1     0.869006
      12A1     0.988937    13A1     1.042519     1A2     1.042521
       6B1     1.047481     6B2     1.047481    14A1     1.140498
      15A1     1.399025     2A2     1.399031     7B2     1.446003
       7B1     1.446003    16A1     1.788599

    Beta Occupied:

       1A1  -114.871593     2A1   -10.911941     3A1    -9.820144
       1B2    -8.461847     1B1    -8.461847     4A1    -8.458156
       5A1    -0.744117     6A1    -0.216785     2B2    -0.209625
       2B1    -0.209625

    Beta Virtual:

       7A1     0.042608     3B1     0.283611     3B2     0.283611
       8A1     0.342065     4B1     0.782722     4B2     0.782722
       9A1     0.793635     5B2     0.875679     5B1     0.875679
      10A1     0.947435    11A1     0.960319    12A1     1.020158
      13A1     1.049939     1A2     1.049941     6B1     1.073470
       6B2     1.073470    14A1     1.225409    15A1     1.582670
       2A2     1.582684     7B2     1.620716     7B1     1.620716
      16A1     1.915738

    Final Occupation by Irrep:
             A1    A2    B1    B2
    DOCC [     6,    0,    2,    2 ]
    SOCC [     3,    0,    1,    1 ]
    NA   [     9,    0,    3,    3 ]
    NB   [     6,    0,    2,    2 ]

  @DF-UKS Final Energy:  -564.65636167953653

   => Energetics <=

    Nuclear Repulsion Energy =             25.1682596856449585
    One-Electron Energy =                -834.3053271233870873
    Two-Electron Energy =                 273.9388969012118764
    DFT Exchange-Correlation Energy =     -29.4581911430064274
    Empirical Dispersion Energy =           0.0000000000000000
    VV10 Nonlocal Energy =                  0.0000000000000000
    Total Energy =                       -564.6563616795365306

  UHF NO Occupations:
  HONO-2 :    7 A1 1.0000000
  HONO-1 :    8 A1 1.0000000
  HONO-0 :    9 A1 1.0000000
  LUNO+0 :   10 A1 0.0005828
  LUNO+1 :   11 A1 0.0000298
  LUNO+2 :    4 B1 0.0000292
  LUNO+3 :    4 B2 0.0000292

Computation Completed

Properties will be evaluated at   0.000000,   0.000000,   0.000000 [a0]

Properties computed using the SCF density matrix

 Multipole Moments:

 ------------------------------------------------------------------------------------
     Multipole            Electronic (a.u.)      Nuclear  (a.u.)        Total (a.u.)
 ------------------------------------------------------------------------------------

 L = 1.  Multiply by 2.5417464519 to convert [e a0] to [Debye]
 Dipole X            :          0.0000000            0.0000000            0.0000000
 Dipole Y            :          0.0000000            0.0000000            0.0000000
 Dipole Z            :         -4.7687780            1.9633116           -2.8054664
 Magnitude           :                                                    2.8054664

 ------------------------------------------------------------------------------------

*** tstop() called on Joses-MacBook-Pro-2.local at Thu Jul 17 10:24:09 2025
Module time:
	user time   =       3.81 seconds =       0.06 minutes
	system time =       3.49 seconds =       0.06 minutes
	total time  =          1 seconds =       0.02 minutes
Total time:
	user time   =      72.15 seconds =       1.20 minutes
	system time =      59.64 seconds =       0.99 minutes
	total time  =         13 seconds =       0.22 minutes

*** tstart() called on Joses-MacBook-Pro-2.local
*** at Thu Jul 17 10:24:09 2025

         ------------------------------------------------------------
                                   SCF GRAD
                          Rob Parrish, Justin Turney,
                       Andy Simmonett, and Alex Sokolov
         ------------------------------------------------------------

  ==> Geometry <==

    Molecular point group: c2v
    Full point group: C_inf_v

    Geometry (in Angstrom), charge = -1, multiplicity = 6:

       Center              X                  Y                   Z               Mass
    ------------   -----------------  -----------------  -----------------  -----------------
         C            0.000000000000     0.000000000000     1.746360985009    12.000000000000
         AR           0.000000000000     0.000000000000    -0.524401454118    39.962383123700

  Nuclear repulsion =   25.168259685644959

  ==> Basis Set <==

  Basis Set: CC-PVDZ
    Blend: CC-PVDZ
    Number of shells: 14
    Number of basis functions: 32
    Number of Cartesian functions: 34
    Spherical Harmonics?: true
    Max angular momentum: 2

  ==> DFJKGrad: Density-Fitted SCF Gradients <==

    Gradient:                    1
    J tasked:                  Yes
    K tasked:                  Yes
    wK tasked:                  No
    OpenMP threads:              1
    Integrals threads:           1
    Memory [MiB]:              375
    Schwarz Cutoff:          1E-12
    Fitting Condition:       1E-10

   => Auxiliary Basis Set <=

  Basis Set: (CC-PVDZ AUX)
    Blend: CC-PVDZ-JKFIT
    Number of shells: 60
    Number of basis functions: 182
    Number of Cartesian functions: 211
    Spherical Harmonics?: true
    Max angular momentum: 3

  ==> DFT Potential <==

   => LibXC <=

    Version 6.2.2
    S. Lehtola, C. Steigemann, M. J.T. Oliveira, and M. A.L. Marques.,  SoftwareX 7, 1â€“5 (2018) (10.1016/j.softx.2017.11.002)

   => Composite Functional: B3LYP <=

    B3LYP Hyb-GGA Exchange-Correlation Functional

    P. J. Stephens, F. J. Devlin, C. F. Chabalowski, and M. J. Frisch.,  J. Phys. Chem. 98, 11623 (1994) (10.1021/j100096a001)

    Deriv               =              1
    GGA                 =           TRUE
    Meta                =          FALSE

    Exchange Hybrid     =           TRUE
    MP2 Hybrid          =          FALSE

   => Exchange Functionals <=

    0.0800   Slater exchange
    0.7200         Becke 88

   => Exact (HF) Exchange <=

    0.2000               HF

   => Correlation Functionals <=

    0.1900   Vosko, Wilk & Nusair (VWN5_RPA)
    0.8100   Lee, Yang & Parr

   => LibXC Density Thresholds  <==

    XC_HYB_GGA_XC_B3LYP:  1.00E-15

   => Molecular Quadrature <=

    Radial Scheme          =       TREUTLER
    Pruning Scheme         =           NONE
    Nuclear Scheme         =       TREUTLER

    Blocking Scheme        =         OCTREE
    BS radius alpha        =              1
    Pruning alpha          =              1
    Radial Points          =             75
    Spherical Points       =            302
    Total Points           =          41179
    Total Blocks           =            369
    Max Points             =            256
    Max Functions          =             32
    Weights Tolerance      =       1.00E-15

  -Total Gradient:
     Atom            X                  Y                   Z
    ------   -----------------  -----------------  -----------------
       1        0.000000000000     0.000000000000    -0.000066171801
       2        0.000000000000    -0.000000000000     0.000065087192

*** tstop() called on Joses-MacBook-Pro-2.local at Thu Jul 17 10:24:09 2025
Module time:
	user time   =       0.64 seconds =       0.01 minutes
	system time =       1.80 seconds =       0.03 minutes
	total time  =          0 seconds =       0.00 minutes
Total time:
	user time   =      72.79 seconds =       1.21 minutes
	system time =      61.44 seconds =       1.02 minutes
	total time  =         13 seconds =       0.22 minutes

    			-----------------------------------------

    			 OPTKING 3.0: for geometry optimizations

    			     By R.A. King, Bethel University

    			        with contributions from

    			    A.V. Copan, J. Cayton, A. Heide

    			-----------------------------------------

	                            ===> Fragment 1 <==

	 Z (Atomic Numbers)          Masses                          Geom
	       6.000000            12.000000          0.00000000  0.00000000  3.30014398
	      18.000000            39.962383          0.00000000  0.00000000 -0.99097513

	 - Coordinate -           - BOHR/RAD -       - ANG/DEG -
	 R(1,2)           =         4.291119           2.270762

	        --- Internal Coordinate Step in ANG or DEG, aJ/ANG or AJ/DEG ---
	-------------------------------------------------------------------------------
	           Coordinate      Previous         Force          Change          New
	           ----------      --------        ------          ------        ------
	               R(1,2)       2.27076        0.00054        0.00075       2.27152
	-------------------------------------------------------------------------------

	                                 ==> Convergence Check <==

	Measures of convergence in internal coordinates in au.

	Criteria marked as inactive (o), active & met (*), and active & unmet ( ).

	----------------------------------------------------------------------------------------------
	   Step    Total Energy     Delta E     Max Force     RMS Force      Max Disp      RMS Disp
	----------------------------------------------------------------------------------------------
	  Convergence Criteria     1.00e-06 *    3.00e-04 *             o    1.20e-03 *             o
	----------------------------------------------------------------------------------------------
	    12    -564.65636168   -8.57e-07 *    6.56e-05 *    6.56e-05 o    1.42e-03      1.42e-03 o  ~
	----------------------------------------------------------------------------------------------

Next Geometry in Ang
	Fragment 1 (Ang)

	    C   0.0000000000   0.0000000000   1.7467375493
	   Ar   0.0000000000   0.0000000000  -0.5247780184

    Final optimized geometry and variables:
    Molecular point group: c2v
    Full point group: C_inf_v

    Geometry (in Angstrom), charge = -1, multiplicity = 6:

    C            0.000000000000     0.000000000000     1.746360985009
    AR           0.000000000000     0.000000000000    -0.524401454118

    Psi4 stopped on: Thursday, 17 July 2025 10:24AM
    Psi4 wall time for execution: 0:00:14.22

*** Psi4 exiting successfully. Buy a developer a beer!
