                               Psi4 1.9.1 release

  ==> Input File <==

--------------------------------------------------------------------------
molecule {
-1 6
B   0.00000        0.60000        0.00000
Al   0.00000       -0.60000        0.00000
}

set {
basis              cc-pvdz
reference          uks
maxiter            500
geom_maxiter       500
DAMPING_PERCENTAGE 1
guess              SAP
}

optimize('b3lyp')
--------------------------------------------------------------------------

    Molecular point group: c2v
  Charge       = -1
  Multiplicity = 6
  Basis Set: CC-PVDZ
    Blend: CC-PVDZ
  Basis Set: (CC-PVDZ AUX)
    Blend: CC-PVDZ-JKFIT
  @DF-UKS Final Energy:  -266.47947614138837
    Total Energy =                       -266.4794761413883748
 Dipole X            :          0.0000000            0.0000000            0.0000000
 Dipole Y            :          0.0000000            0.0000000            0.0000000
 Dipole Z            :          0.9203622           -0.4902500            0.4301121
 Magnitude           :                                                    0.4301121
    Molecular point group: c2v
  Basis Set: CC-PVDZ
    Blend: CC-PVDZ
  Basis Set: (CC-PVDZ AUX)
    Blend: CC-PVDZ-JKFIT
  Basis Set: CC-PVDZ
    Blend: CC-PVDZ
  Basis Set: (CC-PVDZ AUX)
    Blend: CC-PVDZ-JKFIT
  @DF-UKS Final Energy:  -266.72321563575446
    Total Energy =                       -266.7232156357544568
  Basis Set: CC-PVDZ
    Blend: CC-PVDZ
  Basis Set: (CC-PVDZ AUX)
    Blend: CC-PVDZ-JKFIT
  Basis Set: CC-PVDZ
    Blend: CC-PVDZ
  @DF-UKS Final Energy:  -266.89770380395828
    Total Energy =                       -266.8977038039582794
  @DF-UKS Final Energy:  -266.98858065622233
    Total Energy =                       -266.9885806562223252
  @DF-UKS Final Energy:  -267.02534673813881
    Total Energy =                       -267.0253467381388077
  @DF-UKS Final Energy:  -267.03901136569510
    Total Energy =                       -267.0390113656951030
  @DF-UKS Final Energy:  -267.04262002250658
    Total Energy =                       -267.0426200225065827
  @DF-UKS Final Energy:  -267.04309589250704
    Total Energy =                       -267.0430958925070399
  @DF-UKS Final Energy:  -267.04316520179464
    Total Energy =                       -267.0431652017946362
  @DF-UKS Final Energy:  -267.04317587838602
    Total Energy =                       -267.0431758783860232
  Basis Set: (CC-PVDZ AUX)
    Blend: CC-PVDZ-JKFIT
  Basis Set: CC-PVDZ
    Blend: CC-PVDZ
  Basis Set: (CC-PVDZ AUX)
    Blend: CC-PVDZ-JKFIT
  @DF-UKS Final Energy:  -267.04317776781414
    Total Energy =                       -267.0431777678141430
  Basis Set: CC-PVDZ
    Blend: CC-PVDZ
  Basis Set: (CC-PVDZ AUX)
    Blend: CC-PVDZ-JKFIT
  Charge       = -1
  Multiplicity = 6
  Basis Set: CC-PVDZ
    Blend: CC-PVDZ
  Basis Set: (CC-PVDZ AUX)
    Blend: CC-PVDZ-JKFIT

    Orbital Energies [Eh]
    ---------------------

    Alpha Occupied:

       1A1   -55.862021     2A1    -6.574940     3A1    -3.943840
       1B1    -2.498306     1B2    -2.496528     4A1    -2.495669
       5A1    -0.244887     6A1    -0.109370     2B2     0.002234
       7A1     0.003671     2B1     0.012244     3B2     0.093360

    Alpha Virtual:

       3B1     0.141783     8A1     0.213769     9A1     0.331901
       4B1     0.383659     4B2     0.384084    10A1     0.418038
       1A2     0.438723    11A1     0.439792    12A1     0.443343
       5B2     0.491118     5B1     0.491647     6B2     0.510397
       6B1     0.519823    13A1     0.734770    14A1     0.804335
       2A2     0.917947    15A1     0.919484     7B2     1.063488
       7B1     1.064574    16A1     1.275875

    Beta Occupied:

       1A1   -55.856405     2A1    -6.550461     3A1    -3.936042
       1B1    -2.491028     4A1    -2.487147     1B2    -2.487059
       5A1    -0.152658

    Beta Virtual:

       6A1     0.040081     2B1     0.112040     2B2     0.127960
       7A1     0.148756     3B1     0.212078     3B2     0.229888
       8A1     0.249917     9A1     0.374827     4B1     0.416906
       4B2     0.429296    10A1     0.481942    11A1     0.494831
       1A2     0.503050    12A1     0.504741     5B1     0.542400
       5B2     0.556360     6B1     0.575638     6B2     0.593243
      13A1     0.800892    14A1     0.860536     2A2     1.004864
      15A1     1.005039     7B1     1.141800     7B2     1.158693
      16A1     1.350639

    Final Occupation by Irrep:
             A1    A2    B1    B2
    DOCC [     5,    0,    1,    1 ]
    SOCC [     2,    0,    1,    2 ]
    NA   [     7,    0,    2,    3 ]
    NB   [     5,    0,    1,    1 ]

  @DF-UKS Final Energy:  -267.04317786880438

   => Energetics <=

    Nuclear Repulsion Energy =             16.5669873762650113
    One-Electron Energy =                -406.0216340098559158
    Two-Electron Energy =                 140.7806170824918581
    DFT Exchange-Correlation Energy =     -18.3691483177053385
    Empirical Dispersion Energy =           0.0000000000000000
    VV10 Nonlocal Energy =                  0.0000000000000000
    Total Energy =                       -267.0431778688043778

  UHF NO Occupations:
  HONO-2 :    6 A1 1.0000000
  HONO-1 :    7 A1 1.0000000
  HONO-0 :    2 B1 1.0000000
  LUNO+0 :    8 A1 0.0009612
  LUNO+1 :    3 B1 0.0000003
  LUNO+2 :    9 A1 0.0000002
  LUNO+3 :    4 B2 0.0000002

Computation Completed

Properties will be evaluated at   0.000000,   0.000000,   0.000000 [a0]

Properties computed using the SCF density matrix

 Multipole Moments:

 ------------------------------------------------------------------------------------
     Multipole            Electronic (a.u.)      Nuclear  (a.u.)        Total (a.u.)
 ------------------------------------------------------------------------------------

 L = 1.  Multiply by 2.5417464519 to convert [e a0] to [Debye]
 Dipole X            :          0.0000000            0.0000000            0.0000000
 Dipole Y            :          0.0000000            0.0000000            0.0000000
 Dipole Z            :          0.2624898           -0.8482177           -0.5857280
 Magnitude           :                                                    0.5857280

 ------------------------------------------------------------------------------------

*** tstop() called on Joses-MacBook-Pro-2.local at Thu Jul 17 09:53:53 2025
Module time:
	user time   =       4.28 seconds =       0.07 minutes
	system time =       2.92 seconds =       0.05 minutes
	total time  =          0 seconds =       0.00 minutes
Total time:
	user time   =      58.38 seconds =       0.97 minutes
	system time =      70.41 seconds =       1.17 minutes
	total time  =         12 seconds =       0.20 minutes

*** tstart() called on Joses-MacBook-Pro-2.local
*** at Thu Jul 17 09:53:53 2025

         ------------------------------------------------------------
                                   SCF GRAD
                          Rob Parrish, Justin Turney,
                       Andy Simmonett, and Alex Sokolov
         ------------------------------------------------------------

  ==> Geometry <==

    Molecular point group: c2v
    Full point group: C_inf_v

    Geometry (in Angstrom), charge = -1, multiplicity = 6:

       Center              X                  Y                   Z               Mass
    ------------   -----------------  -----------------  -----------------  -----------------
         B            0.000000000000     0.000000000000     1.474547331911    11.009305360000
         AL           0.000000000000     0.000000000000    -0.601661088627    26.981538530000

  Nuclear repulsion =   16.566987376265011

  ==> Basis Set <==

  Basis Set: CC-PVDZ
    Blend: CC-PVDZ
    Number of shells: 14
    Number of basis functions: 32
    Number of Cartesian functions: 34
    Spherical Harmonics?: true
    Max angular momentum: 2

  ==> DFJKGrad: Density-Fitted SCF Gradients <==

    Gradient:                    1
    J tasked:                  Yes
    K tasked:                  Yes
    wK tasked:                  No
    OpenMP threads:              1
    Integrals threads:           1
    Memory [MiB]:              375
    Schwarz Cutoff:          1E-12
    Fitting Condition:       1E-10

   => Auxiliary Basis Set <=

  Basis Set: (CC-PVDZ AUX)
    Blend: CC-PVDZ-JKFIT
    Number of shells: 60
    Number of basis functions: 182
    Number of Cartesian functions: 211
    Spherical Harmonics?: true
    Max angular momentum: 3

  ==> DFT Potential <==

   => LibXC <=

    Version 6.2.2
    S. Lehtola, C. Steigemann, M. J.T. Oliveira, and M. A.L. Marques.,  SoftwareX 7, 1â€“5 (2018) (10.1016/j.softx.2017.11.002)

   => Composite Functional: B3LYP <=

    B3LYP Hyb-GGA Exchange-Correlation Functional

    P. J. Stephens, F. J. Devlin, C. F. Chabalowski, and M. J. Frisch.,  J. Phys. Chem. 98, 11623 (1994) (10.1021/j100096a001)

    Deriv               =              1
    GGA                 =           TRUE
    Meta                =          FALSE

    Exchange Hybrid     =           TRUE
    MP2 Hybrid          =          FALSE

   => Exchange Functionals <=

    0.0800   Slater exchange
    0.7200         Becke 88

   => Exact (HF) Exchange <=

    0.2000               HF

   => Correlation Functionals <=

    0.1900   Vosko, Wilk & Nusair (VWN5_RPA)
    0.8100   Lee, Yang & Parr

   => LibXC Density Thresholds  <==

    XC_HYB_GGA_XC_B3LYP:  1.00E-15

   => Molecular Quadrature <=

    Radial Scheme          =       TREUTLER
    Pruning Scheme         =           NONE
    Nuclear Scheme         =       TREUTLER

    Blocking Scheme        =         OCTREE
    BS radius alpha        =              1
    Pruning alpha          =              1
    Radial Points          =             75
    Spherical Points       =            302
    Total Points           =          42976
    Total Blocks           =            401
    Max Points             =            255
    Max Functions          =             32
    Weights Tolerance      =       1.00E-15

  -Total Gradient:
     Atom            X                  Y                   Z
    ------   -----------------  -----------------  -----------------
       1        0.000000000000     0.000000000000    -0.000019267455
       2        0.000000000000    -0.000000000000     0.000010600641

*** tstop() called on Joses-MacBook-Pro-2.local at Thu Jul 17 09:53:54 2025
Module time:
	user time   =       1.53 seconds =       0.03 minutes
	system time =       1.68 seconds =       0.03 minutes
	total time  =          1 seconds =       0.02 minutes
Total time:
	user time   =      59.91 seconds =       1.00 minutes
	system time =      72.10 seconds =       1.20 minutes
	total time  =         13 seconds =       0.22 minutes

    			-----------------------------------------

    			 OPTKING 3.0: for geometry optimizations

    			     By R.A. King, Bethel University

    			        with contributions from

    			    A.V. Copan, J. Cayton, A. Heide

    			-----------------------------------------

	                            ===> Fragment 1 <==

	 Z (Atomic Numbers)          Masses                          Geom
	       5.000000            11.009305          0.00000000  0.00000000  2.78649062
	      13.000000            26.981539          0.00000000  0.00000000 -1.13697468

	 - Coordinate -           - BOHR/RAD -       - ANG/DEG -
	 R(1,2)           =         3.923465           2.076208

	        --- Internal Coordinate Step in ANG or DEG, aJ/ANG or AJ/DEG ---
	-------------------------------------------------------------------------------
	           Coordinate      Previous         Force          Change          New
	           ----------      --------        ------          ------        ------
	               R(1,2)       2.07621        0.00012        0.00007       2.07628
	-------------------------------------------------------------------------------

	                                 ==> Convergence Check <==

	Measures of convergence in internal coordinates in au.

	Criteria marked as inactive (o), active & met (*), and active & unmet ( ).

	----------------------------------------------------------------------------------------------
	   Step    Total Energy     Delta E     Max Force     RMS Force      Max Disp      RMS Disp
	----------------------------------------------------------------------------------------------
	  Convergence Criteria     1.00e-06 *    3.00e-04 *             o    1.20e-03 *             o
	----------------------------------------------------------------------------------------------
	    12    -267.04317787   -1.01e-07 *    1.49e-05 *    1.49e-05 o    1.31e-04 *    1.31e-04 o  ~
	----------------------------------------------------------------------------------------------

Next Geometry in Ang
	Fragment 1 (Ang)

	    B   0.0000000000   0.0000000000   1.4745820619
	   Al   0.0000000000   0.0000000000  -0.6016958186

    Final optimized geometry and variables:
    Molecular point group: c2v
    Full point group: C_inf_v

    Geometry (in Angstrom), charge = -1, multiplicity = 6:

    B            0.000000000000     0.000000000000     1.474547331911
    AL           0.000000000000     0.000000000000    -0.601661088627

    Psi4 stopped on: Thursday, 17 July 2025 09:53AM
    Psi4 wall time for execution: 0:00:13.46

*** Psi4 exiting successfully. Buy a developer a beer!
