                               Psi4 1.9.1 release

  ==> Input File <==

--------------------------------------------------------------------------
molecule {
-1 6
Mg   0.00000        0.60000        0.00000
Mg   0.00000       -0.60000        0.00000
}

set {
basis              cc-pvdz
reference          uks
maxiter            500
geom_maxiter       500
DAMPING_PERCENTAGE 1
guess              SAP
}

optimize('b3lyp')
--------------------------------------------------------------------------

    Molecular point group: d2h
  Charge       = -1
  Multiplicity = 6
  Basis Set: CC-PVDZ
    Blend: CC-PVDZ
  Basis Set: (CC-PVDZ AUX)
    Blend: DEF2-UNIVERSAL-JKFIT
  @DF-UKS Final Energy:  -399.25092187251920
    Total Energy =                       -399.2509218725192000
 Dipole X            :          0.0000000            0.0000000            0.0000000
 Dipole Y            :          0.0000000            0.0000000            0.0000000
 Dipole Z            :          0.0000000            0.0000000            0.0000000
 Magnitude           :                                                    0.0000000
    Molecular point group: d2h
  Basis Set: CC-PVDZ
    Blend: CC-PVDZ
  Basis Set: (CC-PVDZ AUX)
    Blend: DEF2-UNIVERSAL-JKFIT
  Basis Set: CC-PVDZ
    Blend: CC-PVDZ
  Basis Set: (CC-PVDZ AUX)
    Blend: DEF2-UNIVERSAL-JKFIT
  @DF-UKS Final Energy:  -399.25858285616374
    Total Energy =                       -399.2585828561636845
  Basis Set: CC-PVDZ
    Blend: CC-PVDZ
  Basis Set: (CC-PVDZ AUX)
    Blend: DEF2-UNIVERSAL-JKFIT
  Basis Set: CC-PVDZ
    Blend: CC-PVDZ
  @DF-UKS Final Energy:  -399.27340482872114
    Total Energy =                       -399.2734048287211408
  @DF-UKS Final Energy:  -399.32754381687590
    Total Energy =                       -399.3275438168758456
  @DF-UKS Final Energy:  -399.58291547559884
    Total Energy =                       -399.5829154755988952
  @DF-UKS Final Energy:  -399.74073451697677
    Total Energy =                       -399.7407345169767154
  @DF-UKS Final Energy:  -399.86662083740089
    Total Energy =                       -399.8666208374008875
  @DF-UKS Final Energy:  -399.95419225952247
    Total Energy =                       -399.9541922595224719
  @DF-UKS Final Energy:  -400.00236404775114
    Total Energy =                       -400.0023640477512004
  @DF-UKS Final Energy:  -400.02466226392653
    Total Energy =                       -400.0246622639265865
  @DF-UKS Final Energy:  -400.03391868644712
    Total Energy =                       -400.0339186864471799
  @DF-UKS Final Energy:  -400.03712374727201
    Total Energy =                       -400.0371237472719486
  @DF-UKS Final Energy:  -400.03785966190799
    Total Energy =                       -400.0378596619079872
  @DF-UKS Final Energy:  -400.03793285760833
    Total Energy =                       -400.0379328576083253
  Basis Set: (CC-PVDZ AUX)
    Blend: DEF2-UNIVERSAL-JKFIT
  Basis Set: CC-PVDZ
    Blend: CC-PVDZ
  Basis Set: (CC-PVDZ AUX)
    Blend: DEF2-UNIVERSAL-JKFIT
  @DF-UKS Final Energy:  -400.03794075920405
    Total Energy =                       -400.0379407592040479
  Basis Set: CC-PVDZ
    Blend: CC-PVDZ
  Basis Set: (CC-PVDZ AUX)
    Blend: DEF2-UNIVERSAL-JKFIT
  Charge       = -1
  Multiplicity = 6
  Basis Set: CC-PVDZ
    Blend: CC-PVDZ
  Basis Set: (CC-PVDZ AUX)
    Blend: DEF2-UNIVERSAL-JKFIT

    Orbital Energies [Eh]
    ---------------------

    Alpha Occupied:

       1B2u  -46.702817     1Ag   -46.702816     2B2u   -2.983446
       2Ag    -2.983399     1B1u   -1.727151     1B3u   -1.727151
       1B3g   -1.727094     1B1g   -1.727094     3Ag    -1.727084
       3B2u   -1.726502     4Ag    -0.137694     4B2u   -0.057690
       5Ag     0.022110     2B1u    0.023508     2B3u    0.023508

    Alpha Virtual:

       2B3g    0.102367     2B1g    0.102367     5B2u    0.146522
       6Ag     0.201221     7Ag     0.232418     3B1u    0.261306
       3B3u    0.261306     6B2u    0.266154     3B1g    0.294181
       3B3g    0.294181     7B2u    0.349885     4B1u    0.373820
       4B3u    0.373820     1B2g    0.414772     8Ag     0.414773
       1Au     0.462986     8B2u    0.462987     9Ag     0.483591
       4B3g    0.561021     4B1g    0.561021     9B2u    0.721516

    Beta Occupied:

       1B2u  -46.698406     1Ag   -46.698405     2B2u   -2.976306
       2Ag    -2.976232     1B1u   -1.721349     1B3u   -1.721349
       1B3g   -1.721311     1B1g   -1.721311     3Ag    -1.719844
       3B2u   -1.719361

    Beta Virtual:

       4Ag    -0.004317     4B2u    0.053470     2B1u    0.121467
       2B3u    0.121467     5Ag     0.135656     2B3g    0.163539
       2B1g    0.163539     5B2u    0.195029     6Ag     0.253390
       7Ag     0.285112     3B1u    0.302961     3B3u    0.302961
       6B2u    0.313536     3B1g    0.331422     3B3g    0.331422
       7B2u    0.393840     4B1u    0.448095     4B3u    0.448095
       1B2g    0.474801     8Ag     0.474807     1Au     0.517496
       8B2u    0.517501     9Ag     0.546380     4B3g    0.617829
       4B1g    0.617829     9B2u    0.766259

    Final Occupation by Irrep:
             Ag   B1g   B2g   B3g    Au   B1u   B2u   B3u
    DOCC [     3,    1,    0,    1,    0,    1,    3,    1 ]
    SOCC [     2,    0,    0,    0,    0,    1,    1,    1 ]
    NA   [     5,    1,    0,    1,    0,    2,    4,    2 ]
    NB   [     3,    1,    0,    1,    0,    1,    3,    1 ]

  @DF-UKS Final Energy:  -400.03794096356251

   => Energetics <=

    Nuclear Repulsion Energy =             25.3980460305211189
    One-Electron Energy =                -612.3183211824059526
    Two-Electron Energy =                 213.5301724528377463
    DFT Exchange-Correlation Energy =     -26.6478382645153467
    Empirical Dispersion Energy =           0.0000000000000000
    VV10 Nonlocal Energy =                  0.0000000000000000
    Total Energy =                       -400.0379409635625052

  UHF NO Occupations:
  HONO-2 :    4 Ag 1.0000000
  HONO-1 :    2B3u 1.0000000
  HONO-0 :    5 Ag 1.0000000
  LUNO+0 :    2B3g 0.0000005
  LUNO+1 :    2B1g 0.0000005
  LUNO+2 :    6 Ag 0.0000003
  LUNO+3 :    5B2u 0.0000003

Computation Completed

Properties will be evaluated at   0.000000,   0.000000,   0.000000 [a0]

Properties computed using the SCF density matrix

 Multipole Moments:

 ------------------------------------------------------------------------------------
     Multipole            Electronic (a.u.)      Nuclear  (a.u.)        Total (a.u.)
 ------------------------------------------------------------------------------------

 L = 1.  Multiply by 2.5417464519 to convert [e a0] to [Debye]
 Dipole X            :          0.0000000            0.0000000            0.0000000
 Dipole Y            :          0.0000000            0.0000000            0.0000000
 Dipole Z            :          0.0000000            0.0000000            0.0000000
 Magnitude           :                                                    0.0000000

 ------------------------------------------------------------------------------------

*** tstop() called on Joses-MacBook-Pro-2.local at Thu Jul 17 11:23:08 2025
Module time:
	user time   =       4.87 seconds =       0.08 minutes
	system time =       3.46 seconds =       0.06 minutes
	total time  =          1 seconds =       0.02 minutes
Total time:
	user time   =     141.67 seconds =       2.36 minutes
	system time =     105.32 seconds =       1.76 minutes
	total time  =         24 seconds =       0.40 minutes

*** tstart() called on Joses-MacBook-Pro-2.local
*** at Thu Jul 17 11:23:08 2025

         ------------------------------------------------------------
                                   SCF GRAD
                          Rob Parrish, Justin Turney,
                       Andy Simmonett, and Alex Sokolov
         ------------------------------------------------------------

  ==> Geometry <==

    Molecular point group: d2h
    Full point group: D_inf_h

    Geometry (in Angstrom), charge = -1, multiplicity = 6:

       Center              X                  Y                   Z               Mass
    ------------   -----------------  -----------------  -----------------  -----------------
         MG          -0.000000000000     1.500145291589     0.000000000000    23.985041697000
         MG           0.000000000000    -1.500145291589     0.000000000000    23.985041697000

  Nuclear repulsion =   25.398046030521119

  ==> Basis Set <==

  Basis Set: CC-PVDZ
    Blend: CC-PVDZ
    Number of shells: 16
    Number of basis functions: 36
    Number of Cartesian functions: 38
    Spherical Harmonics?: true
    Max angular momentum: 2

  ==> DFJKGrad: Density-Fitted SCF Gradients <==

    Gradient:                    1
    J tasked:                  Yes
    K tasked:                  Yes
    wK tasked:                  No
    OpenMP threads:              1
    Integrals threads:           1
    Memory [MiB]:              375
    Schwarz Cutoff:          1E-12
    Fitting Condition:       1E-10

   => Auxiliary Basis Set <=

  Basis Set: (CC-PVDZ AUX)
    Blend: DEF2-UNIVERSAL-JKFIT
    Number of shells: 68
    Number of basis functions: 224
    Number of Cartesian functions: 274
    Spherical Harmonics?: true
    Max angular momentum: 4

  ==> DFT Potential <==

   => LibXC <=

    Version 6.2.2
    S. Lehtola, C. Steigemann, M. J.T. Oliveira, and M. A.L. Marques.,  SoftwareX 7, 1â€“5 (2018) (10.1016/j.softx.2017.11.002)

   => Composite Functional: B3LYP <=

    B3LYP Hyb-GGA Exchange-Correlation Functional

    P. J. Stephens, F. J. Devlin, C. F. Chabalowski, and M. J. Frisch.,  J. Phys. Chem. 98, 11623 (1994) (10.1021/j100096a001)

    Deriv               =              1
    GGA                 =           TRUE
    Meta                =          FALSE

    Exchange Hybrid     =           TRUE
    MP2 Hybrid          =          FALSE

   => Exchange Functionals <=

    0.0800   Slater exchange
    0.7200         Becke 88

   => Exact (HF) Exchange <=

    0.2000               HF

   => Correlation Functionals <=

    0.1900   Vosko, Wilk & Nusair (VWN5_RPA)
    0.8100   Lee, Yang & Parr

   => LibXC Density Thresholds  <==

    XC_HYB_GGA_XC_B3LYP:  1.00E-15

   => Molecular Quadrature <=

    Radial Scheme          =       TREUTLER
    Pruning Scheme         =           NONE
    Nuclear Scheme         =       TREUTLER

    Blocking Scheme        =         OCTREE
    BS radius alpha        =              1
    Pruning alpha          =              1
    Radial Points          =             75
    Spherical Points       =            302
    Total Points           =          42388
    Total Blocks           =            410
    Max Points             =            254
    Max Functions          =             36
    Weights Tolerance      =       1.00E-15

  -Total Gradient:
     Atom            X                  Y                   Z
    ------   -----------------  -----------------  -----------------
       1        0.000000000000    -0.000016464923     0.000000000000
       2       -0.000000000000     0.000016464923     0.000000000000

*** tstop() called on Joses-MacBook-Pro-2.local at Thu Jul 17 11:23:08 2025
Module time:
	user time   =       2.35 seconds =       0.04 minutes
	system time =       2.69 seconds =       0.04 minutes
	total time  =          0 seconds =       0.00 minutes
Total time:
	user time   =     144.02 seconds =       2.40 minutes
	system time =     108.01 seconds =       1.80 minutes
	total time  =         24 seconds =       0.40 minutes

    			-----------------------------------------

    			 OPTKING 3.0: for geometry optimizations

    			     By R.A. King, Bethel University

    			        with contributions from

    			    A.V. Copan, J. Cayton, A. Heide

    			-----------------------------------------

	                            ===> Fragment 1 <==

	 Z (Atomic Numbers)          Masses                          Geom
	      12.000000            23.985042         -0.00000000  2.83486375  0.00000000
	      12.000000            23.985042          0.00000000 -2.83486375  0.00000000

	 - Coordinate -           - BOHR/RAD -       - ANG/DEG -
	 R(1,2)           =         5.669727           3.000291

	        --- Internal Coordinate Step in ANG or DEG, aJ/ANG or AJ/DEG ---
	-------------------------------------------------------------------------------
	           Coordinate      Previous         Force          Change          New
	           ----------      --------        ------          ------        ------
	               R(1,2)       3.00029        0.00014        0.00037       3.00066
	-------------------------------------------------------------------------------

	                                 ==> Convergence Check <==

	Measures of convergence in internal coordinates in au.

	Criteria marked as inactive (o), active & met (*), and active & unmet ( ).

	----------------------------------------------------------------------------------------------
	   Step    Total Energy     Delta E     Max Force     RMS Force      Max Disp      RMS Disp
	----------------------------------------------------------------------------------------------
	  Convergence Criteria     1.00e-06 *    3.00e-04 *             o    1.20e-03 *             o
	----------------------------------------------------------------------------------------------
	    16    -400.03794096   -2.04e-07 *    1.65e-05 *    1.65e-05 o    6.95e-04 *    6.95e-04 o  ~
	----------------------------------------------------------------------------------------------

Next Geometry in Ang
	Fragment 1 (Ang)

	   Mg  -0.0000000000   1.5003290671   0.0000000000
	   Mg   0.0000000000  -1.5003290671   0.0000000000

    Final optimized geometry and variables:
    Molecular point group: d2h
    Full point group: D_inf_h

    Geometry (in Angstrom), charge = -1, multiplicity = 6:

    MG          -0.000000000000     1.500145291589     0.000000000000
    MG           0.000000000000    -1.500145291589     0.000000000000

    Psi4 stopped on: Thursday, 17 July 2025 11:23AM
    Psi4 wall time for execution: 0:00:25.35

*** Psi4 exiting successfully. Buy a developer a beer!
