                               Psi4 1.9.1 release

  ==> Input File <==

--------------------------------------------------------------------------
molecule {
-1 6
C   0.00000        0.60000        0.00000
O   0.00000       -0.60000        0.00000
}

set {
basis              cc-pvdz
reference          uks
maxiter            500
geom_maxiter       500
DAMPING_PERCENTAGE 1
guess              SAP
}

optimize('b3lyp')
--------------------------------------------------------------------------

    Molecular point group: c2v
  Charge       = -1
  Multiplicity = 6
  Basis Set: CC-PVDZ
    Blend: CC-PVDZ
  Basis Set: (CC-PVDZ AUX)
    Blend: CC-PVDZ-JKFIT
  @DF-UKS Final Energy:  -112.58786256066205
    Total Energy =                       -112.5878625606620460
 Dipole X            :          0.0000000            0.0000000            0.0000000
 Dipole Y            :          0.0000000            0.0000000            0.0000000
 Dipole Z            :         -1.0309019           -0.0024716           -1.0333735
 Magnitude           :                                                    1.0333735
    Molecular point group: c2v
  Basis Set: CC-PVDZ
    Blend: CC-PVDZ
  Basis Set: (CC-PVDZ AUX)
    Blend: CC-PVDZ-JKFIT
  Basis Set: CC-PVDZ
    Blend: CC-PVDZ
  Basis Set: (CC-PVDZ AUX)
    Blend: CC-PVDZ-JKFIT
  @DF-UKS Final Energy:  -112.69669842941362
    Total Energy =                       -112.6966984294136154
  Basis Set: CC-PVDZ
    Blend: CC-PVDZ
  Basis Set: (CC-PVDZ AUX)
    Blend: CC-PVDZ-JKFIT
  Basis Set: CC-PVDZ
    Blend: CC-PVDZ
  @DF-UKS Final Energy:  -112.82738438773430
    Total Energy =                       -112.8273843877342983
  @DF-UKS Final Energy:  -112.89143151847759
    Total Energy =                       -112.8914315184775887
  @DF-UKS Final Energy:  -112.91143373513128
    Total Energy =                       -112.9114337351312827
  @DF-UKS Final Energy:  -112.92466764740364
    Total Energy =                       -112.9246676474036377
  @DF-UKS Final Energy:  -112.93074240100246
    Total Energy =                       -112.9307424010024619
  @DF-UKS Final Energy:  -112.93374708187496
    Total Energy =                       -112.9337470818749551
  @DF-UKS Final Energy:  -112.93511599037272
    Total Energy =                       -112.9351159903727222
  @DF-UKS Final Energy:  -112.93565192447961
    Total Energy =                       -112.9356519244796146
  @DF-UKS Final Energy:  -112.93580278384354
    Total Energy =                       -112.9358027838435419
  @DF-UKS Final Energy:  -112.93582369270766
    Total Energy =                       -112.9358236927076575
  Basis Set: (CC-PVDZ AUX)
    Blend: CC-PVDZ-JKFIT
  Basis Set: CC-PVDZ
    Blend: CC-PVDZ
  Basis Set: (CC-PVDZ AUX)
    Blend: CC-PVDZ-JKFIT
  @DF-UKS Final Energy:  -112.93582716782225
    Total Energy =                       -112.9358271678222536
  Basis Set: CC-PVDZ
    Blend: CC-PVDZ
  Basis Set: (CC-PVDZ AUX)
    Blend: CC-PVDZ-JKFIT
  Charge       = -1
  Multiplicity = 6
  Basis Set: CC-PVDZ
    Blend: CC-PVDZ
  Basis Set: (CC-PVDZ AUX)
    Blend: CC-PVDZ-JKFIT

    Orbital Energies [Eh]
    ---------------------

    Alpha Occupied:

       1A1   -19.084712     2A1    -9.865885     3A1    -0.816994
       1B2    -0.257668     4A1    -0.252751     5A1    -0.213231
       1B1    -0.181430     2B2     0.112849     2B1     0.113129
       6A1     0.114677

    Alpha Virtual:

       7A1     0.767057     3B2     0.781959     3B1     0.782866
       8A1     0.853528     4B2     1.000022     4B1     1.047373
       9A1     1.067227    10A1     1.308704     1A2     1.488222
      11A1     1.488229     5B2     1.488427     5B1     1.488664
      12A1     1.504249     6B2     2.630355    13A1     2.632735
       2A2     2.683517     6B1     2.688649    14A1     2.706854

    Beta Occupied:

       1A1   -19.035589     2A1    -9.832791     3A1    -0.662330
       1B1    -0.130923     4A1    -0.068308

    Beta Virtual:

       1B2     0.021242     5A1     0.022615     2B2     0.293316
       2B1     0.293621     6A1     0.297224     7A1     0.861481
       3B1     0.872412     3B2     0.872522     8A1     0.938136
       4B1     1.077254     4B2     1.113416     9A1     1.167801
      10A1     1.392309     5B2     1.601626     1A2     1.601687
      11A1     1.601695     5B1     1.601842    12A1     1.615526
       2A2     2.774124     6B1     2.776695    13A1     2.782204
       6B2     2.800299    14A1     2.802992

    Final Occupation by Irrep:
             A1    A2    B1    B2
    DOCC [     4,    0,    1,    0 ]
    SOCC [     2,    0,    1,    2 ]
    NA   [     6,    0,    2,    2 ]
    NB   [     4,    0,    1,    0 ]

  @DF-UKS Final Energy:  -112.93582735502456

   => Energetics <=

    Nuclear Repulsion Energy =              8.1245089843922553
    One-Electron Energy =                -173.9072323371026698
    Two-Electron Energy =                  64.1791912510898612
    DFT Exchange-Correlation Energy =     -11.3322952534040144
    Empirical Dispersion Energy =           0.0000000000000000
    VV10 Nonlocal Energy =                  0.0000000000000000
    Total Energy =                       -112.9358273550245571

  UHF NO Occupations:
  HONO-2 :    5 A1 1.0000000
  HONO-1 :    2 B2 1.0000000
  HONO-0 :    6 A1 1.0000000
  LUNO+0 :    7 A1 0.0010831
  LUNO+1 :    8 A1 0.0006781
  LUNO+2 :    3 B1 0.0002501
  LUNO+3 :    9 A1 0.0000002

Computation Completed

Properties will be evaluated at   0.000000,   0.000000,   0.000000 [a0]

Properties computed using the SCF density matrix

 Multipole Moments:

 ------------------------------------------------------------------------------------
     Multipole            Electronic (a.u.)      Nuclear  (a.u.)        Total (a.u.)
 ------------------------------------------------------------------------------------

 L = 1.  Multiply by 2.5417464519 to convert [e a0] to [Debye]
 Dipole X            :          0.0000000            0.0000000            0.0000000
 Dipole Y            :          0.0000000            0.0000000            0.0000000
 Dipole Z            :         -3.0394032           -0.0064393           -3.0458425
 Magnitude           :                                                    3.0458425

 ------------------------------------------------------------------------------------

*** tstop() called on Joses-MacBook-Pro-2.local at Thu Jul 17 09:59:02 2025
Module time:
	user time   =       2.23 seconds =       0.04 minutes
	system time =       2.82 seconds =       0.05 minutes
	total time  =          0 seconds =       0.00 minutes
Total time:
	user time   =      55.28 seconds =       0.92 minutes
	system time =      62.19 seconds =       1.04 minutes
	total time  =         10 seconds =       0.17 minutes

*** tstart() called on Joses-MacBook-Pro-2.local
*** at Thu Jul 17 09:59:03 2025

         ------------------------------------------------------------
                                   SCF GRAD
                          Rob Parrish, Justin Turney,
                       Andy Simmonett, and Alex Sokolov
         ------------------------------------------------------------

  ==> Geometry <==

    Molecular point group: c2v
    Full point group: C_inf_v

    Geometry (in Angstrom), charge = -1, multiplicity = 6:

       Center              X                  Y                   Z               Mass
    ------------   -----------------  -----------------  -----------------  -----------------
         C            0.000000000000     0.000000000000     1.786273789493    12.000000000000
         O            0.000000000000     0.000000000000    -1.340131284458    15.994914619570

  Nuclear repulsion =    8.124508984392255

  ==> Basis Set <==

  Basis Set: CC-PVDZ
    Blend: CC-PVDZ
    Number of shells: 12
    Number of basis functions: 28
    Number of Cartesian functions: 30
    Spherical Harmonics?: true
    Max angular momentum: 2

  ==> DFJKGrad: Density-Fitted SCF Gradients <==

    Gradient:                    1
    J tasked:                  Yes
    K tasked:                  Yes
    wK tasked:                  No
    OpenMP threads:              1
    Integrals threads:           1
    Memory [MiB]:              375
    Schwarz Cutoff:          1E-12
    Fitting Condition:       1E-10

   => Auxiliary Basis Set <=

  Basis Set: (CC-PVDZ AUX)
    Blend: CC-PVDZ-JKFIT
    Number of shells: 48
    Number of basis functions: 140
    Number of Cartesian functions: 162
    Spherical Harmonics?: true
    Max angular momentum: 3

  ==> DFT Potential <==

   => LibXC <=

    Version 6.2.2
    S. Lehtola, C. Steigemann, M. J.T. Oliveira, and M. A.L. Marques.,  SoftwareX 7, 1â€“5 (2018) (10.1016/j.softx.2017.11.002)

   => Composite Functional: B3LYP <=

    B3LYP Hyb-GGA Exchange-Correlation Functional

    P. J. Stephens, F. J. Devlin, C. F. Chabalowski, and M. J. Frisch.,  J. Phys. Chem. 98, 11623 (1994) (10.1021/j100096a001)

    Deriv               =              1
    GGA                 =           TRUE
    Meta                =          FALSE

    Exchange Hybrid     =           TRUE
    MP2 Hybrid          =          FALSE

   => Exchange Functionals <=

    0.0800   Slater exchange
    0.7200         Becke 88

   => Exact (HF) Exchange <=

    0.2000               HF

   => Correlation Functionals <=

    0.1900   Vosko, Wilk & Nusair (VWN5_RPA)
    0.8100   Lee, Yang & Parr

   => LibXC Density Thresholds  <==

    XC_HYB_GGA_XC_B3LYP:  1.00E-15

   => Molecular Quadrature <=

    Radial Scheme          =       TREUTLER
    Pruning Scheme         =           NONE
    Nuclear Scheme         =       TREUTLER

    Blocking Scheme        =         OCTREE
    BS radius alpha        =              1
    Pruning alpha          =              1
    Radial Points          =             75
    Spherical Points       =            302
    Total Points           =          42939
    Total Blocks           =            383
    Max Points             =            252
    Max Functions          =             28
    Weights Tolerance      =       1.00E-15

  -Total Gradient:
     Atom            X                  Y                   Z
    ------   -----------------  -----------------  -----------------
       1        0.000000000000     0.000000000000    -0.000008890425
       2        0.000000000000     0.000000000000     0.000008832359

*** tstop() called on Joses-MacBook-Pro-2.local at Thu Jul 17 09:59:03 2025
Module time:
	user time   =       0.53 seconds =       0.01 minutes
	system time =       0.93 seconds =       0.02 minutes
	total time  =          0 seconds =       0.00 minutes
Total time:
	user time   =      55.81 seconds =       0.93 minutes
	system time =      63.12 seconds =       1.05 minutes
	total time  =         11 seconds =       0.18 minutes

    			-----------------------------------------

    			 OPTKING 3.0: for geometry optimizations

    			     By R.A. King, Bethel University

    			        with contributions from

    			    A.V. Copan, J. Cayton, A. Heide

    			-----------------------------------------

	                            ===> Fragment 1 <==

	 Z (Atomic Numbers)          Masses                          Geom
	       6.000000            12.000000          0.00000000  0.00000000  3.37556825
	       8.000000            15.994915          0.00000000  0.00000000 -2.53248110

	 - Coordinate -           - BOHR/RAD -       - ANG/DEG -
	 R(1,2)           =         5.908049           3.126405

	        --- Internal Coordinate Step in ANG or DEG, aJ/ANG or AJ/DEG ---
	-------------------------------------------------------------------------------
	           Coordinate      Previous         Force          Change          New
	           ----------      --------        ------          ------        ------
	               R(1,2)       3.12641        0.00007        0.00112       3.12753
	-------------------------------------------------------------------------------

	                                 ==> Convergence Check <==

	Measures of convergence in internal coordinates in au.

	Criteria marked as inactive (o), active & met (*), and active & unmet ( ).

	----------------------------------------------------------------------------------------------
	   Step    Total Energy     Delta E     Max Force     RMS Force      Max Disp      RMS Disp
	----------------------------------------------------------------------------------------------
	  Convergence Criteria     1.00e-06 *    3.00e-04 *             o    1.20e-03 *             o
	----------------------------------------------------------------------------------------------
	    14    -112.93582736   -1.87e-07 *    8.86e-06 *    8.86e-06 o    2.12e-03      2.12e-03 o  ~
	----------------------------------------------------------------------------------------------

Next Geometry in Ang
	Fragment 1 (Ang)

	    C   0.0000000000   0.0000000000   1.7868356937
	    O   0.0000000000   0.0000000000  -1.3406931887

    Final optimized geometry and variables:
    Molecular point group: c2v
    Full point group: C_inf_v

    Geometry (in Angstrom), charge = -1, multiplicity = 6:

    C            0.000000000000     0.000000000000     1.786273789493
    O            0.000000000000     0.000000000000    -1.340131284458

    Psi4 stopped on: Thursday, 17 July 2025 09:59AM
    Psi4 wall time for execution: 0:00:11.74

*** Psi4 exiting successfully. Buy a developer a beer!
