                               Psi4 1.9.1 release

  ==> Input File <==

--------------------------------------------------------------------------
molecule {
-1 6
O   0.00000        0.60000        0.00000
O   0.00000       -0.60000        0.00000
}

set {
basis              cc-pvdz
reference          uks
maxiter            500
geom_maxiter       500
DAMPING_PERCENTAGE 1
guess              SAP
}

optimize('b3lyp')
--------------------------------------------------------------------------

    Molecular point group: d2h
  Charge       = -1
  Multiplicity = 6
  Basis Set: CC-PVDZ
    Blend: CC-PVDZ
  Basis Set: (CC-PVDZ AUX)
    Blend: CC-PVDZ-JKFIT
  @DF-UKS Final Energy:  -148.92186403604015
    Total Energy =                       -148.9218640360401480
 Dipole X            :          0.0000000            0.0000000            0.0000000
 Dipole Y            :          0.0000000            0.0000000            0.0000000
 Dipole Z            :          0.0000000            0.0000000            0.0000000
 Magnitude           :                                                    0.0000000
    Molecular point group: d2h
  Basis Set: CC-PVDZ
    Blend: CC-PVDZ
  Basis Set: (CC-PVDZ AUX)
    Blend: CC-PVDZ-JKFIT
  Basis Set: CC-PVDZ
    Blend: CC-PVDZ
  Basis Set: (CC-PVDZ AUX)
    Blend: CC-PVDZ-JKFIT
  @DF-UKS Final Energy:  -149.14568250246319
    Total Energy =                       -149.1456825024631883
  Basis Set: CC-PVDZ
    Blend: CC-PVDZ
  Basis Set: (CC-PVDZ AUX)
    Blend: CC-PVDZ-JKFIT
  Basis Set: CC-PVDZ
    Blend: CC-PVDZ
  @DF-UKS Final Energy:  -149.16226676305786
    Total Energy =                       -149.1622667630578576
  @DF-UKS Final Energy:  -149.17156906086069
    Total Energy =                       -149.1715690608606906
  @DF-UKS Final Energy:  -149.17274492227929
    Total Energy =                       -149.1727449222792927
  @DF-UKS Final Energy:  -149.17292085605050
    Total Energy =                       -149.1729208560504958
  @DF-UKS Final Energy:  -149.17294934789783
    Total Energy =                       -149.1729493478977702
  Basis Set: (CC-PVDZ AUX)
    Blend: CC-PVDZ-JKFIT
  Basis Set: CC-PVDZ
    Blend: CC-PVDZ
  Basis Set: (CC-PVDZ AUX)
    Blend: CC-PVDZ-JKFIT
  @DF-UKS Final Energy:  -149.17295459587370
    Total Energy =                       -149.1729545958737333
  Basis Set: CC-PVDZ
    Blend: CC-PVDZ
  Basis Set: (CC-PVDZ AUX)
    Blend: CC-PVDZ-JKFIT
  Charge       = -1
  Multiplicity = 6
  Basis Set: CC-PVDZ
    Blend: CC-PVDZ
  Basis Set: (CC-PVDZ AUX)
    Blend: CC-PVDZ-JKFIT

    Orbital Energies [Eh]
    ---------------------

    Alpha Occupied:

       1B2u  -18.874851     1Ag   -18.874758     2Ag    -0.748502
       2B2u   -0.608222     3Ag    -0.202452     1B1u   -0.116689
       1B3u   -0.116689     1B3g   -0.030520     1B1g   -0.030520
       3B2u    0.056253     4B2u    1.021470

    Alpha Virtual:

       2B3u    1.097362     2B1u    1.097362     4Ag     1.213430
       2B1g    1.235676     2B3g    1.235676     5Ag     1.433312
       5B2u    1.809704     6Ag     2.541685     3B3u    2.680710
       3B1u    2.680710     7Ag     2.811366     1B2g    2.811372
       6B2u    2.846282     1Au     2.846288     3B1g    3.002031
       3B3g    3.002031     7B2u    3.633704

    Beta Occupied:

       1Ag   -18.807253     1B2u  -18.807247     2Ag    -0.590074
       2B2u   -0.420333     1B1u    0.020009     1B3u    0.020009

    Beta Virtual:

       3Ag     0.107170     1B3g    0.181057     1B1g    0.181057
       3B2u    0.386069     2B3u    1.189189     2B1u    1.189189
       4B2u    1.262946     2B1g    1.324179     2B3g    1.324179
       4Ag     1.407822     5Ag     1.535623     5B2u    1.903758
       6Ag     2.692984     3B3u    2.814447     3B1u    2.814447
       7Ag     2.911269     1B2g    2.911276     6B2u    2.948865
       1Au     2.948873     3B1g    3.139299     3B3g    3.139299
       7B2u    3.777306

    Final Occupation by Irrep:
             Ag   B1g   B2g   B3g    Au   B1u   B2u   B3u
    DOCC [     2,    0,    0,    0,    0,    1,    2,    1 ]
    SOCC [     1,    1,    0,    1,    0,    0,    2,    0 ]
    NA   [     3,    1,    0,    1,    0,    1,    4,    1 ]
    NB   [     2,    0,    0,    0,    0,    1,    2,    1 ]

  @DF-UKS Final Energy:  -149.17295509229083

   => Energetics <=

    Nuclear Repulsion Energy =             20.3655867796895116
    One-Electron Energy =                -251.8688551490971292
    Two-Electron Energy =                  96.3950961930176220
    DFT Exchange-Correlation Energy =     -14.0647829159008459
    Empirical Dispersion Energy =           0.0000000000000000
    VV10 Nonlocal Energy =                  0.0000000000000000
    Total Energy =                       -149.1729550922908345

  UHF NO Occupations:
  HONO-2 :    1B1g 1.0000000
  HONO-1 :    3 Ag 1.0000000
  HONO-0 :    4B2u 1.0000000
  LUNO+0 :    2B3u 0.0025151
  LUNO+1 :    2B1u 0.0025151
  LUNO+2 :    4 Ag 0.0007886
  LUNO+3 :    5B2u 0.0004809

Computation Completed

Properties will be evaluated at   0.000000,   0.000000,   0.000000 [a0]

Properties computed using the SCF density matrix

 Multipole Moments:

 ------------------------------------------------------------------------------------
     Multipole            Electronic (a.u.)      Nuclear  (a.u.)        Total (a.u.)
 ------------------------------------------------------------------------------------

 L = 1.  Multiply by 2.5417464519 to convert [e a0] to [Debye]
 Dipole X            :          0.0000000            0.0000000            0.0000000
 Dipole Y            :          0.0000000            0.0000000            0.0000000
 Dipole Z            :          0.0000000            0.0000000            0.0000000
 Magnitude           :                                                    0.0000000

 ------------------------------------------------------------------------------------

*** tstop() called on Joses-MacBook-Pro-2.local at Thu Jul 17 10:38:37 2025
Module time:
	user time   =       1.94 seconds =       0.03 minutes
	system time =       3.33 seconds =       0.06 minutes
	total time  =          0 seconds =       0.00 minutes
Total time:
	user time   =      33.42 seconds =       0.56 minutes
	system time =      42.56 seconds =       0.71 minutes
	total time  =          7 seconds =       0.12 minutes

*** tstart() called on Joses-MacBook-Pro-2.local
*** at Thu Jul 17 10:38:37 2025

         ------------------------------------------------------------
                                   SCF GRAD
                          Rob Parrish, Justin Turney,
                       Andy Simmonett, and Alex Sokolov
         ------------------------------------------------------------

  ==> Geometry <==

    Molecular point group: d2h
    Full point group: D_inf_h

    Geometry (in Angstrom), charge = -1, multiplicity = 6:

       Center              X                  Y                   Z               Mass
    ------------   -----------------  -----------------  -----------------  -----------------
         O           -0.000000000000     0.831484549138     0.000000000000    15.994914619570
         O            0.000000000000    -0.831484549138     0.000000000000    15.994914619570

  Nuclear repulsion =   20.365586779689512

  ==> Basis Set <==

  Basis Set: CC-PVDZ
    Blend: CC-PVDZ
    Number of shells: 12
    Number of basis functions: 28
    Number of Cartesian functions: 30
    Spherical Harmonics?: true
    Max angular momentum: 2

  ==> DFJKGrad: Density-Fitted SCF Gradients <==

    Gradient:                    1
    J tasked:                  Yes
    K tasked:                  Yes
    wK tasked:                  No
    OpenMP threads:              1
    Integrals threads:           1
    Memory [MiB]:              375
    Schwarz Cutoff:          1E-12
    Fitting Condition:       1E-10

   => Auxiliary Basis Set <=

  Basis Set: (CC-PVDZ AUX)
    Blend: CC-PVDZ-JKFIT
    Number of shells: 48
    Number of basis functions: 140
    Number of Cartesian functions: 162
    Spherical Harmonics?: true
    Max angular momentum: 3

  ==> DFT Potential <==

   => LibXC <=

    Version 6.2.2
    S. Lehtola, C. Steigemann, M. J.T. Oliveira, and M. A.L. Marques.,  SoftwareX 7, 1â€“5 (2018) (10.1016/j.softx.2017.11.002)

   => Composite Functional: B3LYP <=

    B3LYP Hyb-GGA Exchange-Correlation Functional

    P. J. Stephens, F. J. Devlin, C. F. Chabalowski, and M. J. Frisch.,  J. Phys. Chem. 98, 11623 (1994) (10.1021/j100096a001)

    Deriv               =              1
    GGA                 =           TRUE
    Meta                =          FALSE

    Exchange Hybrid     =           TRUE
    MP2 Hybrid          =          FALSE

   => Exchange Functionals <=

    0.0800   Slater exchange
    0.7200         Becke 88

   => Exact (HF) Exchange <=

    0.2000               HF

   => Correlation Functionals <=

    0.1900   Vosko, Wilk & Nusair (VWN5_RPA)
    0.8100   Lee, Yang & Parr

   => LibXC Density Thresholds  <==

    XC_HYB_GGA_XC_B3LYP:  1.00E-15

   => Molecular Quadrature <=

    Radial Scheme          =       TREUTLER
    Pruning Scheme         =           NONE
    Nuclear Scheme         =       TREUTLER

    Blocking Scheme        =         OCTREE
    BS radius alpha        =              1
    Pruning alpha          =              1
    Radial Points          =             75
    Spherical Points       =            302
    Total Points           =          41516
    Total Blocks           =            382
    Max Points             =            252
    Max Functions          =             28
    Weights Tolerance      =       1.00E-15

  -Total Gradient:
     Atom            X                  Y                   Z
    ------   -----------------  -----------------  -----------------
       1        0.000000000000    -0.000066118022    -0.000000000000
       2       -0.000000000000     0.000066118022    -0.000000000000

*** tstop() called on Joses-MacBook-Pro-2.local at Thu Jul 17 10:38:37 2025
Module time:
	user time   =       0.85 seconds =       0.01 minutes
	system time =       1.00 seconds =       0.02 minutes
	total time  =          0 seconds =       0.00 minutes
Total time:
	user time   =      34.28 seconds =       0.57 minutes
	system time =      43.56 seconds =       0.73 minutes
	total time  =          7 seconds =       0.12 minutes

    			-----------------------------------------

    			 OPTKING 3.0: for geometry optimizations

    			     By R.A. King, Bethel University

    			        with contributions from

    			    A.V. Copan, J. Cayton, A. Heide

    			-----------------------------------------

	                            ===> Fragment 1 <==

	 Z (Atomic Numbers)          Masses                          Geom
	       8.000000            15.994915         -0.00000000  1.57127808  0.00000000
	       8.000000            15.994915          0.00000000 -1.57127808  0.00000000

	 - Coordinate -           - BOHR/RAD -       - ANG/DEG -
	 R(1,2)           =         3.142556           1.662969

	        --- Internal Coordinate Step in ANG or DEG, aJ/ANG or AJ/DEG ---
	-------------------------------------------------------------------------------
	           Coordinate      Previous         Force          Change          New
	           ----------      --------        ------          ------        ------
	               R(1,2)       1.66297        0.00054        0.00012       1.66309
	-------------------------------------------------------------------------------

	                                 ==> Convergence Check <==

	Measures of convergence in internal coordinates in au.

	Criteria marked as inactive (o), active & met (*), and active & unmet ( ).

	----------------------------------------------------------------------------------------------
	   Step    Total Energy     Delta E     Max Force     RMS Force      Max Disp      RMS Disp
	----------------------------------------------------------------------------------------------
	  Convergence Criteria     1.00e-06 *    3.00e-04 *             o    1.20e-03 *             o
	----------------------------------------------------------------------------------------------
	     9    -149.17295509   -4.96e-07 *    6.61e-05 *    6.61e-05 o    2.32e-04 *    2.32e-04 o  ~
	----------------------------------------------------------------------------------------------

Next Geometry in Ang
	Fragment 1 (Ang)

	    O  -0.0000000000   0.8315459661   0.0000000000
	    O   0.0000000000  -0.8315459661   0.0000000000

    Final optimized geometry and variables:
    Molecular point group: d2h
    Full point group: D_inf_h

    Geometry (in Angstrom), charge = -1, multiplicity = 6:

    O           -0.000000000000     0.831484549138     0.000000000000
    O            0.000000000000    -0.831484549138     0.000000000000

    Psi4 stopped on: Thursday, 17 July 2025 10:38AM
    Psi4 wall time for execution: 0:00:08.47

*** Psi4 exiting successfully. Buy a developer a beer!
