                               Psi4 1.9.1 release

  ==> Input File <==

--------------------------------------------------------------------------
molecule {
-1 6
N   0.00000        0.60000        0.00000
P   0.00000       -0.60000        0.00000
}

set {
basis              cc-pvdz
reference          uks
maxiter            500
geom_maxiter       500
DAMPING_PERCENTAGE 1
guess              SAP
}

optimize('b3lyp')
--------------------------------------------------------------------------

    Molecular point group: c2v
  Charge       = -1
  Multiplicity = 6
  Basis Set: CC-PVDZ
    Blend: CC-PVDZ
  Basis Set: (CC-PVDZ AUX)
    Blend: CC-PVDZ-JKFIT
  @DF-UKS Final Energy:  -395.25831714609308
    Total Energy =                       -395.2583171460930771
 Dipole X            :          0.0000000            0.0000000            0.0000000
 Dipole Y            :          0.0000000            0.0000000            0.0000000
 Dipole Z            :          0.0761116            0.3413456            0.4174571
 Magnitude           :                                                    0.4174571
    Molecular point group: c2v
  Basis Set: CC-PVDZ
    Blend: CC-PVDZ
  Basis Set: (CC-PVDZ AUX)
    Blend: CC-PVDZ-JKFIT
  Basis Set: CC-PVDZ
    Blend: CC-PVDZ
  Basis Set: (CC-PVDZ AUX)
    Blend: CC-PVDZ-JKFIT
  @DF-UKS Final Energy:  -395.49512912136601
    Total Energy =                       -395.4951291213660625
  Basis Set: CC-PVDZ
    Blend: CC-PVDZ
  Basis Set: (CC-PVDZ AUX)
    Blend: CC-PVDZ-JKFIT
  Basis Set: CC-PVDZ
    Blend: CC-PVDZ
  @DF-UKS Final Energy:  -395.64273783282181
    Total Energy =                       -395.6427378328217515
  @DF-UKS Final Energy:  -395.71141250191636
    Total Energy =                       -395.7114125019163566
  @DF-UKS Final Energy:  -395.76793744050730
    Total Energy =                       -395.7679374405072963
  @DF-UKS Final Energy:  -395.81985438478694
    Total Energy =                       -395.8198543847869928
  @DF-UKS Final Energy:  -395.85326684781080
    Total Energy =                       -395.8532668478108008
  @DF-UKS Final Energy:  -395.85700427543537
    Total Energy =                       -395.8570042754353722
  @DF-UKS Final Energy:  -395.87077548797726
    Total Energy =                       -395.8707754879772551
  @DF-UKS Final Energy:  -395.87164163558856
    Total Energy =                       -395.8716416355886167
  @DF-UKS Final Energy:  -395.87743241193908
    Total Energy =                       -395.8774324119390826
  @DF-UKS Final Energy:  -395.87975286522311
    Total Energy =                       -395.8797528652231108
  @DF-UKS Final Energy:  -395.88121958002489
    Total Energy =                       -395.8812195800248901
  @DF-UKS Final Energy:  -395.88221161615286
    Total Energy =                       -395.8822116161529152
  @DF-UKS Final Energy:  -395.88310014662466
    Total Energy =                       -395.8831001466245993
  @DF-UKS Final Energy:  -395.88310999579227
    Total Energy =                       -395.8831099957922675
  @DF-UKS Final Energy:  -395.88311984036102
    Total Energy =                       -395.8831198403610188
  @DF-UKS Final Energy:  -395.88312967793468
    Total Energy =                       -395.8831296779346758
  @DF-UKS Final Energy:  -395.88313950894434
    Total Energy =                       -395.8831395089442822
  @DF-UKS Final Energy:  -395.88441482625575
    Total Energy =                       -395.8844148262556928
  @DF-UKS Final Energy:  -395.89835429363370
    Total Energy =                       -395.8983542936337017
  @DF-UKS Final Energy:  -395.89835536648906
    Total Energy =                       -395.8983553664890565
  @DF-UKS Final Energy:  -395.89835644243783
    Total Energy =                       -395.8983564424378869
  @DF-UKS Final Energy:  -395.89835751872437
    Total Energy =                       -395.8983575187243105
  @DF-UKS Final Energy:  -395.89835859384488
    Total Energy =                       -395.8983585938449323
  @DF-UKS Final Energy:  -395.89835966892986
    Total Energy =                       -395.8983596689298565
  @DF-UKS Final Energy:  -395.89836074310966
    Total Energy =                       -395.8983607431096630
  @DF-UKS Final Energy:  -395.89836181704737
    Total Energy =                       -395.8983618170473733
  @DF-UKS Final Energy:  -395.89836289026300
    Total Energy =                       -395.8983628902630016
  @DF-UKS Final Energy:  -395.89836396309300
    Total Energy =                       -395.8983639630930043
  @DF-UKS Final Energy:  -395.89836503531450
    Total Energy =                       -395.8983650353145549
  @DF-UKS Final Energy:  -395.89836610705737
    Total Energy =                       -395.8983661070573703
  @DF-UKS Final Energy:  -395.89836717825023
    Total Energy =                       -395.8983671782502256
  @DF-UKS Final Energy:  -395.89836824893649
    Total Energy =                       -395.8983682489364355
  @DF-UKS Final Energy:  -395.89836931909070
    Total Energy =                       -395.8983693190907047
  @DF-UKS Final Energy:  -395.89837038874089
    Total Energy =                       -395.8983703887408865
  @DF-UKS Final Energy:  -395.89837145784435
    Total Energy =                       -395.8983714578443482
  @DF-UKS Final Energy:  -395.89837252645128
    Total Energy =                       -395.8983725264512259
  Basis Set: (CC-PVDZ AUX)
    Blend: CC-PVDZ-JKFIT
  Basis Set: CC-PVDZ
    Blend: CC-PVDZ
  Basis Set: (CC-PVDZ AUX)
    Blend: CC-PVDZ-JKFIT
  @DF-UKS Final Energy:  -395.89855544033054
    Total Energy =                       -395.8985554403305400
  Basis Set: CC-PVDZ
    Blend: CC-PVDZ
  Basis Set: (CC-PVDZ AUX)
    Blend: CC-PVDZ-JKFIT
  Charge       = -1
  Multiplicity = 6
  Basis Set: CC-PVDZ
    Blend: CC-PVDZ
  Basis Set: (CC-PVDZ AUX)
    Blend: CC-PVDZ-JKFIT

    Orbital Energies [Eh]
    ---------------------

    Alpha Occupied:

       1A1   -76.883844     2A1   -14.216479     3A1    -6.350909
       1B1    -4.516638     4A1    -4.516637     1B2    -4.507677
       5A1    -0.595051     6A1    -0.366582     2B1    -0.149367
       7A1    -0.149339     2B2    -0.127339     3B1    -0.049476
       8A1    -0.049434     3B2    -0.024273

    Alpha Virtual:

       9A1     0.524231     4B1     0.589588    10A1     0.589656
       4B2     0.607604     5B1     0.644073    11A1     0.644073
       1A2     0.664554     5B2     0.664575    12A1     0.671819
       6B1     0.827886    13A1     0.827942     6B2     0.842465
      14A1     0.949866     7B1     1.870148    15A1     1.870148
       2A2     1.887083     7B2     1.887100    16A1     1.892827

    Beta Occupied:

       1A1   -76.875266     2A1   -14.169601     3A1    -6.341812
       1B1    -4.500997     4A1    -4.500994     1B2    -4.498524
       5A1    -0.426355     6A1    -0.278424     2B2     0.037065

    Beta Virtual:

       3B2     0.043353     2B1     0.084861     7A1     0.084911
       3B1     0.089708     8A1     0.089747     9A1     0.560263
       4B2     0.633206     4B1     0.637983    10A1     0.638049
       1A2     0.728117     5B2     0.728140    11A1     0.728714
       5B1     0.735995    12A1     0.735995     6B2     0.921087
       6B1     0.936015    13A1     0.936068    14A1     1.039114
      15A1     2.004983     2A2     2.005192     7B2     2.005210
       7B1     2.015172    16A1     2.015172

    Final Occupation by Irrep:
             A1    A2    B1    B2
    DOCC [     6,    0,    1,    2 ]
    SOCC [     2,    0,    2,    1 ]
    NA   [     8,    0,    3,    3 ]
    NB   [     6,    0,    1,    2 ]

  @DF-UKS Final Energy:  -395.89855641603367

   => Energetics <=

    Nuclear Repulsion Energy =              3.3079559584093516
    One-Electron Energy =                -556.9609696322775108
    Two-Electron Energy =                 182.1274037984989604
    DFT Exchange-Correlation Energy =     -24.3729465406644827
    Empirical Dispersion Energy =           0.0000000000000000
    VV10 Nonlocal Energy =                  0.0000000000000000
    Total Energy =                       -395.8985564160336708

  UHF NO Occupations:
  HONO-2 :    3 B2 1.0000000
  HONO-1 :    3 B1 1.0000000
  HONO-0 :    8 A1 1.0000000
  LUNO+0 :    4 B2 0.0012723
  LUNO+1 :    9 A1 0.0007781
  LUNO+2 :   10 A1 0.0004964
  LUNO+3 :   11 A1 0.0000000

Computation Completed

Properties will be evaluated at   0.000000,   0.000000,   0.000000 [a0]

Properties computed using the SCF density matrix

 Multipole Moments:

 ------------------------------------------------------------------------------------
     Multipole            Electronic (a.u.)      Nuclear  (a.u.)        Total (a.u.)
 ------------------------------------------------------------------------------------

 L = 1.  Multiply by 2.5417464519 to convert [e a0] to [Debye]
 Dipole X            :          0.0000000            0.0000000            0.0000000
 Dipole Y            :          0.0000000            0.0000000            0.0000000
 Dipole Z            :         -6.5074197            4.7779732           -1.7294465
 Magnitude           :                                                    1.7294465

 ------------------------------------------------------------------------------------

*** tstop() called on Joses-MacBook-Pro-2.local at Thu Jul 17 10:35:28 2025
Module time:
	user time   =       2.71 seconds =       0.05 minutes
	system time =       2.43 seconds =       0.04 minutes
	total time  =          0 seconds =       0.00 minutes
Total time:
	user time   =    1088.71 seconds =      18.15 minutes
	system time =     978.47 seconds =      16.31 minutes
	total time  =        205 seconds =       3.42 minutes

*** tstart() called on Joses-MacBook-Pro-2.local
*** at Thu Jul 17 10:35:28 2025

         ------------------------------------------------------------
                                   SCF GRAD
                          Rob Parrish, Justin Turney,
                       Andy Simmonett, and Alex Sokolov
         ------------------------------------------------------------

  ==> Geometry <==

    Molecular point group: c2v
    Full point group: C_inf_v

    Geometry (in Angstrom), charge = -1, multiplicity = 6:

       Center              X                  Y                   Z               Mass
    ------------   -----------------  -----------------  -----------------  -----------------
         N            0.000000000000     0.000000000000    11.567400412859    14.003074004430
         P            0.000000000000     0.000000000000    -5.229560556073    30.973761998420

  Nuclear repulsion =    3.307955958409352

  ==> Basis Set <==

  Basis Set: CC-PVDZ
    Blend: CC-PVDZ
    Number of shells: 14
    Number of basis functions: 32
    Number of Cartesian functions: 34
    Spherical Harmonics?: true
    Max angular momentum: 2

  ==> DFJKGrad: Density-Fitted SCF Gradients <==

    Gradient:                    1
    J tasked:                  Yes
    K tasked:                  Yes
    wK tasked:                  No
    OpenMP threads:              1
    Integrals threads:           1
    Memory [MiB]:              375
    Schwarz Cutoff:          1E-12
    Fitting Condition:       1E-10

   => Auxiliary Basis Set <=

  Basis Set: (CC-PVDZ AUX)
    Blend: CC-PVDZ-JKFIT
    Number of shells: 60
    Number of basis functions: 182
    Number of Cartesian functions: 211
    Spherical Harmonics?: true
    Max angular momentum: 3

  ==> DFT Potential <==

   => LibXC <=

    Version 6.2.2
    S. Lehtola, C. Steigemann, M. J.T. Oliveira, and M. A.L. Marques.,  SoftwareX 7, 1â€“5 (2018) (10.1016/j.softx.2017.11.002)

   => Composite Functional: B3LYP <=

    B3LYP Hyb-GGA Exchange-Correlation Functional

    P. J. Stephens, F. J. Devlin, C. F. Chabalowski, and M. J. Frisch.,  J. Phys. Chem. 98, 11623 (1994) (10.1021/j100096a001)

    Deriv               =              1
    GGA                 =           TRUE
    Meta                =          FALSE

    Exchange Hybrid     =           TRUE
    MP2 Hybrid          =          FALSE

   => Exchange Functionals <=

    0.0800   Slater exchange
    0.7200         Becke 88

   => Exact (HF) Exchange <=

    0.2000               HF

   => Correlation Functionals <=

    0.1900   Vosko, Wilk & Nusair (VWN5_RPA)
    0.8100   Lee, Yang & Parr

   => LibXC Density Thresholds  <==

    XC_HYB_GGA_XC_B3LYP:  1.00E-15

   => Molecular Quadrature <=

    Radial Scheme          =       TREUTLER
    Pruning Scheme         =           NONE
    Nuclear Scheme         =       TREUTLER

    Blocking Scheme        =         OCTREE
    BS radius alpha        =              1
    Pruning alpha          =              1
    Radial Points          =             75
    Spherical Points       =            302
    Total Points           =          42089
    Total Blocks           =            435
    Max Points             =            252
    Max Functions          =             18
    Weights Tolerance      =       1.00E-15

  -Total Gradient:
     Atom            X                  Y                   Z
    ------   -----------------  -----------------  -----------------
       1        0.000000000000     0.000000000000    -0.000184040339
       2        0.000000000000     0.000000000000     0.000183448337

*** tstop() called on Joses-MacBook-Pro-2.local at Thu Jul 17 10:35:28 2025
Module time:
	user time   =       0.68 seconds =       0.01 minutes
	system time =       0.86 seconds =       0.01 minutes
	total time  =          0 seconds =       0.00 minutes
Total time:
	user time   =    1089.39 seconds =      18.16 minutes
	system time =     979.33 seconds =      16.32 minutes
	total time  =        205 seconds =       3.42 minutes

    			-----------------------------------------

    			 OPTKING 3.0: for geometry optimizations

    			     By R.A. King, Bethel University

    			        with contributions from

    			    A.V. Copan, J. Cayton, A. Heide

    			-----------------------------------------

	                            ===> Fragment 1 <==

	 Z (Atomic Numbers)          Masses                          Geom
	       7.000000            14.003074          0.00000000   0.00000000  21.85921876
	      15.000000            30.973762          0.00000000  0.00000000 -9.88243721

	 - Coordinate -           - BOHR/RAD -       - ANG/DEG -
	 R(1,2)           =        31.741656          16.796961

	        --- Internal Coordinate Step in ANG or DEG, aJ/ANG or AJ/DEG ---
	-------------------------------------------------------------------------------
	           Coordinate      Previous         Force          Change          New
	           ----------      --------        ------          ------        ------
	               R(1,2)      16.79696        0.00151        0.00283      16.79979
	-------------------------------------------------------------------------------

	                                 ==> Convergence Check <==

	Measures of convergence in internal coordinates in au.

	Criteria marked as inactive (o), active & met (*), and active & unmet ( ).

	----------------------------------------------------------------------------------------------
	   Step    Total Energy     Delta E     Max Force     RMS Force      Max Disp      RMS Disp
	----------------------------------------------------------------------------------------------
	  Convergence Criteria     1.00e-06 *    3.00e-04 *             o    1.20e-03 *             o
	----------------------------------------------------------------------------------------------
	   223    -395.89855642   -9.76e-07 *    1.84e-04 *    1.84e-04 o    5.35e-03      5.35e-03 o  ~
	----------------------------------------------------------------------------------------------

Next Geometry in Ang
	Fragment 1 (Ang)

	    N   0.0000000000   0.0000000000  11.5688148877
	    P   0.0000000000   0.0000000000  -5.2309750309

    Final optimized geometry and variables:
    Molecular point group: c2v
    Full point group: C_inf_v

    Geometry (in Angstrom), charge = -1, multiplicity = 6:

    N            0.000000000000     0.000000000000    11.567400412859
    P            0.000000000000     0.000000000000    -5.229560556073

    Psi4 stopped on: Thursday, 17 July 2025 10:35AM
    Psi4 wall time for execution: 0:03:25.90

*** Psi4 exiting successfully. Buy a developer a beer!
