                               Psi4 1.9.1 release

  ==> Input File <==

--------------------------------------------------------------------------
molecule {
-1 6
Na   0.00000        0.60000        0.00000
Cl   0.00000       -0.60000        0.00000
}

set {
basis              cc-pvdz
reference          uks
maxiter            500
geom_maxiter       500
DAMPING_PERCENTAGE 1
guess              SAP
}

optimize('b3lyp')
--------------------------------------------------------------------------

    Molecular point group: c2v
  Charge       = -1
  Multiplicity = 6
  Basis Set: CC-PVDZ
    Blend: CC-PVDZ
  Basis Set: (CC-PVDZ AUX)
    Blend: CC-PVDZ-JKFIT + DEF2-UNIVERSAL-JKFIT
  @DF-UKS Final Energy:  -621.00309952935356
    Total Energy =                       -621.0030995293535625
 Dipole X            :          0.0000000            0.0000000            0.0000000
 Dipole Y            :          0.0000000            0.0000000            0.0000000
 Dipole Z            :         -2.5975270           -0.2413546           -2.8388816
 Magnitude           :                                                    2.8388816
    Molecular point group: c2v
  Basis Set: CC-PVDZ
    Blend: CC-PVDZ
  Basis Set: (CC-PVDZ AUX)
    Blend: CC-PVDZ-JKFIT + DEF2-UNIVERSAL-JKFIT
  Basis Set: CC-PVDZ
    Blend: CC-PVDZ
  Basis Set: (CC-PVDZ AUX)
    Blend: CC-PVDZ-JKFIT + DEF2-UNIVERSAL-JKFIT
  @DF-UKS Final Energy:  -621.01958337034171
    Total Energy =                       -621.0195833703417065
  Basis Set: CC-PVDZ
    Blend: CC-PVDZ
  Basis Set: (CC-PVDZ AUX)
    Blend: CC-PVDZ-JKFIT + DEF2-UNIVERSAL-JKFIT
  Basis Set: CC-PVDZ
    Blend: CC-PVDZ
  @DF-UKS Final Energy:  -621.05123752239524
    Total Energy =                       -621.0512375223953541
  @DF-UKS Final Energy:  -621.16433393928889
    Total Energy =                       -621.1643339392888947
  @DF-UKS Final Energy:  -621.61666360218487
    Total Energy =                       -621.6166636021848717
  @DF-UKS Final Energy:  -621.79745690297648
    Total Energy =                       -621.7974569029765917
  @DF-UKS Final Energy:  -621.91059586185679
    Total Energy =                       -621.9105958618567911
  @DF-UKS Final Energy:  -621.97577417675302
    Total Energy =                       -621.9757741767531343
  @DF-UKS Final Energy:  -622.01405080458085
    Total Energy =                       -622.0140508045808474
  @DF-UKS Final Energy:  -622.03798213895732
    Total Energy =                       -622.0379821389573181
  @DF-UKS Final Energy:  -622.05308543330102
    Total Energy =                       -622.0530854333010211
  @DF-UKS Final Energy:  -622.06164235247218
    Total Energy =                       -622.0616423524721768
  @DF-UKS Final Energy:  -622.06521051851075
    Total Energy =                       -622.0652105185107530
  @DF-UKS Final Energy:  -622.06601932883984
    Total Energy =                       -622.0660193288398432
  Basis Set: (CC-PVDZ AUX)
    Blend: CC-PVDZ-JKFIT + DEF2-UNIVERSAL-JKFIT
  Basis Set: CC-PVDZ
    Blend: CC-PVDZ
  Basis Set: (CC-PVDZ AUX)
    Blend: CC-PVDZ-JKFIT + DEF2-UNIVERSAL-JKFIT
  @DF-UKS Final Energy:  -622.06607870340167
    Total Energy =                       -622.0660787034016721
  Basis Set: CC-PVDZ
    Blend: CC-PVDZ
  Basis Set: (CC-PVDZ AUX)
    Blend: CC-PVDZ-JKFIT + DEF2-UNIVERSAL-JKFIT
  Charge       = -1
  Multiplicity = 6
  Basis Set: CC-PVDZ
    Blend: CC-PVDZ
  Basis Set: (CC-PVDZ AUX)
    Blend: CC-PVDZ-JKFIT + DEF2-UNIVERSAL-JKFIT

    Orbital Energies [Eh]
    ---------------------

    Alpha Occupied:

       1A1  -101.797447     2A1   -38.349508     3A1    -9.703497
       4A1    -7.472758     1B1    -7.472554     1B2    -7.446437
       5A1    -2.095481     6A1    -1.028751     2B1    -1.025583
       2B2    -1.025557     7A1    -1.014018     8A1    -0.539247
       3B1    -0.536667     3B2    -0.477977     9A1    -0.021745
       4B1     0.049510     4B2     0.051646

    Alpha Virtual:

      10A1     0.073571    11A1     0.130611     5B1     0.174901
       5B2     0.177418    12A1     0.186295     6B1     0.265727
       6B2     0.270009    13A1     0.285523     1A2     0.286649
      14A1     0.287009     7B1     0.456035    15A1     0.460506
       7B2     0.489134    16A1     0.514683     8B1     0.527001
       2A2     0.538990    17A1     0.556971     8B2     0.566292
      18A1     0.776040

    Beta Occupied:

       1A1  -101.781752     2A1   -38.348023     3A1    -9.687959
       4A1    -7.443419     1B1    -7.442934     1B2    -7.436801
       5A1    -2.092749     6A1    -1.026797     2B2    -1.023326
       2B1    -1.023320     7A1    -0.899900     3B2    -0.442082

    Beta Virtual:

       8A1    -0.348347     3B1    -0.345017     9A1     0.055615
      10A1     0.091417     4B2     0.117544     4B1     0.118026
      11A1     0.169263    12A1     0.200020     5B1     0.212492
       5B2     0.212830     6B2     0.293967     6B1     0.295105
      13A1     0.312423     1A2     0.330286    14A1     0.330357
       7B2     0.510285     7B1     0.513322    15A1     0.515099
       2A2     0.608567    16A1     0.613835    17A1     0.624089
       8B2     0.629448     8B1     0.641847    18A1     0.823521

    Final Occupation by Irrep:
             A1    A2    B1    B2
    DOCC [     7,    0,    2,    3 ]
    SOCC [     2,    0,    2,    1 ]
    NA   [     9,    0,    4,    4 ]
    NB   [     7,    0,    2,    3 ]

  @DF-UKS Final Energy:  -622.06607935900968

   => Energetics <=

    Nuclear Repulsion Energy =             30.0407824997494117
    One-Electron Energy =                -921.2689358565343127
    Two-Electron Energy =                 303.4148700917806423
    DFT Exchange-Correlation Energy =     -34.2527960940053333
    Empirical Dispersion Energy =           0.0000000000000000
    VV10 Nonlocal Energy =                  0.0000000000000000
    Total Energy =                       -622.0660793590095636

  UHF NO Occupations:
  HONO-2 :    8 A1 1.0000000
  HONO-1 :    4 B1 1.0000000
  HONO-0 :    9 A1 1.0000000
  LUNO+0 :   10 A1 0.0009817
  LUNO+1 :    5 B2 0.0001292
  LUNO+2 :    5 B1 0.0000003
  LUNO+3 :    6 B2 0.0000003

Computation Completed

Properties will be evaluated at   0.000000,   0.000000,   0.000000 [a0]

Properties computed using the SCF density matrix

 Multipole Moments:

 ------------------------------------------------------------------------------------
     Multipole            Electronic (a.u.)      Nuclear  (a.u.)        Total (a.u.)
 ------------------------------------------------------------------------------------

 L = 1.  Multiply by 2.5417464519 to convert [e a0] to [Debye]
 Dipole X            :          0.0000000            0.0000000            0.0000000
 Dipole Y            :          0.0000000            0.0000000            0.0000000
 Dipole Z            :         -6.4714232           -0.6625305           -7.1339537
 Magnitude           :                                                    7.1339537

 ------------------------------------------------------------------------------------

*** tstop() called on Joses-MacBook-Pro-2.local at Thu Jul 17 11:18:56 2025
Module time:
	user time   =      12.01 seconds =       0.20 minutes
	system time =       3.22 seconds =       0.05 minutes
	total time  =          1 seconds =       0.02 minutes
Total time:
	user time   =     277.65 seconds =       4.63 minutes
	system time =      98.32 seconds =       1.64 minutes
	total time  =         37 seconds =       0.62 minutes

*** tstart() called on Joses-MacBook-Pro-2.local
*** at Thu Jul 17 11:18:56 2025

         ------------------------------------------------------------
                                   SCF GRAD
                          Rob Parrish, Justin Turney,
                       Andy Simmonett, and Alex Sokolov
         ------------------------------------------------------------

  ==> Geometry <==

    Molecular point group: c2v
    Full point group: C_inf_v

    Geometry (in Angstrom), charge = -1, multiplicity = 6:

       Center              X                  Y                   Z               Mass
    ------------   -----------------  -----------------  -----------------  -----------------
         NA           0.000000000000     0.000000000000     1.987443681252    22.989769282000
         CL           0.000000000000     0.000000000000    -1.306616265293    34.968852682000

  Nuclear repulsion =   30.040782499749412

  ==> Basis Set <==

  Basis Set: CC-PVDZ
    Blend: CC-PVDZ
    Number of shells: 16
    Number of basis functions: 36
    Number of Cartesian functions: 38
    Spherical Harmonics?: true
    Max angular momentum: 2

  ==> DFJKGrad: Density-Fitted SCF Gradients <==

    Gradient:                    1
    J tasked:                  Yes
    K tasked:                  Yes
    wK tasked:                  No
    OpenMP threads:              1
    Integrals threads:           1
    Memory [MiB]:              375
    Schwarz Cutoff:          1E-12
    Fitting Condition:       1E-10

   => Auxiliary Basis Set <=

  Basis Set: (CC-PVDZ AUX)
    Blend: CC-PVDZ-JKFIT + DEF2-UNIVERSAL-JKFIT
    Number of shells: 70
    Number of basis functions: 224
    Number of Cartesian functions: 267
    Spherical Harmonics?: true
    Max angular momentum: 4

  ==> DFT Potential <==

   => LibXC <=

    Version 6.2.2
    S. Lehtola, C. Steigemann, M. J.T. Oliveira, and M. A.L. Marques.,  SoftwareX 7, 1â€“5 (2018) (10.1016/j.softx.2017.11.002)

   => Composite Functional: B3LYP <=

    B3LYP Hyb-GGA Exchange-Correlation Functional

    P. J. Stephens, F. J. Devlin, C. F. Chabalowski, and M. J. Frisch.,  J. Phys. Chem. 98, 11623 (1994) (10.1021/j100096a001)

    Deriv               =              1
    GGA                 =           TRUE
    Meta                =          FALSE

    Exchange Hybrid     =           TRUE
    MP2 Hybrid          =          FALSE

   => Exchange Functionals <=

    0.0800   Slater exchange
    0.7200         Becke 88

   => Exact (HF) Exchange <=

    0.2000               HF

   => Correlation Functionals <=

    0.1900   Vosko, Wilk & Nusair (VWN5_RPA)
    0.8100   Lee, Yang & Parr

   => LibXC Density Thresholds  <==

    XC_HYB_GGA_XC_B3LYP:  1.00E-15

   => Molecular Quadrature <=

    Radial Scheme          =       TREUTLER
    Pruning Scheme         =           NONE
    Nuclear Scheme         =       TREUTLER

    Blocking Scheme        =         OCTREE
    BS radius alpha        =              1
    Pruning alpha          =              1
    Radial Points          =             75
    Spherical Points       =            302
    Total Points           =          43873
    Total Blocks           =            448
    Max Points             =            255
    Max Functions          =             36
    Weights Tolerance      =       1.00E-15

  -Total Gradient:
     Atom            X                  Y                   Z
    ------   -----------------  -----------------  -----------------
       1        0.000000000000    -0.000000000000     0.000028061480
       2        0.000000000000    -0.000000000000     0.000061480968

*** tstop() called on Joses-MacBook-Pro-2.local at Thu Jul 17 11:18:57 2025
Module time:
	user time   =       2.98 seconds =       0.05 minutes
	system time =       2.33 seconds =       0.04 minutes
	total time  =          1 seconds =       0.02 minutes
Total time:
	user time   =     280.63 seconds =       4.68 minutes
	system time =     100.66 seconds =       1.68 minutes
	total time  =         38 seconds =       0.63 minutes

    			-----------------------------------------

    			 OPTKING 3.0: for geometry optimizations

    			     By R.A. King, Bethel University

    			        with contributions from

    			    A.V. Copan, J. Cayton, A. Heide

    			-----------------------------------------

	                            ===> Fragment 1 <==

	 Z (Atomic Numbers)          Masses                          Geom
	      11.000000            22.989769          0.00000000  0.00000000  3.75572425
	      17.000000            34.968853          0.00000000  0.00000000 -2.46914689

	 - Coordinate -           - BOHR/RAD -       - ANG/DEG -
	 R(1,2)           =         6.224871           3.294060

	        --- Internal Coordinate Step in ANG or DEG, aJ/ANG or AJ/DEG ---
	-------------------------------------------------------------------------------
	           Coordinate      Previous         Force          Change          New
	           ----------      --------        ------          ------        ------
	               R(1,2)       3.29406        0.00014        0.00061       3.29467
	-------------------------------------------------------------------------------

	                                 ==> Convergence Check <==

	Measures of convergence in internal coordinates in au.

	Criteria marked as inactive (o), active & met (*), and active & unmet ( ).

	----------------------------------------------------------------------------------------------
	   Step    Total Energy     Delta E     Max Force     RMS Force      Max Disp      RMS Disp
	----------------------------------------------------------------------------------------------
	  Convergence Criteria     1.00e-06 *    3.00e-04 *             o    1.20e-03 *             o
	----------------------------------------------------------------------------------------------
	    16    -622.06607936   -6.56e-07 *    1.67e-05 *    1.67e-05 o    1.15e-03 *    1.15e-03 o  ~
	----------------------------------------------------------------------------------------------

Next Geometry in Ang
	Fragment 1 (Ang)

	   Na   0.0000000000   0.0000000000   1.9877475381
	   Cl   0.0000000000   0.0000000000  -1.3069201222

    Final optimized geometry and variables:
    Molecular point group: c2v
    Full point group: C_inf_v

    Geometry (in Angstrom), charge = -1, multiplicity = 6:

    NA           0.000000000000     0.000000000000     1.987443681252
    CL           0.000000000000     0.000000000000    -1.306616265293

    Psi4 stopped on: Thursday, 17 July 2025 11:18AM
    Psi4 wall time for execution: 0:00:39.25

*** Psi4 exiting successfully. Buy a developer a beer!
