                               Psi4 1.9.1 release

  ==> Input File <==

--------------------------------------------------------------------------
molecule {
-1 6
Ne   0.00000        0.60000        0.00000
S   0.00000       -0.60000        0.00000
}

set {
basis              cc-pvdz
reference          uks
maxiter            500
geom_maxiter       500
DAMPING_PERCENTAGE 1
guess              SAP
}

optimize('b3lyp')
--------------------------------------------------------------------------

    Molecular point group: c2v
  Charge       = -1
  Multiplicity = 6
  Basis Set: CC-PVDZ
    Blend: CC-PVDZ
  Basis Set: (CC-PVDZ AUX)
    Blend: CC-PVDZ-JKFIT
  @DF-UKS Final Energy:  -525.26413990885544
    Total Energy =                       -525.2641399088554408
 Dipole X            :          0.0000000            0.0000000            0.0000000
 Dipole Y            :          0.0000000            0.0000000            0.0000000
 Dipole Z            :          2.3327644           -0.0069094            2.3258551
 Magnitude           :                                                    2.3258551
    Molecular point group: c2v
  Basis Set: CC-PVDZ
    Blend: CC-PVDZ
  Basis Set: (CC-PVDZ AUX)
    Blend: CC-PVDZ-JKFIT
  Basis Set: CC-PVDZ
    Blend: CC-PVDZ
  Basis Set: (CC-PVDZ AUX)
    Blend: CC-PVDZ-JKFIT
  @DF-UKS Final Energy:  -525.48670324302577
    Total Energy =                       -525.4867032430257723
  Basis Set: CC-PVDZ
    Blend: CC-PVDZ
  Basis Set: (CC-PVDZ AUX)
    Blend: CC-PVDZ-JKFIT
  Basis Set: CC-PVDZ
    Blend: CC-PVDZ
  @DF-UKS Final Energy:  -525.63377395161808
    Total Energy =                       -525.6337739516180818
  @DF-UKS Final Energy:  -525.73178878055751
    Total Energy =                       -525.7317887805575083
  @DF-UKS Final Energy:  -525.79854316313333
    Total Energy =                       -525.7985431631333313
  @DF-UKS Final Energy:  -525.84090565044244
    Total Energy =                       -525.8409056504424370
  @DF-UKS Final Energy:  -525.86341321070950
    Total Energy =                       -525.8634132107094956
  @DF-UKS Final Energy:  -525.87318076019972
    Total Energy =                       -525.8731807601997161
  @DF-UKS Final Energy:  -525.87736870268077
    Total Energy =                       -525.8773687026807693
  @DF-UKS Final Energy:  -525.87911592579724
    Total Energy =                       -525.8791159257972367
  @DF-UKS Final Energy:  -525.87981262694518
    Total Energy =                       -525.8798126269451814
  @DF-UKS Final Energy:  -525.88006299481685
    Total Energy =                       -525.8800629948168535
  @DF-UKS Final Energy:  -525.88012522356416
    Total Energy =                       -525.8801252235641641
  @DF-UKS Final Energy:  -525.88014848106718
    Total Energy =                       -525.8801484810671809
  @DF-UKS Final Energy:  -525.88015347256282
    Total Energy =                       -525.8801534725628244
  Basis Set: (CC-PVDZ AUX)
    Blend: CC-PVDZ-JKFIT
  Basis Set: CC-PVDZ
    Blend: CC-PVDZ
  Basis Set: (CC-PVDZ AUX)
    Blend: CC-PVDZ-JKFIT
  @DF-UKS Final Energy:  -525.88015485665437
    Total Energy =                       -525.8801548566543715
  Basis Set: CC-PVDZ
    Blend: CC-PVDZ
  Basis Set: (CC-PVDZ AUX)
    Blend: CC-PVDZ-JKFIT
  Charge       = -1
  Multiplicity = 6
  Basis Set: CC-PVDZ
    Blend: CC-PVDZ
  Basis Set: (CC-PVDZ AUX)
    Blend: CC-PVDZ-JKFIT

    Orbital Energies [Eh]
    ---------------------

    Alpha Occupied:

       1A1   -88.447865     2A1   -30.810010     3A1    -7.571010
       4A1    -5.535247     1B1    -5.531890     1B2    -5.531890
       5A1    -1.275533     6A1    -0.434530     2B2    -0.384205
       2B1    -0.384205     7A1    -0.383255     8A1    -0.043250
       3B1    -0.040117     3B2    -0.040117     4B1     0.642184
       4B2     0.642184

    Alpha Virtual:

       9A1     0.676524    10A1     0.710421    11A1     0.825909
       5B2     0.829224     5B1     0.829224     1A2     0.843073
      12A1     0.843074     6B2     1.515202     6B1     1.515202
      13A1     1.549698    14A1     1.992149     2A2     4.881309
      15A1     4.881527     7B2     4.881864     7B1     4.881864
      16A1     4.882734

    Beta Occupied:

       1A1   -88.418420     2A1   -30.809756     3A1    -7.541475
       4A1    -5.505048     1B1    -5.481264     1B2    -5.481264
       5A1    -1.275156     2B2    -0.383985     2B1    -0.383985
       6A1    -0.383342     7A1    -0.273181

    Beta Virtual:

       8A1     0.124174     3B1     0.154453     3B2     0.154453
       9A1     0.783079    10A1     0.790117     4B1     0.823187
       4B2     0.823187    11A1     0.938803     5B2     0.946734
       5B1     0.946734    12A1     0.970646     1A2     0.970646
       6B2     1.515200     6B1     1.515200    13A1     1.551796
      14A1     1.993322     2A2     4.881490    15A1     4.881708
       7B2     4.882226     7B1     4.882226    16A1     4.883159

    Final Occupation by Irrep:
             A1    A2    B1    B2
    DOCC [     7,    0,    2,    2 ]
    SOCC [     1,    0,    2,    2 ]
    NA   [     8,    0,    4,    4 ]
    NB   [     7,    0,    2,    2 ]

  @DF-UKS Final Energy:  -525.88015543526251

   => Energetics <=

    Nuclear Repulsion Energy =             26.4083922073490278
    One-Electron Energy =                -791.3610353862875399
    Two-Electron Energy =                 270.1646957555947210
    DFT Exchange-Correlation Energy =     -31.0922080119186752
    Empirical Dispersion Energy =           0.0000000000000000
    VV10 Nonlocal Energy =                  0.0000000000000000
    Total Energy =                       -525.8801554352625089

  UHF NO Occupations:
  HONO-2 :    8 A1 1.0000000
  HONO-1 :    4 B1 1.0000000
  HONO-0 :    4 B2 1.0000000
  LUNO+0 :    9 A1 0.0007036
  LUNO+1 :   10 A1 0.0000005
  LUNO+2 :   11 A1 0.0000000
  LUNO+3 :    5 B1 0.0000000

Computation Completed

Properties will be evaluated at   0.000000,   0.000000,   0.000000 [a0]

Properties computed using the SCF density matrix

 Multipole Moments:

 ------------------------------------------------------------------------------------
     Multipole            Electronic (a.u.)      Nuclear  (a.u.)        Total (a.u.)
 ------------------------------------------------------------------------------------

 L = 1.  Multiply by 2.5417464519 to convert [e a0] to [Debye]
 Dipole X            :          0.0000000            0.0000000            0.0000000
 Dipole Y            :          0.0000000            0.0000000            0.0000000
 Dipole Z            :          2.3528970           -0.0184602            2.3344368
 Magnitude           :                                                    2.3344368

 ------------------------------------------------------------------------------------

*** tstop() called on Joses-MacBook-Pro-2.local at Thu Jul 17 11:03:28 2025
Module time:
	user time   =       3.11 seconds =       0.05 minutes
	system time =       1.64 seconds =       0.03 minutes
	total time  =          1 seconds =       0.02 minutes
Total time:
	user time   =      89.15 seconds =       1.49 minutes
	system time =      77.07 seconds =       1.28 minutes
	total time  =         17 seconds =       0.28 minutes

*** tstart() called on Joses-MacBook-Pro-2.local
*** at Thu Jul 17 11:03:28 2025

         ------------------------------------------------------------
                                   SCF GRAD
                          Rob Parrish, Justin Turney,
                       Andy Simmonett, and Alex Sokolov
         ------------------------------------------------------------

  ==> Geometry <==

    Molecular point group: c2v
    Full point group: C_inf_v

    Geometry (in Angstrom), charge = -1, multiplicity = 6:

       Center              X                  Y                   Z               Mass
    ------------   -----------------  -----------------  -----------------  -----------------
         NE           0.000000000000     0.000000000000     1.972618389367    19.992440176200
         S            0.000000000000     0.000000000000    -1.233497039487    31.972071174400

  Nuclear repulsion =   26.408392207349028

  ==> Basis Set <==

  Basis Set: CC-PVDZ
    Blend: CC-PVDZ
    Number of shells: 14
    Number of basis functions: 32
    Number of Cartesian functions: 34
    Spherical Harmonics?: true
    Max angular momentum: 2

  ==> DFJKGrad: Density-Fitted SCF Gradients <==

    Gradient:                    1
    J tasked:                  Yes
    K tasked:                  Yes
    wK tasked:                  No
    OpenMP threads:              1
    Integrals threads:           1
    Memory [MiB]:              375
    Schwarz Cutoff:          1E-12
    Fitting Condition:       1E-10

   => Auxiliary Basis Set <=

  Basis Set: (CC-PVDZ AUX)
    Blend: CC-PVDZ-JKFIT
    Number of shells: 60
    Number of basis functions: 182
    Number of Cartesian functions: 211
    Spherical Harmonics?: true
    Max angular momentum: 3

  ==> DFT Potential <==

   => LibXC <=

    Version 6.2.2
    S. Lehtola, C. Steigemann, M. J.T. Oliveira, and M. A.L. Marques.,  SoftwareX 7, 1â€“5 (2018) (10.1016/j.softx.2017.11.002)

   => Composite Functional: B3LYP <=

    B3LYP Hyb-GGA Exchange-Correlation Functional

    P. J. Stephens, F. J. Devlin, C. F. Chabalowski, and M. J. Frisch.,  J. Phys. Chem. 98, 11623 (1994) (10.1021/j100096a001)

    Deriv               =              1
    GGA                 =           TRUE
    Meta                =          FALSE

    Exchange Hybrid     =           TRUE
    MP2 Hybrid          =          FALSE

   => Exchange Functionals <=

    0.0800   Slater exchange
    0.7200         Becke 88

   => Exact (HF) Exchange <=

    0.2000               HF

   => Correlation Functionals <=

    0.1900   Vosko, Wilk & Nusair (VWN5_RPA)
    0.8100   Lee, Yang & Parr

   => LibXC Density Thresholds  <==

    XC_HYB_GGA_XC_B3LYP:  1.00E-15

   => Molecular Quadrature <=

    Radial Scheme          =       TREUTLER
    Pruning Scheme         =           NONE
    Nuclear Scheme         =       TREUTLER

    Blocking Scheme        =         OCTREE
    BS radius alpha        =              1
    Pruning alpha          =              1
    Radial Points          =             75
    Spherical Points       =            302
    Total Points           =          42308
    Total Blocks           =            385
    Max Points             =            256
    Max Functions          =             32
    Weights Tolerance      =       1.00E-15

  -Total Gradient:
     Atom            X                  Y                   Z
    ------   -----------------  -----------------  -----------------
       1        0.000000000000    -0.000000000000    -0.000016291613
       2        0.000000000000     0.000000000000     0.000006287004

*** tstop() called on Joses-MacBook-Pro-2.local at Thu Jul 17 11:03:28 2025
Module time:
	user time   =       1.25 seconds =       0.02 minutes
	system time =       1.10 seconds =       0.02 minutes
	total time  =          0 seconds =       0.00 minutes
Total time:
	user time   =      90.40 seconds =       1.51 minutes
	system time =      78.17 seconds =       1.30 minutes
	total time  =         17 seconds =       0.28 minutes

    			-----------------------------------------

    			 OPTKING 3.0: for geometry optimizations

    			     By R.A. King, Bethel University

    			        with contributions from

    			    A.V. Copan, J. Cayton, A. Heide

    			-----------------------------------------

	                            ===> Fragment 1 <==

	 Z (Atomic Numbers)          Masses                          Geom
	      10.000000            19.992440          0.00000000  0.00000000  3.72770851
	      16.000000            31.972071          0.00000000  0.00000000 -2.33097158

	 - Coordinate -           - BOHR/RAD -       - ANG/DEG -
	 R(1,2)           =         6.058680           3.206115

	        --- Internal Coordinate Step in ANG or DEG, aJ/ANG or AJ/DEG ---
	-------------------------------------------------------------------------------
	           Coordinate      Previous         Force          Change          New
	           ----------      --------        ------          ------        ------
	               R(1,2)       3.20612        0.00009        0.00221       3.20832
	-------------------------------------------------------------------------------

	                                 ==> Convergence Check <==

	Measures of convergence in internal coordinates in au.

	Criteria marked as inactive (o), active & met (*), and active & unmet ( ).

	----------------------------------------------------------------------------------------------
	   Step    Total Energy     Delta E     Max Force     RMS Force      Max Disp      RMS Disp
	----------------------------------------------------------------------------------------------
	  Convergence Criteria     1.00e-06 *    3.00e-04 *             o    1.20e-03 *             o
	----------------------------------------------------------------------------------------------
	    17    -525.88015544   -5.79e-07 *    1.13e-05 *    1.13e-05 o    4.17e-03      4.17e-03 o  ~
	----------------------------------------------------------------------------------------------

Next Geometry in Ang
	Fragment 1 (Ang)

	   Ne   0.0000000000   0.0000000000   1.9737224783
	    S   0.0000000000   0.0000000000  -1.2346011285

    Final optimized geometry and variables:
    Molecular point group: c2v
    Full point group: C_inf_v

    Geometry (in Angstrom), charge = -1, multiplicity = 6:

    NE           0.000000000000     0.000000000000     1.972618389367
    S            0.000000000000     0.000000000000    -1.233497039487

    Psi4 stopped on: Thursday, 17 July 2025 11:03AM
    Psi4 wall time for execution: 0:00:18.06

*** Psi4 exiting successfully. Buy a developer a beer!
