                               Psi4 1.9.1 release

  ==> Input File <==

--------------------------------------------------------------------------
molecule {
-1 6
He   0.00000        0.60000        0.00000
Si   0.00000       -0.60000        0.00000
}

set {
basis              cc-pvdz
reference          uks
maxiter            500
geom_maxiter       500
DAMPING_PERCENTAGE 1
guess              SAP
}

optimize('b3lyp')
--------------------------------------------------------------------------

    Molecular point group: c2v
  Charge       = -1
  Multiplicity = 6
  Basis Set: CC-PVDZ
    Blend: CC-PVDZ
  Basis Set: (CC-PVDZ AUX)
    Blend: CC-PVDZ-JKFIT + DEF2-UNIVERSAL-JKFIT
  @DF-UKS Final Energy:  -291.63798437987390
    Total Energy =                       -291.6379843798738989
 Dipole X            :          0.0000000            0.0000000            0.0000000
 Dipole Y            :          0.0000000            0.0000000            0.0000000
 Dipole Z            :          0.1010708           -0.0058566            0.0952142
 Magnitude           :                                                    0.0952142
    Molecular point group: c2v
  Basis Set: CC-PVDZ
    Blend: CC-PVDZ
  Basis Set: (CC-PVDZ AUX)
    Blend: CC-PVDZ-JKFIT + DEF2-UNIVERSAL-JKFIT
  Basis Set: CC-PVDZ
    Blend: CC-PVDZ
  Basis Set: (CC-PVDZ AUX)
    Blend: CC-PVDZ-JKFIT + DEF2-UNIVERSAL-JKFIT
  @DF-UKS Final Energy:  -291.73951816406981
    Total Energy =                       -291.7395181640697501
  Basis Set: CC-PVDZ
    Blend: CC-PVDZ
  Basis Set: (CC-PVDZ AUX)
    Blend: CC-PVDZ-JKFIT + DEF2-UNIVERSAL-JKFIT
  Basis Set: CC-PVDZ
    Blend: CC-PVDZ
  @DF-UKS Final Energy:  -291.76157291289439
    Total Energy =                       -291.7615729128943940
  @DF-UKS Final Energy:  -291.77785920876659
    Total Energy =                       -291.7778592087665857
  @DF-UKS Final Energy:  -291.78905788850841
    Total Energy =                       -291.7890578885084096
  @DF-UKS Final Energy:  -291.80372100991491
    Total Energy =                       -291.8037210099149661
  @DF-UKS Final Energy:  -291.80691410549377
    Total Energy =                       -291.8069141054937177
  @DF-UKS Final Energy:  -291.82083694184030
    Total Energy =                       -291.8208369418402413
  @DF-UKS Final Energy:  -291.82230582115164
    Total Energy =                       -291.8223058211517014
  @DF-UKS Final Energy:  -291.82811192339716
    Total Energy =                       -291.8281119233971594
  @DF-UKS Final Energy:  -291.82851172246990
    Total Energy =                       -291.8285117224698979
  @DF-UKS Final Energy:  -291.83061287233994
    Total Energy =                       -291.8306128723398842
  @DF-UKS Final Energy:  -291.83069140143243
    Total Energy =                       -291.8306914014324889
  @DF-UKS Final Energy:  -291.83139190301426
    Total Energy =                       -291.8313919030143211
  @DF-UKS Final Energy:  -291.83158690587868
    Total Energy =                       -291.8315869058786802
  @DF-UKS Final Energy:  -291.83167574243862
    Total Energy =                       -291.8316757424386196
  @DF-UKS Final Energy:  -291.83170740086774
    Total Energy =                       -291.8317074008677423
  @DF-UKS Final Energy:  -291.83171605166120
    Total Energy =                       -291.8317160516611466
  @DF-UKS Final Energy:  -291.83172072257378
    Total Energy =                       -291.8317207225737775
  Basis Set: (CC-PVDZ AUX)
    Blend: CC-PVDZ-JKFIT + DEF2-UNIVERSAL-JKFIT
  Basis Set: CC-PVDZ
    Blend: CC-PVDZ
  Basis Set: (CC-PVDZ AUX)
    Blend: CC-PVDZ-JKFIT + DEF2-UNIVERSAL-JKFIT
  @DF-UKS Final Energy:  -291.83172213526035
    Total Energy =                       -291.8317221352603497
  Basis Set: CC-PVDZ
    Blend: CC-PVDZ
  Basis Set: (CC-PVDZ AUX)
    Blend: CC-PVDZ-JKFIT + DEF2-UNIVERSAL-JKFIT
  Charge       = -1
  Multiplicity = 6
  Basis Set: CC-PVDZ
    Blend: CC-PVDZ
  Basis Set: (CC-PVDZ AUX)
    Blend: CC-PVDZ-JKFIT + DEF2-UNIVERSAL-JKFIT

    Orbital Energies [Eh]
    ---------------------

    Alpha Occupied:

       1A1   -65.914253     2A1    -5.064433     1B2    -3.421810
       1B1    -3.421810     3A1    -3.421810     4A1    -0.528418
       5A1    -0.251202     2B1     0.018700     2B2     0.018700
       6A1     0.018743     7A1     0.379573

    Alpha Virtual:

       8A1     0.489609     3B1     0.489773     3B2     0.489773
       9A1     0.560456     4B1     0.560472     4B2     0.560472
      10A1     0.560475     1A2     0.560475    11A1     1.243554
       5B2     2.310352     5B1     2.310352    12A1     2.311834

    Beta Occupied:

       1A1   -65.895868     2A1    -5.039492     1B2    -3.398259
       1B1    -3.398259     3A1    -3.398253     4A1    -0.528336

    Beta Virtual:

       5A1    -0.018945     6A1     0.205289     2B1     0.206092
       2B2     0.206092     7A1     0.533247     8A1     0.592967
       3B1     0.594729     3B2     0.594729     4B2     0.699944
       4B1     0.699944     9A1     0.700082    10A1     0.700117
       1A2     0.700118    11A1     1.243664     5B2     2.310405
       5B1     2.310405    12A1     2.311923

    Final Occupation by Irrep:
             A1    A2    B1    B2
    DOCC [     4,    0,    1,    1 ]
    SOCC [     3,    0,    1,    1 ]
    NA   [     7,    0,    2,    2 ]
    NB   [     4,    0,    1,    1 ]

  @DF-UKS Final Energy:  -291.83172264924571

   => Energetics <=

    Nuclear Repulsion Energy =              3.4004476233223060
    One-Electron Energy =                -414.5048787011803597
    Two-Electron Energy =                 137.1160611420084194
    DFT Exchange-Correlation Energy =     -17.8433527133960936
    Empirical Dispersion Energy =           0.0000000000000000
    VV10 Nonlocal Energy =                  0.0000000000000000
    Total Energy =                       -291.8317226492457053

  UHF NO Occupations:
  HONO-2 :    5 A1 1.0000000
  HONO-1 :    6 A1 1.0000000
  HONO-0 :    7 A1 1.0000000
  LUNO+0 :    3 B1 0.0000008
  LUNO+1 :    3 B2 0.0000008
  LUNO+2 :    8 A1 0.0000008
  LUNO+3 :    9 A1 0.0000000

Computation Completed

Properties will be evaluated at   0.000000,   0.000000,   0.000000 [a0]

Properties computed using the SCF density matrix

 Multipole Moments:

 ------------------------------------------------------------------------------------
     Multipole            Electronic (a.u.)      Nuclear  (a.u.)        Total (a.u.)
 ------------------------------------------------------------------------------------

 L = 1.  Multiply by 2.5417464519 to convert [e a0] to [Debye]
 Dipole X            :          0.0000000            0.0000000            0.0000000
 Dipole Y            :          0.0000000            0.0000000            0.0000000
 Dipole Z            :          1.0438740           -0.0212662            1.0226078
 Magnitude           :                                                    1.0226078

 ------------------------------------------------------------------------------------

*** tstop() called on Joses-MacBook-Pro-2.local at Thu Jul 17 09:24:00 2025
Module time:
	user time   =       1.45 seconds =       0.02 minutes
	system time =       3.17 seconds =       0.05 minutes
	total time  =          1 seconds =       0.02 minutes
Total time:
	user time   =      79.65 seconds =       1.33 minutes
	system time =      92.84 seconds =       1.55 minutes
	total time  =         17 seconds =       0.28 minutes

*** tstart() called on Joses-MacBook-Pro-2.local
*** at Thu Jul 17 09:24:00 2025

         ------------------------------------------------------------
                                   SCF GRAD
                          Rob Parrish, Justin Turney,
                       Andy Simmonett, and Alex Sokolov
         ------------------------------------------------------------

  ==> Geometry <==

    Molecular point group: c2v
    Full point group: C_inf_v

    Geometry (in Angstrom), charge = -1, multiplicity = 6:

       Center              X                  Y                   Z               Mass
    ------------   -----------------  -----------------  -----------------  -----------------
         HE           0.000000000000     0.000000000000     3.811983418667     4.002603254130
         SI           0.000000000000     0.000000000000    -0.545372888525    27.976926534650

  Nuclear repulsion =    3.400447623322306

  ==> Basis Set <==

  Basis Set: CC-PVDZ
    Blend: CC-PVDZ
    Number of shells: 11
    Number of basis functions: 23
    Number of Cartesian functions: 24
    Spherical Harmonics?: true
    Max angular momentum: 2

  ==> DFJKGrad: Density-Fitted SCF Gradients <==

    Gradient:                    1
    J tasked:                  Yes
    K tasked:                  Yes
    wK tasked:                  No
    OpenMP threads:              1
    Integrals threads:           1
    Memory [MiB]:              375
    Schwarz Cutoff:          1E-12
    Fitting Condition:       1E-10

   => Auxiliary Basis Set <=

  Basis Set: (CC-PVDZ AUX)
    Blend: CC-PVDZ-JKFIT + DEF2-UNIVERSAL-JKFIT
    Number of shells: 45
    Number of basis functions: 135
    Number of Cartesian functions: 155
    Spherical Harmonics?: true
    Max angular momentum: 3

  ==> DFT Potential <==

   => LibXC <=

    Version 6.2.2
    S. Lehtola, C. Steigemann, M. J.T. Oliveira, and M. A.L. Marques.,  SoftwareX 7, 1â€“5 (2018) (10.1016/j.softx.2017.11.002)

   => Composite Functional: B3LYP <=

    B3LYP Hyb-GGA Exchange-Correlation Functional

    P. J. Stephens, F. J. Devlin, C. F. Chabalowski, and M. J. Frisch.,  J. Phys. Chem. 98, 11623 (1994) (10.1021/j100096a001)

    Deriv               =              1
    GGA                 =           TRUE
    Meta                =          FALSE

    Exchange Hybrid     =           TRUE
    MP2 Hybrid          =          FALSE

   => Exchange Functionals <=

    0.0800   Slater exchange
    0.7200         Becke 88

   => Exact (HF) Exchange <=

    0.2000               HF

   => Correlation Functionals <=

    0.1900   Vosko, Wilk & Nusair (VWN5_RPA)
    0.8100   Lee, Yang & Parr

   => LibXC Density Thresholds  <==

    XC_HYB_GGA_XC_B3LYP:  1.00E-15

   => Molecular Quadrature <=

    Radial Scheme          =       TREUTLER
    Pruning Scheme         =           NONE
    Nuclear Scheme         =       TREUTLER

    Blocking Scheme        =         OCTREE
    BS radius alpha        =              1
    Pruning alpha          =              1
    Radial Points          =             75
    Spherical Points       =            302
    Total Points           =          43102
    Total Blocks           =            428
    Max Points             =            255
    Max Functions          =             23
    Weights Tolerance      =       1.00E-15

  -Total Gradient:
     Atom            X                  Y                   Z
    ------   -----------------  -----------------  -----------------
       1       -0.000000000000    -0.000000000000    -0.000008727500
       2       -0.000000000000    -0.000000000000     0.000004715776

*** tstop() called on Joses-MacBook-Pro-2.local at Thu Jul 17 09:24:00 2025
Module time:
	user time   =       0.54 seconds =       0.01 minutes
	system time =       1.14 seconds =       0.02 minutes
	total time  =          0 seconds =       0.00 minutes
Total time:
	user time   =      80.20 seconds =       1.34 minutes
	system time =      93.98 seconds =       1.57 minutes
	total time  =         17 seconds =       0.28 minutes

    			-----------------------------------------

    			 OPTKING 3.0: for geometry optimizations

    			     By R.A. King, Bethel University

    			        with contributions from

    			    A.V. Copan, J. Cayton, A. Heide

    			-----------------------------------------

	                            ===> Fragment 1 <==

	 Z (Atomic Numbers)          Masses                          Geom
	       2.000000             4.002603          0.00000000  0.00000000  7.20360466
	      14.000000            27.976927          0.00000000  0.00000000 -1.03060540

	 - Coordinate -           - BOHR/RAD -       - ANG/DEG -
	 R(1,2)           =         8.234210           4.357356

	        --- Internal Coordinate Step in ANG or DEG, aJ/ANG or AJ/DEG ---
	-------------------------------------------------------------------------------
	           Coordinate      Previous         Force          Change          New
	           ----------      --------        ------          ------        ------
	               R(1,2)       4.35736        0.00006        0.01374       4.37109
	-------------------------------------------------------------------------------

	                                 ==> Convergence Check <==

	Measures of convergence in internal coordinates in au.

	Criteria marked as inactive (o), active & met (*), and active & unmet ( ).

	----------------------------------------------------------------------------------------------
	   Step    Total Energy     Delta E     Max Force     RMS Force      Max Disp      RMS Disp
	----------------------------------------------------------------------------------------------
	  Convergence Criteria     1.00e-06 *    3.00e-04 *             o    1.20e-03 *             o
	----------------------------------------------------------------------------------------------
	    21    -291.83172265   -5.14e-07 *    6.72e-06 *    6.72e-06 o    2.60e-02      2.60e-02 o  ~
	----------------------------------------------------------------------------------------------

Next Geometry in Ang
	Fragment 1 (Ang)

	   He   0.0000000000   0.0000000000   3.8188510706
	   Si   0.0000000000   0.0000000000  -0.5522405404

    Final optimized geometry and variables:
    Molecular point group: c2v
    Full point group: C_inf_v

    Geometry (in Angstrom), charge = -1, multiplicity = 6:

    HE           0.000000000000     0.000000000000     3.811983418667
    SI           0.000000000000     0.000000000000    -0.545372888525

    Psi4 stopped on: Thursday, 17 July 2025 09:24AM
    Psi4 wall time for execution: 0:00:17.04

*** Psi4 exiting successfully. Buy a developer a beer!
