                               Psi4 1.9.1 release

  ==> Input File <==

--------------------------------------------------------------------------
molecule {
-1 6
Be   0.00000        0.60000        0.00000
Si   0.00000       -0.60000        0.00000
}

set {
basis              cc-pvdz
reference          uks
maxiter            500
geom_maxiter       500
DAMPING_PERCENTAGE 1
guess              SAP
}

optimize('b3lyp')
--------------------------------------------------------------------------

    Molecular point group: c2v
  Charge       = -1
  Multiplicity = 6
  Basis Set: CC-PVDZ
    Blend: CC-PVDZ
  Basis Set: (CC-PVDZ AUX)
    Blend: CC-PVDZ-JKFIT + DEF2-UNIVERSAL-JKFIT
  @DF-UKS Final Energy:  -303.44939706749631
    Total Energy =                       -303.4493970674963066
 Dipole X            :          0.0000000            0.0000000            0.0000000
 Dipole Y            :          0.0000000            0.0000000            0.0000000
 Dipole Z            :         -1.0212741           -0.8744053           -1.8956794
 Magnitude           :                                                    1.8956794
    Molecular point group: c2v
  Basis Set: CC-PVDZ
    Blend: CC-PVDZ
  Basis Set: (CC-PVDZ AUX)
    Blend: CC-PVDZ-JKFIT + DEF2-UNIVERSAL-JKFIT
  Basis Set: CC-PVDZ
    Blend: CC-PVDZ
  Basis Set: (CC-PVDZ AUX)
    Blend: CC-PVDZ-JKFIT + DEF2-UNIVERSAL-JKFIT
  @DF-UKS Final Energy:  -303.67087882293345
    Total Energy =                       -303.6708788229334459
  Basis Set: CC-PVDZ
    Blend: CC-PVDZ
  Basis Set: (CC-PVDZ AUX)
    Blend: CC-PVDZ-JKFIT + DEF2-UNIVERSAL-JKFIT
  Basis Set: CC-PVDZ
    Blend: CC-PVDZ
  @DF-UKS Final Energy:  -303.85114419467385
    Total Energy =                       -303.8511441946738501
  @DF-UKS Final Energy:  -303.96195627240928
    Total Energy =                       -303.9619562724092816
  @DF-UKS Final Energy:  -304.01402102043255
    Total Energy =                       -304.0140210204326081
  @DF-UKS Final Energy:  -304.03760313534406
    Total Energy =                       -304.0376031353440567
  @DF-UKS Final Energy:  -304.04750324868866
    Total Energy =                       -304.0475032486886562
  @DF-UKS Final Energy:  -304.05104188653200
    Total Energy =                       -304.0510418865319480
  @DF-UKS Final Energy:  -304.05183387241493
    Total Energy =                       -304.0518338724149316
  @DF-UKS Final Energy:  -304.05208406633784
    Total Energy =                       -304.0520840663378408
  @DF-UKS Final Energy:  -304.05212080437838
    Total Energy =                       -304.0521208043784327
  @DF-UKS Final Energy:  -304.05212665078614
    Total Energy =                       -304.0521266507860787
  Basis Set: (CC-PVDZ AUX)
    Blend: CC-PVDZ-JKFIT + DEF2-UNIVERSAL-JKFIT
  Basis Set: CC-PVDZ
    Blend: CC-PVDZ
  Basis Set: (CC-PVDZ AUX)
    Blend: CC-PVDZ-JKFIT + DEF2-UNIVERSAL-JKFIT
  @DF-UKS Final Energy:  -304.05212773589432
    Total Energy =                       -304.0521277358943166
  Basis Set: CC-PVDZ
    Blend: CC-PVDZ
  Basis Set: (CC-PVDZ AUX)
    Blend: CC-PVDZ-JKFIT + DEF2-UNIVERSAL-JKFIT
  Charge       = -1
  Multiplicity = 6
  Basis Set: CC-PVDZ
    Blend: CC-PVDZ
  Basis Set: (CC-PVDZ AUX)
    Blend: CC-PVDZ-JKFIT + DEF2-UNIVERSAL-JKFIT

    Orbital Energies [Eh]
    ---------------------

    Alpha Occupied:

       1A1   -65.942607     2A1    -5.086532     3A1    -3.873744
       1B1    -3.446346     4A1    -3.446246     1B2    -3.445547
       5A1    -0.275500     6A1    -0.087332     2B2    -0.010697
       2B1    -0.007599     7A1     0.010020     3B2     0.087244

    Alpha Virtual:

       3B1     0.140209     8A1     0.220086     9A1     0.323469
       4B2     0.354608    10A1     0.357767     4B1     0.368952
      11A1     0.456938     5B1     0.487783     5B2     0.488521
       6B2     0.521880     6B1     0.523050     1A2     0.527890
      12A1     0.528462    13A1     0.581321     2A2     0.668846
      14A1     0.673804    15A1     0.769711     7B2     0.814885
       7B1     0.818695    16A1     0.971162

    Beta Occupied:

       1A1   -65.935178     2A1    -5.078001     3A1    -3.857644
       4A1    -3.435005     1B1    -3.434825     1B2    -3.432617
       5A1    -0.186665

    Beta Virtual:

       6A1     0.046889     2B1     0.099231     2B2     0.110209
       7A1     0.148177     3B1     0.198928     3B2     0.218878
       8A1     0.264506     9A1     0.375624     4B1     0.398313
       4B2     0.419085    10A1     0.422254    11A1     0.509642
       5B1     0.533361     5B2     0.540976     6B1     0.589667
       6B2     0.602173    12A1     0.604185     1A2     0.604566
      13A1     0.624459    14A1     0.754903     2A2     0.756025
      15A1     0.831580     7B1     0.887979     7B2     0.906606
      16A1     1.039252

    Final Occupation by Irrep:
             A1    A2    B1    B2
    DOCC [     5,    0,    1,    1 ]
    SOCC [     2,    0,    1,    2 ]
    NA   [     7,    0,    2,    3 ]
    NB   [     5,    0,    1,    1 ]

  @DF-UKS Final Energy:  -304.05212780166624

   => Energetics <=

    Nuclear Repulsion Energy =             12.3499291330882635
    One-Electron Energy =                -448.2018669292384061
    Two-Electron Energy =                 151.0246338664346126
    DFT Exchange-Correlation Energy =     -19.2248238719507256
    Empirical Dispersion Energy =           0.0000000000000000
    VV10 Nonlocal Energy =                  0.0000000000000000
    Total Energy =                       -304.0521278016662450

  UHF NO Occupations:
  HONO-2 :    2 B1 1.0000000
  HONO-1 :    7 A1 1.0000000
  HONO-0 :    3 B2 1.0000000
  LUNO+0 :    8 A1 0.0002357
  LUNO+1 :    9 A1 0.0000002
  LUNO+2 :    3 B1 0.0000000
  LUNO+3 :   10 A1 0.0000000

Computation Completed

Properties will be evaluated at   0.000000,   0.000000,   0.000000 [a0]

Properties computed using the SCF density matrix

 Multipole Moments:

 ------------------------------------------------------------------------------------
     Multipole            Electronic (a.u.)      Nuclear  (a.u.)        Total (a.u.)
 ------------------------------------------------------------------------------------

 L = 1.  Multiply by 2.5417464519 to convert [e a0] to [Debye]
 Dipole X            :          0.0000000            0.0000000            0.0000000
 Dipole Y            :          0.0000000            0.0000000            0.0000000
 Dipole Z            :         -0.1600805           -1.7484620           -1.9085426
 Magnitude           :                                                    1.9085426

 ------------------------------------------------------------------------------------

*** tstop() called on Joses-MacBook-Pro-2.local at Thu Jul 17 09:45:06 2025
Module time:
	user time   =       3.10 seconds =       0.05 minutes
	system time =       2.84 seconds =       0.05 minutes
	total time  =          1 seconds =       0.02 minutes
Total time:
	user time   =      65.24 seconds =       1.09 minutes
	system time =      75.48 seconds =       1.26 minutes
	total time  =         14 seconds =       0.23 minutes

*** tstart() called on Joses-MacBook-Pro-2.local
*** at Thu Jul 17 09:45:06 2025

         ------------------------------------------------------------
                                   SCF GRAD
                          Rob Parrish, Justin Turney,
                       Andy Simmonett, and Alex Sokolov
         ------------------------------------------------------------

  ==> Geometry <==

    Molecular point group: c2v
    Full point group: C_inf_v

    Geometry (in Angstrom), charge = -1, multiplicity = 6:

       Center              X                  Y                   Z               Mass
    ------------   -----------------  -----------------  -----------------  -----------------
         BE           0.000000000000     0.000000000000     1.814892139053     9.012183065000
         SI           0.000000000000     0.000000000000    -0.584629629710    27.976926534650

  Nuclear repulsion =   12.349929133088263

  ==> Basis Set <==

  Basis Set: CC-PVDZ
    Blend: CC-PVDZ
    Number of shells: 14
    Number of basis functions: 32
    Number of Cartesian functions: 34
    Spherical Harmonics?: true
    Max angular momentum: 2

  ==> DFJKGrad: Density-Fitted SCF Gradients <==

    Gradient:                    1
    J tasked:                  Yes
    K tasked:                  Yes
    wK tasked:                  No
    OpenMP threads:              1
    Integrals threads:           1
    Memory [MiB]:              375
    Schwarz Cutoff:          1E-12
    Fitting Condition:       1E-10

   => Auxiliary Basis Set <=

  Basis Set: (CC-PVDZ AUX)
    Blend: CC-PVDZ-JKFIT + DEF2-UNIVERSAL-JKFIT
    Number of shells: 53
    Number of basis functions: 163
    Number of Cartesian functions: 190
    Spherical Harmonics?: true
    Max angular momentum: 3

  ==> DFT Potential <==

   => LibXC <=

    Version 6.2.2
    S. Lehtola, C. Steigemann, M. J.T. Oliveira, and M. A.L. Marques.,  SoftwareX 7, 1â€“5 (2018) (10.1016/j.softx.2017.11.002)

   => Composite Functional: B3LYP <=

    B3LYP Hyb-GGA Exchange-Correlation Functional

    P. J. Stephens, F. J. Devlin, C. F. Chabalowski, and M. J. Frisch.,  J. Phys. Chem. 98, 11623 (1994) (10.1021/j100096a001)

    Deriv               =              1
    GGA                 =           TRUE
    Meta                =          FALSE

    Exchange Hybrid     =           TRUE
    MP2 Hybrid          =          FALSE

   => Exchange Functionals <=

    0.0800   Slater exchange
    0.7200         Becke 88

   => Exact (HF) Exchange <=

    0.2000               HF

   => Correlation Functionals <=

    0.1900   Vosko, Wilk & Nusair (VWN5_RPA)
    0.8100   Lee, Yang & Parr

   => LibXC Density Thresholds  <==

    XC_HYB_GGA_XC_B3LYP:  1.00E-15

   => Molecular Quadrature <=

    Radial Scheme          =       TREUTLER
    Pruning Scheme         =           NONE
    Nuclear Scheme         =       TREUTLER

    Blocking Scheme        =         OCTREE
    BS radius alpha        =              1
    Pruning alpha          =              1
    Radial Points          =             75
    Spherical Points       =            302
    Total Points           =          42522
    Total Blocks           =            397
    Max Points             =            254
    Max Functions          =             32
    Weights Tolerance      =       1.00E-15

  -Total Gradient:
     Atom            X                  Y                   Z
    ------   -----------------  -----------------  -----------------
       1       -0.000000000000     0.000000000000    -0.000008704045
       2        0.000000000000     0.000000000000     0.000009547359

*** tstop() called on Joses-MacBook-Pro-2.local at Thu Jul 17 09:45:06 2025
Module time:
	user time   =       0.92 seconds =       0.02 minutes
	system time =       1.49 seconds =       0.02 minutes
	total time  =          0 seconds =       0.00 minutes
Total time:
	user time   =      66.16 seconds =       1.10 minutes
	system time =      76.97 seconds =       1.28 minutes
	total time  =         14 seconds =       0.23 minutes

    			-----------------------------------------

    			 OPTKING 3.0: for geometry optimizations

    			     By R.A. King, Bethel University

    			        with contributions from

    			    A.V. Copan, J. Cayton, A. Heide

    			-----------------------------------------

	                            ===> Fragment 1 <==

	 Z (Atomic Numbers)          Masses                          Geom
	       4.000000             9.012183          0.00000000  0.00000000  3.42964909
	      14.000000            27.976927          0.00000000  0.00000000 -1.10478988

	 - Coordinate -           - BOHR/RAD -       - ANG/DEG -
	 R(1,2)           =         4.534439           2.399522

	        --- Internal Coordinate Step in ANG or DEG, aJ/ANG or AJ/DEG ---
	-------------------------------------------------------------------------------
	           Coordinate      Previous         Force          Change          New
	           ----------      --------        ------          ------        ------
	               R(1,2)       2.39952        0.00008        0.00014       2.39967
	-------------------------------------------------------------------------------

	                                 ==> Convergence Check <==

	Measures of convergence in internal coordinates in au.

	Criteria marked as inactive (o), active & met (*), and active & unmet ( ).

	----------------------------------------------------------------------------------------------
	   Step    Total Energy     Delta E     Max Force     RMS Force      Max Disp      RMS Disp
	----------------------------------------------------------------------------------------------
	  Convergence Criteria     1.00e-06 *    3.00e-04 *             o    1.20e-03 *             o
	----------------------------------------------------------------------------------------------
	    14    -304.05212780   -6.58e-08 *    9.13e-06 *    9.13e-06 o    2.74e-04 *    2.74e-04 o  ~
	----------------------------------------------------------------------------------------------

Next Geometry in Ang
	Fragment 1 (Ang)

	   Be   0.0000000000   0.0000000000   1.8149645321
	   Si   0.0000000000   0.0000000000  -0.5847020228

    Final optimized geometry and variables:
    Molecular point group: c2v
    Full point group: C_inf_v

    Geometry (in Angstrom), charge = -1, multiplicity = 6:

    BE           0.000000000000     0.000000000000     1.814892139053
    SI           0.000000000000     0.000000000000    -0.584629629710

    Psi4 stopped on: Thursday, 17 July 2025 09:45AM
    Psi4 wall time for execution: 0:00:14.38

*** Psi4 exiting successfully. Buy a developer a beer!
