                               Psi4 1.9.1 release

  ==> Input File <==

--------------------------------------------------------------------------
molecule {
-1 6
B   0.00000        0.60000        0.00000
F   0.00000       -0.60000        0.00000
}

set {
basis              cc-pvdz
reference          uks
maxiter            500
geom_maxiter       500
DAMPING_PERCENTAGE 1
guess              SAP
}

optimize('b3lyp')
--------------------------------------------------------------------------

    Molecular point group: c2v
  Charge       = -1
  Multiplicity = 6
  Basis Set: CC-PVDZ
    Blend: CC-PVDZ
  Basis Set: (CC-PVDZ AUX)
    Blend: CC-PVDZ-JKFIT
  @DF-UKS Final Energy:  -123.96558474353881
    Total Energy =                       -123.9655847435388125
 Dipole X            :          0.0000000            0.0000000            0.0000000
 Dipole Y            :          0.0000000            0.0000000            0.0000000
 Dipole Z            :         -1.7283312           -0.3092107           -2.0375419
 Magnitude           :                                                    2.0375419
    Molecular point group: c2v
  Basis Set: CC-PVDZ
    Blend: CC-PVDZ
  Basis Set: (CC-PVDZ AUX)
    Blend: CC-PVDZ-JKFIT
  Basis Set: CC-PVDZ
    Blend: CC-PVDZ
  Basis Set: (CC-PVDZ AUX)
    Blend: CC-PVDZ-JKFIT
  @DF-UKS Final Energy:  -124.07540876750582
    Total Energy =                       -124.0754087675058202
  Basis Set: CC-PVDZ
    Blend: CC-PVDZ
  Basis Set: (CC-PVDZ AUX)
    Blend: CC-PVDZ-JKFIT
  Basis Set: CC-PVDZ
    Blend: CC-PVDZ
  @DF-UKS Final Energy:  -124.13342848201960
    Total Energy =                       -124.1334284820195961
  @DF-UKS Final Energy:  -124.20045588480480
    Total Energy =                       -124.2004558848047964
  @DF-UKS Final Energy:  -124.22098176254718
    Total Energy =                       -124.2209817625471828
  @DF-UKS Final Energy:  -124.24318833374437
    Total Energy =                       -124.2431883337443708
  @DF-UKS Final Energy:  -124.25406297922920
    Total Energy =                       -124.2540629792292037
  @DF-UKS Final Energy:  -124.26053061763167
    Total Energy =                       -124.2605306176316731
  @DF-UKS Final Energy:  -124.26411217525059
    Total Energy =                       -124.2641121752505882
  @DF-UKS Final Energy:  -124.26597587435685
    Total Energy =                       -124.2659758743568545
  @DF-UKS Final Energy:  -124.26690818642597
    Total Energy =                       -124.2669081864259653
  @DF-UKS Final Energy:  -124.26736188121627
    Total Energy =                       -124.2673618812162744
  @DF-UKS Final Energy:  -124.26757038124225
    Total Energy =                       -124.2675703812422512
  @DF-UKS Final Energy:  -124.26766158859105
    Total Energy =                       -124.2676615885910536
  @DF-UKS Final Energy:  -124.26770220463378
    Total Energy =                       -124.2677022046337783
  @DF-UKS Final Energy:  -124.26772267718478
    Total Energy =                       -124.2677226771847785
  @DF-UKS Final Energy:  -124.26773719959053
    Total Energy =                       -124.2677371995905276
  Basis Set: (CC-PVDZ AUX)
    Blend: CC-PVDZ-JKFIT
  Basis Set: CC-PVDZ
    Blend: CC-PVDZ
  Basis Set: (CC-PVDZ AUX)
    Blend: CC-PVDZ-JKFIT
  @DF-UKS Final Energy:  -124.26778041396642
    Total Energy =                       -124.2677804139664204
  Basis Set: CC-PVDZ
    Blend: CC-PVDZ
  Basis Set: (CC-PVDZ AUX)
    Blend: CC-PVDZ-JKFIT
  Charge       = -1
  Multiplicity = 6
  Basis Set: CC-PVDZ
    Blend: CC-PVDZ
  Basis Set: (CC-PVDZ AUX)
    Blend: CC-PVDZ-JKFIT

    Orbital Energies [Eh]
    ---------------------

    Alpha Occupied:

       1A1   -24.673425     2A1    -6.525907     3A1    -1.103601
       1B1    -0.431201     1B2    -0.341937     4A1    -0.340873
       5A1    -0.137433     2B1     0.092133     2B2     0.092168
       6A1     0.092248

    Alpha Virtual:

       3B1     0.532153     7A1     0.532188     3B2     0.532204
       8A1     0.592439     9A1     0.955973     1A2     0.955975
       4B1     0.956010     4B2     0.956034    10A1     0.956053
       5B1     1.142617     5B2     1.198049    11A1     1.200789
      12A1     1.531420    13A1     3.546684     2A2     3.568420
       6B1     3.569001     6B2     3.638466    14A1     3.638482

    Beta Occupied:

       1A1   -24.642789     2A1    -6.488111     3A1    -1.012753
       1B2    -0.310595     4A1    -0.309506

    Beta Virtual:

       1B1    -0.137177     5A1     0.129776     6A1     0.299841
       2B1     0.303328     2B2     0.303492     7A1     0.641584
       3B1     0.643056     3B2     0.643097     8A1     0.712612
       9A1     1.132174     4B1     1.132963     4B2     1.133023
      10A1     1.134464     1A2     1.134521     5B2     1.216049
      11A1     1.218797     5B1     1.254174    12A1     1.578663
       6B2     3.653618    13A1     3.653628     2A2     3.663488
       6B1     3.664069    14A1     3.683161

    Final Occupation by Irrep:
             A1    A2    B1    B2
    DOCC [     4,    0,    0,    1 ]
    SOCC [     2,    0,    2,    1 ]
    NA   [     6,    0,    2,    2 ]
    NB   [     4,    0,    0,    1 ]

  @DF-UKS Final Energy:  -124.26778050276005

   => Energetics <=

    Nuclear Repulsion Energy =              4.8265731113131238
    One-Electron Energy =                -183.7057700845455201
    Two-Electron Energy =                  66.3660566541243639
    DFT Exchange-Correlation Energy =     -11.7546401836520022
    Empirical Dispersion Energy =           0.0000000000000000
    VV10 Nonlocal Energy =                  0.0000000000000000
    Total Energy =                       -124.2677805027600471

  UHF NO Occupations:
  HONO-2 :    2 B1 1.0000000
  HONO-1 :    5 A1 1.0000000
  HONO-0 :    6 A1 1.0000000
  LUNO+0 :    7 A1 0.0003064
  LUNO+1 :    8 A1 0.0000548
  LUNO+2 :    3 B2 0.0000546
  LUNO+3 :    9 A1 0.0000005

Computation Completed

Properties will be evaluated at   0.000000,   0.000000,   0.000000 [a0]

Properties computed using the SCF density matrix

 Multipole Moments:

 ------------------------------------------------------------------------------------
     Multipole            Electronic (a.u.)      Nuclear  (a.u.)        Total (a.u.)
 ------------------------------------------------------------------------------------

 L = 1.  Multiply by 2.5417464519 to convert [e a0] to [Debye]
 Dipole X            :          0.0000000            0.0000000            0.0000000
 Dipole Y            :          0.0000000            0.0000000            0.0000000
 Dipole Z            :         -4.6237656           -1.2712999           -5.8950655
 Magnitude           :                                                    5.8950655

 ------------------------------------------------------------------------------------

*** tstop() called on Joses-MacBook-Pro-2.local at Thu Jul 17 09:50:55 2025
Module time:
	user time   =       0.85 seconds =       0.01 minutes
	system time =       1.59 seconds =       0.03 minutes
	total time  =          1 seconds =       0.02 minutes
Total time:
	user time   =      65.36 seconds =       1.09 minutes
	system time =      82.93 seconds =       1.38 minutes
	total time  =         14 seconds =       0.23 minutes

*** tstart() called on Joses-MacBook-Pro-2.local
*** at Thu Jul 17 09:50:55 2025

         ------------------------------------------------------------
                                   SCF GRAD
                          Rob Parrish, Justin Turney,
                       Andy Simmonett, and Alex Sokolov
         ------------------------------------------------------------

  ==> Geometry <==

    Molecular point group: c2v
    Full point group: C_inf_v

    Geometry (in Angstrom), charge = -1, multiplicity = 6:

       Center              X                  Y                   Z               Mass
    ------------   -----------------  -----------------  -----------------  -----------------
         B            0.000000000000     0.000000000000     3.123625965424    11.009305360000
         F            0.000000000000     0.000000000000    -1.810096974426    18.998403162730

  Nuclear repulsion =    4.826573111313124

  ==> Basis Set <==

  Basis Set: CC-PVDZ
    Blend: CC-PVDZ
    Number of shells: 12
    Number of basis functions: 28
    Number of Cartesian functions: 30
    Spherical Harmonics?: true
    Max angular momentum: 2

  ==> DFJKGrad: Density-Fitted SCF Gradients <==

    Gradient:                    1
    J tasked:                  Yes
    K tasked:                  Yes
    wK tasked:                  No
    OpenMP threads:              1
    Integrals threads:           1
    Memory [MiB]:              375
    Schwarz Cutoff:          1E-12
    Fitting Condition:       1E-10

   => Auxiliary Basis Set <=

  Basis Set: (CC-PVDZ AUX)
    Blend: CC-PVDZ-JKFIT
    Number of shells: 48
    Number of basis functions: 140
    Number of Cartesian functions: 162
    Spherical Harmonics?: true
    Max angular momentum: 3

  ==> DFT Potential <==

   => LibXC <=

    Version 6.2.2
    S. Lehtola, C. Steigemann, M. J.T. Oliveira, and M. A.L. Marques.,  SoftwareX 7, 1â€“5 (2018) (10.1016/j.softx.2017.11.002)

   => Composite Functional: B3LYP <=

    B3LYP Hyb-GGA Exchange-Correlation Functional

    P. J. Stephens, F. J. Devlin, C. F. Chabalowski, and M. J. Frisch.,  J. Phys. Chem. 98, 11623 (1994) (10.1021/j100096a001)

    Deriv               =              1
    GGA                 =           TRUE
    Meta                =          FALSE

    Exchange Hybrid     =           TRUE
    MP2 Hybrid          =          FALSE

   => Exchange Functionals <=

    0.0800   Slater exchange
    0.7200         Becke 88

   => Exact (HF) Exchange <=

    0.2000               HF

   => Correlation Functionals <=

    0.1900   Vosko, Wilk & Nusair (VWN5_RPA)
    0.8100   Lee, Yang & Parr

   => LibXC Density Thresholds  <==

    XC_HYB_GGA_XC_B3LYP:  1.00E-15

   => Molecular Quadrature <=

    Radial Scheme          =       TREUTLER
    Pruning Scheme         =           NONE
    Nuclear Scheme         =       TREUTLER

    Blocking Scheme        =         OCTREE
    BS radius alpha        =              1
    Pruning alpha          =              1
    Radial Points          =             75
    Spherical Points       =            302
    Total Points           =          43688
    Total Blocks           =            438
    Max Points             =            256
    Max Functions          =             28
    Weights Tolerance      =       1.00E-15

  -Total Gradient:
     Atom            X                  Y                   Z
    ------   -----------------  -----------------  -----------------
       1       -0.000000000000    -0.000000000000    -0.000066607004
       2        0.000000000000    -0.000000000000     0.000091777256

*** tstop() called on Joses-MacBook-Pro-2.local at Thu Jul 17 09:50:55 2025
Module time:
	user time   =       0.52 seconds =       0.01 minutes
	system time =       0.74 seconds =       0.01 minutes
	total time  =          0 seconds =       0.00 minutes
Total time:
	user time   =      65.90 seconds =       1.10 minutes
	system time =      83.67 seconds =       1.39 minutes
	total time  =         14 seconds =       0.23 minutes

    			-----------------------------------------

    			 OPTKING 3.0: for geometry optimizations

    			     By R.A. King, Bethel University

    			        with contributions from

    			    A.V. Copan, J. Cayton, A. Heide

    			-----------------------------------------

	                            ===> Fragment 1 <==

	 Z (Atomic Numbers)          Masses                          Geom
	       5.000000            11.009305          0.00000000  0.00000000  5.90279759
	       9.000000            18.998403          0.00000000  0.00000000 -3.42058754

	 - Coordinate -           - BOHR/RAD -       - ANG/DEG -
	 R(1,2)           =         9.323385           4.933723

	        --- Internal Coordinate Step in ANG or DEG, aJ/ANG or AJ/DEG ---
	-------------------------------------------------------------------------------
	           Coordinate      Previous         Force          Change          New
	           ----------      --------        ------          ------        ------
	               R(1,2)       4.93372        0.00065        0.00068       4.93440
	-------------------------------------------------------------------------------

	                                 ==> Convergence Check <==

	Measures of convergence in internal coordinates in au.

	Criteria marked as inactive (o), active & met (*), and active & unmet ( ).

	----------------------------------------------------------------------------------------------
	   Step    Total Energy     Delta E     Max Force     RMS Force      Max Disp      RMS Disp
	----------------------------------------------------------------------------------------------
	  Convergence Criteria     1.00e-06 *    3.00e-04 *             o    1.20e-03 *             o
	----------------------------------------------------------------------------------------------
	    19    -124.26778050   -8.88e-08 *    7.92e-05 *    7.92e-05 o    1.28e-03      1.28e-03 o  ~
	----------------------------------------------------------------------------------------------

Next Geometry in Ang
	Fragment 1 (Ang)

	    B   0.0000000000   0.0000000000   3.1239648327
	    F   0.0000000000   0.0000000000  -1.8104358417

    Final optimized geometry and variables:
    Molecular point group: c2v
    Full point group: C_inf_v

    Geometry (in Angstrom), charge = -1, multiplicity = 6:

    B            0.000000000000     0.000000000000     3.123625965424
    F            0.000000000000     0.000000000000    -1.810096974426

    Psi4 stopped on: Thursday, 17 July 2025 09:50AM
    Psi4 wall time for execution: 0:00:14.66

*** Psi4 exiting successfully. Buy a developer a beer!
