                               Psi4 1.9.1 release

  ==> Input File <==

--------------------------------------------------------------------------
molecule {
-1 6
Al   0.00000        0.60000        0.00000
P   0.00000       -0.60000        0.00000
}

set {
basis              cc-pvdz
reference          uks
maxiter            500
geom_maxiter       500
DAMPING_PERCENTAGE 1
guess              SAP
}

optimize('b3lyp')
--------------------------------------------------------------------------

    Molecular point group: c2v
  Charge       = -1
  Multiplicity = 6
  Basis Set: CC-PVDZ
    Blend: CC-PVDZ
  Basis Set: (CC-PVDZ AUX)
    Blend: CC-PVDZ-JKFIT
  @DF-UKS Final Energy:  -582.29390936619370
    Total Energy =                       -582.2939093661935885
 Dipole X            :          0.0000000            0.0000000            0.0000000
 Dipole Y            :          0.0000000            0.0000000            0.0000000
 Dipole Z            :         -2.5286457           -0.0807668           -2.6094124
 Magnitude           :                                                    2.6094124
    Molecular point group: c2v
  Basis Set: CC-PVDZ
    Blend: CC-PVDZ
  Basis Set: (CC-PVDZ AUX)
    Blend: CC-PVDZ-JKFIT
  Basis Set: CC-PVDZ
    Blend: CC-PVDZ
  Basis Set: (CC-PVDZ AUX)
    Blend: CC-PVDZ-JKFIT
  @DF-UKS Final Energy:  -582.31655263073640
    Total Energy =                       -582.3165526307363962
  Basis Set: CC-PVDZ
    Blend: CC-PVDZ
  Basis Set: (CC-PVDZ AUX)
    Blend: CC-PVDZ-JKFIT
  Basis Set: CC-PVDZ
    Blend: CC-PVDZ
  @DF-UKS Final Energy:  -582.36007754845525
    Total Energy =                       -582.3600775484553651
  @DF-UKS Final Energy:  -582.51577093175968
    Total Energy =                       -582.5157709317597892
  @DF-UKS Final Energy:  -583.11746023813907
    Total Energy =                       -583.1174602381391878
  @DF-UKS Final Energy:  -583.36200866993602
    Total Energy =                       -583.3620086699360172
  @DF-UKS Final Energy:  -583.48234491631104
    Total Energy =                       -583.4823449163110354
  @DF-UKS Final Energy:  -583.61509801216857
    Total Energy =                       -583.6150980121685734
  @DF-UKS Final Energy:  -583.65812788885739
    Total Energy =                       -583.6581278888572797
  @DF-UKS Final Energy:  -583.66838523805075
    Total Energy =                       -583.6683852380507460
  @DF-UKS Final Energy:  -583.67299637502708
    Total Energy =                       -583.6729963750270826
  @DF-UKS Final Energy:  -583.67407922563746
    Total Energy =                       -583.6740792256374561
  @DF-UKS Final Energy:  -583.67445146220894
    Total Energy =                       -583.6744514622090492
  @DF-UKS Final Energy:  -583.67452498085868
    Total Energy =                       -583.6745249808584504
  @DF-UKS Final Energy:  -583.67454129279849
    Total Energy =                       -583.6745412927984944
  Basis Set: (CC-PVDZ AUX)
    Blend: CC-PVDZ-JKFIT
  Basis Set: CC-PVDZ
    Blend: CC-PVDZ
  Basis Set: (CC-PVDZ AUX)
    Blend: CC-PVDZ-JKFIT
  @DF-UKS Final Energy:  -583.67454578073114
    Total Energy =                       -583.6745457807310231
  Basis Set: CC-PVDZ
    Blend: CC-PVDZ
  Basis Set: (CC-PVDZ AUX)
    Blend: CC-PVDZ-JKFIT
  Charge       = -1
  Multiplicity = 6
  Basis Set: CC-PVDZ
    Blend: CC-PVDZ
  Basis Set: (CC-PVDZ AUX)
    Blend: CC-PVDZ-JKFIT

    Orbital Energies [Eh]
    ---------------------

    Alpha Occupied:

       1A1   -76.931192     2A1   -55.846036     3A1    -6.398734
       1B2    -4.563298     1B1    -4.563298     4A1    -4.558329
       5A1    -3.926927     6A1    -2.480682     2B1    -2.479527
       2B2    -2.479527     7A1    -0.417140     8A1    -0.149144
       3B2    -0.086187     3B1    -0.086187     9A1    -0.052154
       4B2     0.065081     4B1     0.065081

    Alpha Virtual:

      10A1     0.170377    11A1     0.334183    12A1     0.375900
       5B1     0.397687     5B2     0.397687     6B1     0.432474
       6B2     0.432474    13A1     0.448647     1A2     0.448647
      14A1     0.469418     7B2     0.579225     7B1     0.579225
      15A1     0.613184     2A2     0.613187    16A1     0.618911
      17A1     0.663854     8B2     0.718710     8B1     0.718710
      18A1     0.965553

    Beta Occupied:

       1A1   -76.921188     2A1   -55.841351     3A1    -6.388099
       4A1    -4.546402     1B2    -4.545777     1B1    -4.545777
       5A1    -3.920570     6A1    -2.476148     2B1    -2.471072
       2B2    -2.471072     7A1    -0.322837     8A1    -0.085874

    Beta Virtual:

       3B2     0.051422     3B1     0.051422     9A1     0.056153
       4B2     0.166559     4B1     0.166559    10A1     0.207229
      11A1     0.362118    12A1     0.407610     5B1     0.434681
       5B2     0.434681     6B1     0.489380     6B2     0.489380
      13A1     0.509763    14A1     0.518339     1A2     0.518340
       7B2     0.632291     7B1     0.632291    15A1     0.663319
      16A1     0.705569    17A1     0.708967     2A2     0.708969
       8B2     0.783407     8B1     0.783407    18A1     1.009376

    Final Occupation by Irrep:
             A1    A2    B1    B2
    DOCC [     8,    0,    2,    2 ]
    SOCC [     1,    0,    2,    2 ]
    NA   [     9,    0,    4,    4 ]
    NB   [     8,    0,    2,    2 ]

  @DF-UKS Final Energy:  -583.67454621615900

   => Energetics <=

    Nuclear Repulsion Energy =             38.4599210042081694
    One-Electron Energy =                -890.7438476387676474
    Two-Electron Energy =                 302.4396295930390579
    DFT Exchange-Correlation Energy =     -33.8302491746385385
    Empirical Dispersion Energy =           0.0000000000000000
    VV10 Nonlocal Energy =                  0.0000000000000000
    Total Energy =                       -583.6745462161590012

  UHF NO Occupations:
  HONO-2 :    3 B1 1.0000000
  HONO-1 :    4 B2 1.0000000
  HONO-0 :    4 B1 1.0000000
  LUNO+0 :   10 A1 0.0031191
  LUNO+1 :   11 A1 0.0002993
  LUNO+2 :   12 A1 0.0000002
  LUNO+3 :    5 B2 0.0000001

Computation Completed

Properties will be evaluated at   0.000000,   0.000000,   0.000000 [a0]

Properties computed using the SCF density matrix

 Multipole Moments:

 ------------------------------------------------------------------------------------
     Multipole            Electronic (a.u.)      Nuclear  (a.u.)        Total (a.u.)
 ------------------------------------------------------------------------------------

 L = 1.  Multiply by 2.5417464519 to convert [e a0] to [Debye]
 Dipole X            :          0.0000000            0.0000000            0.0000000
 Dipole Y            :          0.0000000            0.0000000            0.0000000
 Dipole Z            :         -1.6572319           -0.1805839           -1.8378158
 Magnitude           :                                                    1.8378158

 ------------------------------------------------------------------------------------

*** tstop() called on Joses-MacBook-Pro-2.local at Thu Jul 17 11:39:06 2025
Module time:
	user time   =      13.52 seconds =       0.23 minutes
	system time =       2.24 seconds =       0.04 minutes
	total time  =          2 seconds =       0.03 minutes
Total time:
	user time   =     289.74 seconds =       4.83 minutes
	system time =      69.48 seconds =       1.16 minutes
	total time  =         37 seconds =       0.62 minutes

*** tstart() called on Joses-MacBook-Pro-2.local
*** at Thu Jul 17 11:39:06 2025

         ------------------------------------------------------------
                                   SCF GRAD
                          Rob Parrish, Justin Turney,
                       Andy Simmonett, and Alex Sokolov
         ------------------------------------------------------------

  ==> Geometry <==

    Molecular point group: c2v
    Full point group: C_inf_v

    Geometry (in Angstrom), charge = -1, multiplicity = 6:

       Center              X                  Y                   Z               Mass
    ------------   -----------------  -----------------  -----------------  -----------------
         AL           0.000000000000     0.000000000000     1.433930660418    26.981538530000
         P            0.000000000000     0.000000000000    -1.249110630003    30.973761998420

  Nuclear repulsion =   38.459921004208169

  ==> Basis Set <==

  Basis Set: CC-PVDZ
    Blend: CC-PVDZ
    Number of shells: 16
    Number of basis functions: 36
    Number of Cartesian functions: 38
    Spherical Harmonics?: true
    Max angular momentum: 2

  ==> DFJKGrad: Density-Fitted SCF Gradients <==

    Gradient:                    1
    J tasked:                  Yes
    K tasked:                  Yes
    wK tasked:                  No
    OpenMP threads:              1
    Integrals threads:           1
    Memory [MiB]:              375
    Schwarz Cutoff:          1E-12
    Fitting Condition:       1E-10

   => Auxiliary Basis Set <=

  Basis Set: (CC-PVDZ AUX)
    Blend: CC-PVDZ-JKFIT
    Number of shells: 72
    Number of basis functions: 224
    Number of Cartesian functions: 260
    Spherical Harmonics?: true
    Max angular momentum: 3

  ==> DFT Potential <==

   => LibXC <=

    Version 6.2.2
    S. Lehtola, C. Steigemann, M. J.T. Oliveira, and M. A.L. Marques.,  SoftwareX 7, 1â€“5 (2018) (10.1016/j.softx.2017.11.002)

   => Composite Functional: B3LYP <=

    B3LYP Hyb-GGA Exchange-Correlation Functional

    P. J. Stephens, F. J. Devlin, C. F. Chabalowski, and M. J. Frisch.,  J. Phys. Chem. 98, 11623 (1994) (10.1021/j100096a001)

    Deriv               =              1
    GGA                 =           TRUE
    Meta                =          FALSE

    Exchange Hybrid     =           TRUE
    MP2 Hybrid          =          FALSE

   => Exchange Functionals <=

    0.0800   Slater exchange
    0.7200         Becke 88

   => Exact (HF) Exchange <=

    0.2000               HF

   => Correlation Functionals <=

    0.1900   Vosko, Wilk & Nusair (VWN5_RPA)
    0.8100   Lee, Yang & Parr

   => LibXC Density Thresholds  <==

    XC_HYB_GGA_XC_B3LYP:  1.00E-15

   => Molecular Quadrature <=

    Radial Scheme          =       TREUTLER
    Pruning Scheme         =           NONE
    Nuclear Scheme         =       TREUTLER

    Blocking Scheme        =         OCTREE
    BS radius alpha        =              1
    Pruning alpha          =              1
    Radial Points          =             75
    Spherical Points       =            302
    Total Points           =          42705
    Total Blocks           =            402
    Max Points             =            256
    Max Functions          =             36
    Weights Tolerance      =       1.00E-15

  -Total Gradient:
     Atom            X                  Y                   Z
    ------   -----------------  -----------------  -----------------
       1        0.000000000000     0.000000000000    -0.000020722486
       2        0.000000000000     0.000000000000     0.000050124639

*** tstop() called on Joses-MacBook-Pro-2.local at Thu Jul 17 11:39:06 2025
Module time:
	user time   =       3.08 seconds =       0.05 minutes
	system time =       1.73 seconds =       0.03 minutes
	total time  =          0 seconds =       0.00 minutes
Total time:
	user time   =     292.82 seconds =       4.88 minutes
	system time =      71.22 seconds =       1.19 minutes
	total time  =         37 seconds =       0.62 minutes

    			-----------------------------------------

    			 OPTKING 3.0: for geometry optimizations

    			     By R.A. King, Bethel University

    			        with contributions from

    			    A.V. Copan, J. Cayton, A. Heide

    			-----------------------------------------

	                            ===> Fragment 1 <==

	 Z (Atomic Numbers)          Masses                          Geom
	      13.000000            26.981539          0.00000000  0.00000000  2.70973623
	      15.000000            30.973762          0.00000000  0.00000000 -2.36047699

	 - Coordinate -           - BOHR/RAD -       - ANG/DEG -
	 R(1,2)           =         5.070213           2.683041

	        --- Internal Coordinate Step in ANG or DEG, aJ/ANG or AJ/DEG ---
	-------------------------------------------------------------------------------
	           Coordinate      Previous         Force          Change          New
	           ----------      --------        ------          ------        ------
	               R(1,2)       2.68304        0.00029        0.00063       2.68367
	-------------------------------------------------------------------------------

	                                 ==> Convergence Check <==

	Measures of convergence in internal coordinates in au.

	Criteria marked as inactive (o), active & met (*), and active & unmet ( ).

	----------------------------------------------------------------------------------------------
	   Step    Total Energy     Delta E     Max Force     RMS Force      Max Disp      RMS Disp
	----------------------------------------------------------------------------------------------
	  Convergence Criteria     1.00e-06 *    3.00e-04 *             o    1.20e-03 *             o
	----------------------------------------------------------------------------------------------
	    17    -583.67454622   -4.35e-07 *    3.54e-05 *    3.54e-05 o    1.18e-03 *    1.18e-03 o  ~
	----------------------------------------------------------------------------------------------

Next Geometry in Ang
	Fragment 1 (Ang)

	   Al   0.0000000000   0.0000000000   1.4342436605
	    P   0.0000000000   0.0000000000  -1.2494236301

    Final optimized geometry and variables:
    Molecular point group: c2v
    Full point group: C_inf_v

    Geometry (in Angstrom), charge = -1, multiplicity = 6:

    AL           0.000000000000     0.000000000000     1.433930660418
    P            0.000000000000     0.000000000000    -1.249110630003

    Psi4 stopped on: Thursday, 17 July 2025 11:39AM
    Psi4 wall time for execution: 0:00:37.70

*** Psi4 exiting successfully. Buy a developer a beer!
