                               Psi4 1.9.1 release

  ==> Input File <==

--------------------------------------------------------------------------
molecule {
-1 6
Be   0.00000        0.60000        0.00000
Ar   0.00000       -0.60000        0.00000
}

set {
basis              cc-pvdz
reference          uks
maxiter            500
geom_maxiter       500
DAMPING_PERCENTAGE 1
guess              SAP
}

optimize('b3lyp')
--------------------------------------------------------------------------

    Molecular point group: c2v
  Charge       = -1
  Multiplicity = 6
  Basis Set: CC-PVDZ
    Blend: CC-PVDZ
  Basis Set: (CC-PVDZ AUX)
    Blend: CC-PVDZ-JKFIT + DEF2-UNIVERSAL-JKFIT
  @DF-UKS Final Energy:  -541.02589793036248
    Total Energy =                       -541.0258979303624756
 Dipole X            :          0.0000000            0.0000000            0.0000000
 Dipole Y            :          0.0000000            0.0000000            0.0000000
 Dipole Z            :         -3.4465765           -0.1097272           -3.5563037
 Magnitude           :                                                    3.5563037
    Molecular point group: c2v
  Basis Set: CC-PVDZ
    Blend: CC-PVDZ
  Basis Set: (CC-PVDZ AUX)
    Blend: CC-PVDZ-JKFIT + DEF2-UNIVERSAL-JKFIT
  Basis Set: CC-PVDZ
    Blend: CC-PVDZ
  Basis Set: (CC-PVDZ AUX)
    Blend: CC-PVDZ-JKFIT + DEF2-UNIVERSAL-JKFIT
  @DF-UKS Final Energy:  -541.22438087673322
    Total Energy =                       -541.2243808767332212
  Basis Set: CC-PVDZ
    Blend: CC-PVDZ
  Basis Set: (CC-PVDZ AUX)
    Blend: CC-PVDZ-JKFIT + DEF2-UNIVERSAL-JKFIT
  Basis Set: CC-PVDZ
    Blend: CC-PVDZ
  @DF-UKS Final Energy:  -541.36154954252970
    Total Energy =                       -541.3615495425297013
  @DF-UKS Final Energy:  -541.45050778697589
    Total Energy =                       -541.4505077869758907
  @DF-UKS Final Energy:  -541.51803741111053
    Total Energy =                       -541.5180374111105266
  @DF-UKS Final Energy:  -541.57843178476696
    Total Energy =                       -541.5784317847669627
  @DF-UKS Final Energy:  -541.59152911528452
    Total Energy =                       -541.5915291152846294
  @DF-UKS Final Energy:  -541.62017923736266
    Total Energy =                       -541.6201792373626631
  @DF-UKS Final Energy:  -541.62223754091463
    Total Energy =                       -541.6222375409146252
  @DF-UKS Final Energy:  -541.62801679147060
    Total Energy =                       -541.6280167914704862
  @DF-UKS Final Energy:  -541.62864702662762
    Total Energy =                       -541.6286470266276183
  @DF-UKS Final Energy:  -541.62869761552497
    Total Energy =                       -541.6286976155249704
  Basis Set: (CC-PVDZ AUX)
    Blend: CC-PVDZ-JKFIT + DEF2-UNIVERSAL-JKFIT
  Basis Set: CC-PVDZ
    Blend: CC-PVDZ
  Basis Set: (CC-PVDZ AUX)
    Blend: CC-PVDZ-JKFIT + DEF2-UNIVERSAL-JKFIT
  @DF-UKS Final Energy:  -541.62870096980078
    Total Energy =                       -541.6287009698007751
  Basis Set: CC-PVDZ
    Blend: CC-PVDZ
  Basis Set: (CC-PVDZ AUX)
    Blend: CC-PVDZ-JKFIT + DEF2-UNIVERSAL-JKFIT
  Charge       = -1
  Multiplicity = 6
  Basis Set: CC-PVDZ
    Blend: CC-PVDZ
  Basis Set: (CC-PVDZ AUX)
    Blend: CC-PVDZ-JKFIT + DEF2-UNIVERSAL-JKFIT

    Orbital Energies [Eh]
    ---------------------

    Alpha Occupied:

       1A1  -115.275059     2A1   -11.301162     3A1    -8.873548
       1B2    -8.843773     1B1    -8.843773     4A1    -3.776771
       5A1    -1.101841     6A1    -0.579127     2B2    -0.516462
       2B1    -0.516462     7A1    -0.014729     3B1     0.126924
       3B2     0.126924     8A1     0.130356

    Alpha Virtual:

       9A1     0.348463     4B2     0.425088     4B1     0.425088
      10A1     0.437226    11A1     0.548768     5B1     0.556332
       5B2     0.556332    12A1     0.632773     6B1     0.660653
       6B2     0.660653    13A1     0.724301     1A2     0.727698
      14A1     0.727702     2A2     0.744591    15A1     0.744603
       7B1     0.784614     7B2     0.784614    16A1     1.085412

    Beta Occupied:

       1A1  -115.265123     2A1   -11.291438     3A1    -8.844389
       1B1    -8.837466     1B2    -8.837466     4A1    -3.760029
       5A1    -1.035896     2B2    -0.494011     2B1    -0.494011

    Beta Virtual:

       6A1    -0.385467     7A1     0.159417     8A1     0.267328
       3B1     0.267451     3B2     0.267451     9A1     0.426352
       4B2     0.493555     4B1     0.493555    10A1     0.511079
       5B1     0.580960     5B2     0.580960    11A1     0.600573
      12A1     0.725112     6B1     0.740816     6B2     0.740816
       1A2     0.753278    13A1     0.753293    14A1     0.808212
      15A1     0.858431     2A2     0.858476     7B1     0.887323
       7B2     0.887323    16A1     1.153456

    Final Occupation by Irrep:
             A1    A2    B1    B2
    DOCC [     5,    0,    2,    2 ]
    SOCC [     3,    0,    1,    1 ]
    NA   [     8,    0,    3,    3 ]
    NB   [     5,    0,    2,    2 ]

  @DF-UKS Final Energy:  -541.62870098396093

   => Energetics <=

    Nuclear Repulsion Energy =             13.4463988154078553
    One-Electron Energy =                -772.7432337499060395
    Two-Electron Energy =                 244.8004765713055804
    DFT Exchange-Correlation Energy =     -27.1323426207682914
    Empirical Dispersion Energy =           0.0000000000000000
    VV10 Nonlocal Energy =                  0.0000000000000000
    Total Energy =                       -541.6287009839609254

  UHF NO Occupations:
  HONO-2 :    6 A1 1.0000000
  HONO-1 :    7 A1 1.0000000
  HONO-0 :    8 A1 1.0000000
  LUNO+0 :    9 A1 0.0007975
  LUNO+1 :    4 B2 0.0000528
  LUNO+2 :    4 B1 0.0000528
  LUNO+3 :   10 A1 0.0000000

Computation Completed

Properties will be evaluated at   0.000000,   0.000000,   0.000000 [a0]

Properties computed using the SCF density matrix

 Multipole Moments:

 ------------------------------------------------------------------------------------
     Multipole            Electronic (a.u.)      Nuclear  (a.u.)        Total (a.u.)
 ------------------------------------------------------------------------------------

 L = 1.  Multiply by 2.5417464519 to convert [e a0] to [Debye]
 Dipole X            :          0.0000000            0.0000000            0.0000000
 Dipole Y            :          0.0000000            0.0000000            0.0000000
 Dipole Z            :         -8.8964037           -0.2590960           -9.1554997
 Magnitude           :                                                    9.1554997

 ------------------------------------------------------------------------------------

*** tstop() called on Joses-MacBook-Pro-2.local at Thu Jul 17 09:48:48 2025
Module time:
	user time   =       2.94 seconds =       0.05 minutes
	system time =       2.57 seconds =       0.04 minutes
	total time  =          1 seconds =       0.02 minutes
Total time:
	user time   =      61.59 seconds =       1.03 minutes
	system time =      77.63 seconds =       1.29 minutes
	total time  =         13 seconds =       0.22 minutes

*** tstart() called on Joses-MacBook-Pro-2.local
*** at Thu Jul 17 09:48:48 2025

         ------------------------------------------------------------
                                   SCF GRAD
                          Rob Parrish, Justin Turney,
                       Andy Simmonett, and Alex Sokolov
         ------------------------------------------------------------

  ==> Geometry <==

    Molecular point group: c2v
    Full point group: C_inf_v

    Geometry (in Angstrom), charge = -1, multiplicity = 6:

       Center              X                  Y                   Z               Mass
    ------------   -----------------  -----------------  -----------------  -----------------
         BE           0.000000000000     0.000000000000     2.312109629363     9.012183065000
         AR           0.000000000000     0.000000000000    -0.521419235226    39.962383123700

  Nuclear repulsion =   13.446398815407855

  ==> Basis Set <==

  Basis Set: CC-PVDZ
    Blend: CC-PVDZ
    Number of shells: 14
    Number of basis functions: 32
    Number of Cartesian functions: 34
    Spherical Harmonics?: true
    Max angular momentum: 2

  ==> DFJKGrad: Density-Fitted SCF Gradients <==

    Gradient:                    1
    J tasked:                  Yes
    K tasked:                  Yes
    wK tasked:                  No
    OpenMP threads:              1
    Integrals threads:           1
    Memory [MiB]:              375
    Schwarz Cutoff:          1E-12
    Fitting Condition:       1E-10

   => Auxiliary Basis Set <=

  Basis Set: (CC-PVDZ AUX)
    Blend: CC-PVDZ-JKFIT + DEF2-UNIVERSAL-JKFIT
    Number of shells: 53
    Number of basis functions: 163
    Number of Cartesian functions: 190
    Spherical Harmonics?: true
    Max angular momentum: 3

  ==> DFT Potential <==

   => LibXC <=

    Version 6.2.2
    S. Lehtola, C. Steigemann, M. J.T. Oliveira, and M. A.L. Marques.,  SoftwareX 7, 1â€“5 (2018) (10.1016/j.softx.2017.11.002)

   => Composite Functional: B3LYP <=

    B3LYP Hyb-GGA Exchange-Correlation Functional

    P. J. Stephens, F. J. Devlin, C. F. Chabalowski, and M. J. Frisch.,  J. Phys. Chem. 98, 11623 (1994) (10.1021/j100096a001)

    Deriv               =              1
    GGA                 =           TRUE
    Meta                =          FALSE

    Exchange Hybrid     =           TRUE
    MP2 Hybrid          =          FALSE

   => Exchange Functionals <=

    0.0800   Slater exchange
    0.7200         Becke 88

   => Exact (HF) Exchange <=

    0.2000               HF

   => Correlation Functionals <=

    0.1900   Vosko, Wilk & Nusair (VWN5_RPA)
    0.8100   Lee, Yang & Parr

   => LibXC Density Thresholds  <==

    XC_HYB_GGA_XC_B3LYP:  1.00E-15

   => Molecular Quadrature <=

    Radial Scheme          =       TREUTLER
    Pruning Scheme         =           NONE
    Nuclear Scheme         =       TREUTLER

    Blocking Scheme        =         OCTREE
    BS radius alpha        =              1
    Pruning alpha          =              1
    Radial Points          =             75
    Spherical Points       =            302
    Total Points           =          42818
    Total Blocks           =            402
    Max Points             =            254
    Max Functions          =             32
    Weights Tolerance      =       1.00E-15

  -Total Gradient:
     Atom            X                  Y                   Z
    ------   -----------------  -----------------  -----------------
       1        0.000000000000    -0.000000000000     0.000005606988
       2        0.000000000000     0.000000000000     0.000015750492

*** tstop() called on Joses-MacBook-Pro-2.local at Thu Jul 17 09:48:48 2025
Module time:
	user time   =       0.78 seconds =       0.01 minutes
	system time =       1.60 seconds =       0.03 minutes
	total time  =          0 seconds =       0.00 minutes
Total time:
	user time   =      62.37 seconds =       1.04 minutes
	system time =      79.24 seconds =       1.32 minutes
	total time  =         13 seconds =       0.22 minutes

    			-----------------------------------------

    			 OPTKING 3.0: for geometry optimizations

    			     By R.A. King, Bethel University

    			        with contributions from

    			    A.V. Copan, J. Cayton, A. Heide

    			-----------------------------------------

	                            ===> Fragment 1 <==

	 Z (Atomic Numbers)          Masses                          Geom
	       4.000000             9.012183          0.00000000  0.00000000  4.36925397
	      18.000000            39.962383          0.00000000  0.00000000 -0.98533955

	 - Coordinate -           - BOHR/RAD -       - ANG/DEG -
	 R(1,2)           =         5.354594           2.833529

	        --- Internal Coordinate Step in ANG or DEG, aJ/ANG or AJ/DEG ---
	-------------------------------------------------------------------------------
	           Coordinate      Previous         Force          Change          New
	           ----------      --------        ------          ------        ------
	               R(1,2)       2.83353        0.00004        0.00007       2.83360
	-------------------------------------------------------------------------------

	                                 ==> Convergence Check <==

	Measures of convergence in internal coordinates in au.

	Criteria marked as inactive (o), active & met (*), and active & unmet ( ).

	----------------------------------------------------------------------------------------------
	   Step    Total Energy     Delta E     Max Force     RMS Force      Max Disp      RMS Disp
	----------------------------------------------------------------------------------------------
	  Convergence Criteria     1.00e-06 *    3.00e-04 *             o    1.20e-03 *             o
	----------------------------------------------------------------------------------------------
	    14    -541.62870098   -1.42e-08 *    5.07e-06 *    5.07e-06 o    1.30e-04 *    1.30e-04 o  ~
	----------------------------------------------------------------------------------------------

Next Geometry in Ang
	Fragment 1 (Ang)

	   Be   0.0000000000   0.0000000000   2.3121441303
	   Ar   0.0000000000   0.0000000000  -0.5214537362

    Final optimized geometry and variables:
    Molecular point group: c2v
    Full point group: C_inf_v

    Geometry (in Angstrom), charge = -1, multiplicity = 6:

    BE           0.000000000000     0.000000000000     2.312109629363
    AR           0.000000000000     0.000000000000    -0.521419235226

    Psi4 stopped on: Thursday, 17 July 2025 09:48AM
    Psi4 wall time for execution: 0:00:14.22

*** Psi4 exiting successfully. Buy a developer a beer!
