                               Psi4 1.9.1 release

  ==> Input File <==

--------------------------------------------------------------------------
molecule {
-1 6
He   0.00000        0.60000        0.00000
S   0.00000       -0.60000        0.00000
}

set {
basis              cc-pvdz
reference          uks
maxiter            500
geom_maxiter       500
DAMPING_PERCENTAGE 1
guess              SAP
}

optimize('b3lyp')
--------------------------------------------------------------------------

    Molecular point group: c2v
  Charge       = -1
  Multiplicity = 6
  Basis Set: CC-PVDZ
    Blend: CC-PVDZ
  Basis Set: (CC-PVDZ AUX)
    Blend: CC-PVDZ-JKFIT + DEF2-UNIVERSAL-JKFIT
  @DF-UKS Final Energy:  -399.69802588041176
    Total Energy =                       -399.6980258804117057
 Dipole X            :          0.0000000            0.0000000            0.0000000
 Dipole Y            :          0.0000000            0.0000000            0.0000000
 Dipole Z            :          0.3924649           -0.0061465            0.3863184
 Magnitude           :                                                    0.3863184
    Molecular point group: c2v
  Basis Set: CC-PVDZ
    Blend: CC-PVDZ
  Basis Set: (CC-PVDZ AUX)
    Blend: CC-PVDZ-JKFIT + DEF2-UNIVERSAL-JKFIT
  Basis Set: CC-PVDZ
    Blend: CC-PVDZ
  Basis Set: (CC-PVDZ AUX)
    Blend: CC-PVDZ-JKFIT + DEF2-UNIVERSAL-JKFIT
  @DF-UKS Final Energy:  -399.80135090992633
    Total Energy =                       -399.8013509099263274
  Basis Set: CC-PVDZ
    Blend: CC-PVDZ
  Basis Set: (CC-PVDZ AUX)
    Blend: CC-PVDZ-JKFIT + DEF2-UNIVERSAL-JKFIT
  Basis Set: CC-PVDZ
    Blend: CC-PVDZ
  @DF-UKS Final Energy:  -399.81745223526417
    Total Energy =                       -399.8174522352641702
  @DF-UKS Final Energy:  -399.82938494351737
    Total Energy =                       -399.8293849435173115
  @DF-UKS Final Energy:  -399.85056380676571
    Total Energy =                       -399.8505638067657060
  @DF-UKS Final Energy:  -399.89348118417274
    Total Energy =                       -399.8934811841727424
  @DF-UKS Final Energy:  -399.89555148737441
    Total Energy =                       -399.8955514873744050
  @DF-UKS Final Energy:  -399.90112915271669
    Total Energy =                       -399.9011291527166918
  @DF-UKS Final Energy:  -399.90299372275632
    Total Energy =                       -399.9029937227563209
  @DF-UKS Final Energy:  -399.90342452932009
    Total Energy =                       -399.9034245293200911
  @DF-UKS Final Energy:  -399.90349306362742
    Total Energy =                       -399.9034930636274225
  Basis Set: (CC-PVDZ AUX)
    Blend: CC-PVDZ-JKFIT + DEF2-UNIVERSAL-JKFIT
  Basis Set: CC-PVDZ
    Blend: CC-PVDZ
  Basis Set: (CC-PVDZ AUX)
    Blend: CC-PVDZ-JKFIT + DEF2-UNIVERSAL-JKFIT
  @DF-UKS Final Energy:  -399.90349971211424
    Total Energy =                       -399.9034997121142396
  Basis Set: CC-PVDZ
    Blend: CC-PVDZ
  Basis Set: (CC-PVDZ AUX)
    Blend: CC-PVDZ-JKFIT + DEF2-UNIVERSAL-JKFIT
  Charge       = -1
  Multiplicity = 6
  Basis Set: CC-PVDZ
    Blend: CC-PVDZ
  Basis Set: (CC-PVDZ AUX)
    Blend: CC-PVDZ-JKFIT + DEF2-UNIVERSAL-JKFIT

    Orbital Energies [Eh]
    ---------------------

    Alpha Occupied:

       1A1   -88.495676     2A1    -7.601397     3A1    -5.561649
       1B2    -5.561563     1B1    -5.556940     4A1    -0.484592
       5A1    -0.439200     2B2    -0.041726     6A1    -0.041054
       2B1    -0.036060     7A1     0.615169     3B1     0.636256

    Alpha Virtual:

       8A1     0.702052     3B2     0.703141     9A1     0.827179
       4B2     0.827884     1A2     0.841326     4B1     0.841454
      10A1     0.847281    11A1     1.317379     5B2     2.354865
       5B1     2.355089    12A1     2.363648

    Beta Occupied:

       1A1   -88.465688     2A1    -7.569317     3A1    -5.529020
       1B2    -5.528991     1B1    -5.504091     4A1    -0.482597
       5A1    -0.275819

    Beta Virtual:

       2B2     0.135209     6A1     0.136304     2B1     0.167257
       7A1     0.785073     8A1     0.796775     3B2     0.800050
       3B1     0.832595     9A1     0.938369     4B2     0.939249
       1A2     0.963765     4B1     0.963907    10A1     0.972418
      11A1     1.321929     5B2     2.355509     5B1     2.355755
      12A1     2.364871

    Final Occupation by Irrep:
             A1    A2    B1    B2
    DOCC [     5,    0,    1,    1 ]
    SOCC [     2,    0,    2,    1 ]
    NA   [     7,    0,    3,    2 ]
    NB   [     5,    0,    1,    1 ]

  @DF-UKS Final Energy:  -399.90350052179031

   => Energetics <=

    Nuclear Repulsion Energy =              5.4299900349432013
    One-Electron Energy =                -569.2107738278432407
    Two-Electron Energy =                 185.7126497217233805
    DFT Exchange-Correlation Energy =     -21.8353664506136589
    Empirical Dispersion Energy =           0.0000000000000000
    VV10 Nonlocal Energy =                  0.0000000000000000
    Total Energy =                       -399.9035005217903063

  UHF NO Occupations:
  HONO-2 :    2 B1 1.0000000
  HONO-1 :    3 B1 1.0000000
  HONO-0 :    7 A1 1.0000000
  LUNO+0 :    8 A1 0.0000750
  LUNO+1 :    9 A1 0.0000019
  LUNO+2 :    3 B2 0.0000002
  LUNO+3 :   10 A1 0.0000002

Computation Completed

Properties will be evaluated at   0.000000,   0.000000,   0.000000 [a0]

Properties computed using the SCF density matrix

 Multipole Moments:

 ------------------------------------------------------------------------------------
     Multipole            Electronic (a.u.)      Nuclear  (a.u.)        Total (a.u.)
 ------------------------------------------------------------------------------------

 L = 1.  Multiply by 2.5417464519 to convert [e a0] to [Debye]
 Dipole X            :          0.0000000            0.0000000            0.0000000
 Dipole Y            :          0.0000000            0.0000000            0.0000000
 Dipole Z            :          0.5677294           -0.0159736            0.5517559
 Magnitude           :                                                    0.5517559

 ------------------------------------------------------------------------------------

*** tstop() called on Joses-MacBook-Pro-2.local at Thu Jul 17 09:25:25 2025
Module time:
	user time   =       2.32 seconds =       0.04 minutes
	system time =       3.43 seconds =       0.06 minutes
	total time  =          0 seconds =       0.00 minutes
Total time:
	user time   =      59.75 seconds =       1.00 minutes
	system time =      60.75 seconds =       1.01 minutes
	total time  =         11 seconds =       0.18 minutes

*** tstart() called on Joses-MacBook-Pro-2.local
*** at Thu Jul 17 09:25:25 2025

         ------------------------------------------------------------
                                   SCF GRAD
                          Rob Parrish, Justin Turney,
                       Andy Simmonett, and Alex Sokolov
         ------------------------------------------------------------

  ==> Geometry <==

    Molecular point group: c2v
    Full point group: C_inf_v

    Geometry (in Angstrom), charge = -1, multiplicity = 6:

       Center              X                  Y                   Z               Mass
    ------------   -----------------  -----------------  -----------------  -----------------
         HE           0.000000000000     0.000000000000     2.771570801284     4.002603254130
         S            0.000000000000     0.000000000000    -0.346974653214    31.972071174400

  Nuclear repulsion =    5.429990034943201

  ==> Basis Set <==

  Basis Set: CC-PVDZ
    Blend: CC-PVDZ
    Number of shells: 11
    Number of basis functions: 23
    Number of Cartesian functions: 24
    Spherical Harmonics?: true
    Max angular momentum: 2

  ==> DFJKGrad: Density-Fitted SCF Gradients <==

    Gradient:                    1
    J tasked:                  Yes
    K tasked:                  Yes
    wK tasked:                  No
    OpenMP threads:              1
    Integrals threads:           1
    Memory [MiB]:              375
    Schwarz Cutoff:          1E-12
    Fitting Condition:       1E-10

   => Auxiliary Basis Set <=

  Basis Set: (CC-PVDZ AUX)
    Blend: CC-PVDZ-JKFIT + DEF2-UNIVERSAL-JKFIT
    Number of shells: 45
    Number of basis functions: 135
    Number of Cartesian functions: 155
    Spherical Harmonics?: true
    Max angular momentum: 3

  ==> DFT Potential <==

   => LibXC <=

    Version 6.2.2
    S. Lehtola, C. Steigemann, M. J.T. Oliveira, and M. A.L. Marques.,  SoftwareX 7, 1â€“5 (2018) (10.1016/j.softx.2017.11.002)

   => Composite Functional: B3LYP <=

    B3LYP Hyb-GGA Exchange-Correlation Functional

    P. J. Stephens, F. J. Devlin, C. F. Chabalowski, and M. J. Frisch.,  J. Phys. Chem. 98, 11623 (1994) (10.1021/j100096a001)

    Deriv               =              1
    GGA                 =           TRUE
    Meta                =          FALSE

    Exchange Hybrid     =           TRUE
    MP2 Hybrid          =          FALSE

   => Exchange Functionals <=

    0.0800   Slater exchange
    0.7200         Becke 88

   => Exact (HF) Exchange <=

    0.2000               HF

   => Correlation Functionals <=

    0.1900   Vosko, Wilk & Nusair (VWN5_RPA)
    0.8100   Lee, Yang & Parr

   => LibXC Density Thresholds  <==

    XC_HYB_GGA_XC_B3LYP:  1.00E-15

   => Molecular Quadrature <=

    Radial Scheme          =       TREUTLER
    Pruning Scheme         =           NONE
    Nuclear Scheme         =       TREUTLER

    Blocking Scheme        =         OCTREE
    BS radius alpha        =              1
    Pruning alpha          =              1
    Radial Points          =             75
    Spherical Points       =            302
    Total Points           =          42520
    Total Blocks           =            381
    Max Points             =            256
    Max Functions          =             23
    Weights Tolerance      =       1.00E-15

  -Total Gradient:
     Atom            X                  Y                   Z
    ------   -----------------  -----------------  -----------------
       1        0.000000000000     0.000000000000    -0.000038926998
       2       -0.000000000000    -0.000000000000     0.000026955379

*** tstop() called on Joses-MacBook-Pro-2.local at Thu Jul 17 09:25:25 2025
Module time:
	user time   =       0.43 seconds =       0.01 minutes
	system time =       1.13 seconds =       0.02 minutes
	total time  =          0 seconds =       0.00 minutes
Total time:
	user time   =      60.18 seconds =       1.00 minutes
	system time =      61.89 seconds =       1.03 minutes
	total time  =         11 seconds =       0.18 minutes

    			-----------------------------------------

    			 OPTKING 3.0: for geometry optimizations

    			     By R.A. King, Bethel University

    			        with contributions from

    			    A.V. Copan, J. Cayton, A. Heide

    			-----------------------------------------

	                            ===> Fragment 1 <==

	 Z (Atomic Numbers)          Masses                          Geom
	       2.000000             4.002603          0.00000000  0.00000000  5.23750975
	      16.000000            31.972071          0.00000000  0.00000000 -0.65568707

	 - Coordinate -           - BOHR/RAD -       - ANG/DEG -
	 R(1,2)           =         5.893197           3.118545

	        --- Internal Coordinate Step in ANG or DEG, aJ/ANG or AJ/DEG ---
	-------------------------------------------------------------------------------
	           Coordinate      Previous         Force          Change          New
	           ----------      --------        ------          ------        ------
	               R(1,2)       3.11855        0.00027        0.00240       3.12095
	-------------------------------------------------------------------------------

	                                 ==> Convergence Check <==

	Measures of convergence in internal coordinates in au.

	Criteria marked as inactive (o), active & met (*), and active & unmet ( ).

	----------------------------------------------------------------------------------------------
	   Step    Total Energy     Delta E     Max Force     RMS Force      Max Disp      RMS Disp
	----------------------------------------------------------------------------------------------
	  Convergence Criteria     1.00e-06 *    3.00e-04 *             o    1.20e-03 *             o
	----------------------------------------------------------------------------------------------
	    13    -399.90350052   -8.10e-07 *    3.29e-05 *    3.29e-05 o    4.54e-03      4.54e-03 o  ~
	----------------------------------------------------------------------------------------------

Next Geometry in Ang
	Fragment 1 (Ang)

	   He   0.0000000000   0.0000000000   2.7727718288
	    S   0.0000000000   0.0000000000  -0.3481756807

    Final optimized geometry and variables:
    Molecular point group: c2v
    Full point group: C_inf_v

    Geometry (in Angstrom), charge = -1, multiplicity = 6:

    HE           0.000000000000     0.000000000000     2.771570801284
    S            0.000000000000     0.000000000000    -0.346974653214

    Psi4 stopped on: Thursday, 17 July 2025 09:25AM
    Psi4 wall time for execution: 0:00:12.12

*** Psi4 exiting successfully. Buy a developer a beer!
