                               Psi4 1.9.1 release

  ==> Input File <==

--------------------------------------------------------------------------
molecule {
-1 6
C   0.00000        0.60000        0.00000
S   0.00000       -0.60000        0.00000
}

set {
basis              cc-pvdz
reference          uks
maxiter            500
geom_maxiter       500
DAMPING_PERCENTAGE 1
guess              SAP
}

optimize('b3lyp')
--------------------------------------------------------------------------

    Molecular point group: c2v
  Charge       = -1
  Multiplicity = 6
  Basis Set: CC-PVDZ
    Blend: CC-PVDZ
  Basis Set: (CC-PVDZ AUX)
    Blend: CC-PVDZ-JKFIT
  @DF-UKS Final Energy:  -435.32086597660049
    Total Energy =                       -435.3208659766005439
 Dipole X            :          0.0000000            0.0000000            0.0000000
 Dipole Y            :          0.0000000            0.0000000            0.0000000
 Dipole Z            :          0.9939371           -0.0086419            0.9852953
 Magnitude           :                                                    0.9852953
    Molecular point group: c2v
  Basis Set: CC-PVDZ
    Blend: CC-PVDZ
  Basis Set: (CC-PVDZ AUX)
    Blend: CC-PVDZ-JKFIT
  Basis Set: CC-PVDZ
    Blend: CC-PVDZ
  Basis Set: (CC-PVDZ AUX)
    Blend: CC-PVDZ-JKFIT
  @DF-UKS Final Energy:  -435.60595251838117
    Total Energy =                       -435.6059525183811729
  Basis Set: CC-PVDZ
    Blend: CC-PVDZ
  Basis Set: (CC-PVDZ AUX)
    Blend: CC-PVDZ-JKFIT
  Basis Set: CC-PVDZ
    Blend: CC-PVDZ
  @DF-UKS Final Energy:  -435.74276208516079
    Total Energy =                       -435.7427620851607912
  @DF-UKS Final Energy:  -435.83154454845368
    Total Energy =                       -435.8315445484536781
  @DF-UKS Final Energy:  -435.90519036074448
    Total Energy =                       -435.9051903607444842
  @DF-UKS Final Energy:  -435.95592524381544
    Total Energy =                       -435.9559252438154431
  @DF-UKS Final Energy:  -435.98017798735407
    Total Energy =                       -435.9801779873540681
  @DF-UKS Final Energy:  -435.99088207298809
    Total Energy =                       -435.9908820729880858
  @DF-UKS Final Energy:  -435.99563923849900
    Total Energy =                       -435.9956392384989954
  @DF-UKS Final Energy:  -435.99755147688995
    Total Energy =                       -435.9975514768900098
  @DF-UKS Final Energy:  -435.99818521436356
    Total Energy =                       -435.9981852143636161
  @DF-UKS Final Energy:  -435.99833005999488
    Total Energy =                       -435.9983300599948279
  @DF-UKS Final Energy:  -435.99834524113624
    Total Energy =                       -435.9983452411362919
  Basis Set: (CC-PVDZ AUX)
    Blend: CC-PVDZ-JKFIT
  Basis Set: CC-PVDZ
    Blend: CC-PVDZ
  Basis Set: (CC-PVDZ AUX)
    Blend: CC-PVDZ-JKFIT
  @DF-UKS Final Energy:  -435.99834696205363
    Total Energy =                       -435.9983469620536880
  Basis Set: CC-PVDZ
    Blend: CC-PVDZ
  Basis Set: (CC-PVDZ AUX)
    Blend: CC-PVDZ-JKFIT
  Charge       = -1
  Multiplicity = 6
  Basis Set: CC-PVDZ
    Blend: CC-PVDZ
  Basis Set: (CC-PVDZ AUX)
    Blend: CC-PVDZ-JKFIT

    Orbital Energies [Eh]
    ---------------------

    Alpha Occupied:

       1A1   -88.740969     2A1    -9.887873     3A1    -7.798424
       1B1    -5.768023     4A1    -5.766240     1B2    -5.748783
       5A1    -0.531078     6A1    -0.239319     2B1    -0.146384
       7A1    -0.132113     2B2    -0.098507     3B1     0.092553
       3B2     0.093272     8A1     0.098286

    Alpha Virtual:

       9A1     0.603870     4B1     0.625582     4B2     0.655118
      10A1     0.670586    11A1     0.692361     5B1     0.704616
       5B2     0.735755     1A2     0.744047    12A1     0.751884
       6B1     0.787193     6B2     0.796908    13A1     0.811806
      14A1     1.025571     2A2     1.467159    15A1     1.467185
       7B1     1.468356     7B2     1.468920    16A1     1.506925

    Beta Occupied:

       1A1   -88.730437     2A1    -9.852444     3A1    -7.787632
       1B1    -5.747113     4A1    -5.745834     1B2    -5.742291
       5A1    -0.442140     6A1    -0.086921     2B2    -0.072355

    Beta Virtual:

       2B1     0.008672     7A1     0.020450     3B1     0.277017
       3B2     0.277728     8A1     0.283417     9A1     0.644235
       4B2     0.672414     4B1     0.678480    10A1     0.731414
      11A1     0.784544     5B2     0.797664     1A2     0.801178
      12A1     0.807023     5B1     0.807448     6B2     0.877052
       6B1     0.877728    13A1     0.899731    14A1     1.099818
       2A2     1.584084    15A1     1.584113     7B1     1.584184
       7B2     1.584685    16A1     1.618427

    Final Occupation by Irrep:
             A1    A2    B1    B2
    DOCC [     6,    0,    1,    2 ]
    SOCC [     2,    0,    2,    1 ]
    NA   [     8,    0,    3,    3 ]
    NB   [     6,    0,    1,    2 ]

  @DF-UKS Final Energy:  -435.99834716051555

   => Energetics <=

    Nuclear Repulsion Energy =             16.2353276360272538
    One-Electron Energy =                -637.7741359765047946
    Two-Electron Energy =                 210.6696624711268271
    DFT Exchange-Correlation Energy =     -25.1292012911648399
    Empirical Dispersion Energy =           0.0000000000000000
    VV10 Nonlocal Energy =                  0.0000000000000000
    Total Energy =                       -435.9983471605156069

  UHF NO Occupations:
  HONO-2 :    8 A1 1.0000000
  HONO-1 :    3 B1 1.0000000
  HONO-0 :    3 B2 1.0000000
  LUNO+0 :    9 A1 0.0012368
  LUNO+1 :   10 A1 0.0009322
  LUNO+2 :    4 B2 0.0001216
  LUNO+3 :   11 A1 0.0000002

Computation Completed

Properties will be evaluated at   0.000000,   0.000000,   0.000000 [a0]

Properties computed using the SCF density matrix

 Multipole Moments:

 ------------------------------------------------------------------------------------
     Multipole            Electronic (a.u.)      Nuclear  (a.u.)        Total (a.u.)
 ------------------------------------------------------------------------------------

 L = 1.  Multiply by 2.5417464519 to convert [e a0] to [Debye]
 Dipole X            :          0.0000000            0.0000000            0.0000000
 Dipole Y            :          0.0000000            0.0000000            0.0000000
 Dipole Z            :         -3.4094724           -0.0225339           -3.4320063
 Magnitude           :                                                    3.4320063

 ------------------------------------------------------------------------------------

*** tstop() called on Joses-MacBook-Pro-2.local at Thu Jul 17 10:22:29 2025
Module time:
	user time   =       2.81 seconds =       0.05 minutes
	system time =       2.99 seconds =       0.05 minutes
	total time  =          1 seconds =       0.02 minutes
Total time:
	user time   =     102.33 seconds =       1.71 minutes
	system time =      60.94 seconds =       1.02 minutes
	total time  =         18 seconds =       0.30 minutes

*** tstart() called on Joses-MacBook-Pro-2.local
*** at Thu Jul 17 10:22:29 2025

         ------------------------------------------------------------
                                   SCF GRAD
                          Rob Parrish, Justin Turney,
                       Andy Simmonett, and Alex Sokolov
         ------------------------------------------------------------

  ==> Geometry <==

    Molecular point group: c2v
    Full point group: C_inf_v

    Geometry (in Angstrom), charge = -1, multiplicity = 6:

       Center              X                  Y                   Z               Mass
    ------------   -----------------  -----------------  -----------------  -----------------
         C            0.000000000000     0.000000000000     2.275124448237    12.000000000000
         S            0.000000000000     0.000000000000    -0.853916946135    31.972071174400

  Nuclear repulsion =   16.235327636027254

  ==> Basis Set <==

  Basis Set: CC-PVDZ
    Blend: CC-PVDZ
    Number of shells: 14
    Number of basis functions: 32
    Number of Cartesian functions: 34
    Spherical Harmonics?: true
    Max angular momentum: 2

  ==> DFJKGrad: Density-Fitted SCF Gradients <==

    Gradient:                    1
    J tasked:                  Yes
    K tasked:                  Yes
    wK tasked:                  No
    OpenMP threads:              1
    Integrals threads:           1
    Memory [MiB]:              375
    Schwarz Cutoff:          1E-12
    Fitting Condition:       1E-10

   => Auxiliary Basis Set <=

  Basis Set: (CC-PVDZ AUX)
    Blend: CC-PVDZ-JKFIT
    Number of shells: 60
    Number of basis functions: 182
    Number of Cartesian functions: 211
    Spherical Harmonics?: true
    Max angular momentum: 3

  ==> DFT Potential <==

   => LibXC <=

    Version 6.2.2
    S. Lehtola, C. Steigemann, M. J.T. Oliveira, and M. A.L. Marques.,  SoftwareX 7, 1â€“5 (2018) (10.1016/j.softx.2017.11.002)

   => Composite Functional: B3LYP <=

    B3LYP Hyb-GGA Exchange-Correlation Functional

    P. J. Stephens, F. J. Devlin, C. F. Chabalowski, and M. J. Frisch.,  J. Phys. Chem. 98, 11623 (1994) (10.1021/j100096a001)

    Deriv               =              1
    GGA                 =           TRUE
    Meta                =          FALSE

    Exchange Hybrid     =           TRUE
    MP2 Hybrid          =          FALSE

   => Exchange Functionals <=

    0.0800   Slater exchange
    0.7200         Becke 88

   => Exact (HF) Exchange <=

    0.2000               HF

   => Correlation Functionals <=

    0.1900   Vosko, Wilk & Nusair (VWN5_RPA)
    0.8100   Lee, Yang & Parr

   => LibXC Density Thresholds  <==

    XC_HYB_GGA_XC_B3LYP:  1.00E-15

   => Molecular Quadrature <=

    Radial Scheme          =       TREUTLER
    Pruning Scheme         =           NONE
    Nuclear Scheme         =       TREUTLER

    Blocking Scheme        =         OCTREE
    BS radius alpha        =              1
    Pruning alpha          =              1
    Radial Points          =             75
    Spherical Points       =            302
    Total Points           =          41526
    Total Blocks           =            378
    Max Points             =            256
    Max Functions          =             32
    Weights Tolerance      =       1.00E-15

  -Total Gradient:
     Atom            X                  Y                   Z
    ------   -----------------  -----------------  -----------------
       1        0.000000000000     0.000000000000    -0.000018159136
       2        0.000000000000     0.000000000000     0.000019171272

*** tstop() called on Joses-MacBook-Pro-2.local at Thu Jul 17 10:22:29 2025
Module time:
	user time   =       0.92 seconds =       0.02 minutes
	system time =       1.36 seconds =       0.02 minutes
	total time  =          0 seconds =       0.00 minutes
Total time:
	user time   =     103.26 seconds =       1.72 minutes
	system time =      62.30 seconds =       1.04 minutes
	total time  =         18 seconds =       0.30 minutes

    			-----------------------------------------

    			 OPTKING 3.0: for geometry optimizations

    			     By R.A. King, Bethel University

    			        with contributions from

    			    A.V. Copan, J. Cayton, A. Heide

    			-----------------------------------------

	                            ===> Fragment 1 <==

	 Z (Atomic Numbers)          Masses                          Geom
	       6.000000            12.000000          0.00000000  0.00000000  4.29936211
	      16.000000            31.972071          0.00000000  0.00000000 -1.61366916

	 - Coordinate -           - BOHR/RAD -       - ANG/DEG -
	 R(1,2)           =         5.913031           3.129041

	        --- Internal Coordinate Step in ANG or DEG, aJ/ANG or AJ/DEG ---
	-------------------------------------------------------------------------------
	           Coordinate      Previous         Force          Change          New
	           ----------      --------        ------          ------        ------
	               R(1,2)       3.12904        0.00015        0.00130       3.13034
	-------------------------------------------------------------------------------

	                                 ==> Convergence Check <==

	Measures of convergence in internal coordinates in au.

	Criteria marked as inactive (o), active & met (*), and active & unmet ( ).

	----------------------------------------------------------------------------------------------
	   Step    Total Energy     Delta E     Max Force     RMS Force      Max Disp      RMS Disp
	----------------------------------------------------------------------------------------------
	  Convergence Criteria     1.00e-06 *    3.00e-04 *             o    1.20e-03 *             o
	----------------------------------------------------------------------------------------------
	    15    -435.99834716   -1.98e-07 *    1.87e-05 *    1.87e-05 o    2.46e-03      2.46e-03 o  ~
	----------------------------------------------------------------------------------------------

Next Geometry in Ang
	Fragment 1 (Ang)

	    C   0.0000000000   0.0000000000   2.2757762413
	    S   0.0000000000   0.0000000000  -0.8545687392

    Final optimized geometry and variables:
    Molecular point group: c2v
    Full point group: C_inf_v

    Geometry (in Angstrom), charge = -1, multiplicity = 6:

    C            0.000000000000     0.000000000000     2.275124448237
    S            0.000000000000     0.000000000000    -0.853916946135

    Psi4 stopped on: Thursday, 17 July 2025 10:22AM
    Psi4 wall time for execution: 0:00:18.36

*** Psi4 exiting successfully. Buy a developer a beer!
