                               Psi4 1.9.1 release

  ==> Input File <==

--------------------------------------------------------------------------
molecule {
-1 6
H   0.00000        0.60000        0.00000
Li   0.00000       -0.60000        0.00000
}

set {
basis              cc-pvdz
reference          uks
maxiter            500
geom_maxiter       500
DAMPING_PERCENTAGE 1
guess              SAP
}

optimize('b3lyp')
--------------------------------------------------------------------------

    Molecular point group: c2v
  Charge       = -1
  Multiplicity = 6
  Basis Set: CC-PVDZ
    Blend: CC-PVDZ
  Basis Set: (CC-PVDZ AUX)
    Blend: CC-PVDZ-JKFIT + DEF2-UNIVERSAL-JKFIT
  @DF-UKS Final Energy:    -5.75055445101195
    Total Energy =                         -5.7505544510119506
 Dipole X            :          0.0000000            0.0000000            0.0000000
 Dipole Y            :          0.0000000            0.0000000            0.0000000
 Dipole Z            :          0.0470263            1.1283569            1.1753832
 Magnitude           :                                                    1.1753832
    Molecular point group: c2v
  Basis Set: CC-PVDZ
    Blend: CC-PVDZ
  Basis Set: (CC-PVDZ AUX)
    Blend: CC-PVDZ-JKFIT + DEF2-UNIVERSAL-JKFIT
  Basis Set: CC-PVDZ
    Blend: CC-PVDZ
  Basis Set: (CC-PVDZ AUX)
    Blend: CC-PVDZ-JKFIT + DEF2-UNIVERSAL-JKFIT
  @DF-UKS Final Energy:    -5.76498214617541
    Total Energy =                         -5.7649821461754147
  Basis Set: CC-PVDZ
    Blend: CC-PVDZ
  Basis Set: (CC-PVDZ AUX)
    Blend: CC-PVDZ-JKFIT + DEF2-UNIVERSAL-JKFIT
  Basis Set: CC-PVDZ
    Blend: CC-PVDZ
  @DF-UKS Final Energy:    -5.76879821561870
    Total Energy =                         -5.7687982156187037
  @DF-UKS Final Energy:    -5.77155009470357
    Total Energy =                         -5.7715500947035743
  @DF-UKS Final Energy:    -5.77665532351471
    Total Energy =                         -5.7766553235147118
  @DF-UKS Final Energy:    -5.78118546661623
    Total Energy =                         -5.7811854666162343
  @DF-UKS Final Energy:    -5.78192730720909
    Total Energy =                         -5.7819273072090924
  @DF-UKS Final Energy:    -5.78460622129751
    Total Energy =                         -5.7846062212975093
  @DF-UKS Final Energy:    -5.78492640925388
    Total Energy =                         -5.7849264092538810
  @DF-UKS Final Energy:    -5.78661323656990
    Total Energy =                         -5.7866132365699006
  @DF-UKS Final Energy:    -5.78674647702853
    Total Energy =                         -5.7867464770285331
  @DF-UKS Final Energy:    -5.78768711823817
    Total Energy =                         -5.7876871182381748
  @DF-UKS Final Energy:    -5.78773947516241
    Total Energy =                         -5.7877394751624109
  @DF-UKS Final Energy:    -5.78829389589861
    Total Energy =                         -5.7882938958986099
  @DF-UKS Final Energy:    -5.78831673951606
    Total Energy =                         -5.7883167395160591
  @DF-UKS Final Energy:    -5.78869433832534
    Total Energy =                         -5.7886943383253424
  @DF-UKS Final Energy:    -5.78870592446945
    Total Energy =                         -5.7887059244694505
  @DF-UKS Final Energy:    -5.78897433385883
    Total Energy =                         -5.7889743338588255
  @DF-UKS Final Energy:    -5.78898033141653
    Total Energy =                         -5.7889803314165311
  @DF-UKS Final Energy:    -5.78898621004308
    Total Energy =                         -5.7889862100430820
  @DF-UKS Final Energy:    -5.78915586076597
    Total Energy =                         -5.7891558607659706
  @DF-UKS Final Energy:    -5.78915853188159
    Total Energy =                         -5.7891585318815943
  @DF-UKS Final Energy:    -5.78916116046535
    Total Energy =                         -5.7891611604653486
  @DF-UKS Final Energy:    -5.78926171605536
    Total Energy =                         -5.7892617160553614
  @DF-UKS Final Energy:    -5.78926279071685
    Total Energy =                         -5.7892627907168492
  @DF-UKS Final Energy:    -5.78926385261695
    Total Energy =                         -5.7892638526169478
  @DF-UKS Final Energy:    -5.78926490199210
    Total Energy =                         -5.7892649019920963
  @DF-UKS Final Energy:    -5.78926593880476
    Total Energy =                         -5.7892659388047560
  Basis Set: (CC-PVDZ AUX)
    Blend: CC-PVDZ-JKFIT + DEF2-UNIVERSAL-JKFIT
  Basis Set: CC-PVDZ
    Blend: CC-PVDZ
  Basis Set: (CC-PVDZ AUX)
    Blend: CC-PVDZ-JKFIT + DEF2-UNIVERSAL-JKFIT
  @DF-UKS Final Energy:    -5.78932073826564
    Total Energy =                         -5.7893207382656353
  Basis Set: CC-PVDZ
    Blend: CC-PVDZ
  Basis Set: (CC-PVDZ AUX)
    Blend: CC-PVDZ-JKFIT + DEF2-UNIVERSAL-JKFIT
  Charge       = -1
  Multiplicity = 6
  Basis Set: CC-PVDZ
    Blend: CC-PVDZ
  Basis Set: (CC-PVDZ AUX)
    Blend: CC-PVDZ-JKFIT + DEF2-UNIVERSAL-JKFIT

    Orbital Energies [Eh]
    ---------------------

    Alpha Occupied:

       1A1    -2.980843     2A1    -0.232283     3A1    -0.038575
       1B2     0.044905     1B1     0.044905

    Alpha Virtual:

       4A1     0.095281     2B2     0.158793     2B1     0.158793
       5A1     0.169098     6A1     0.197629     1A2     0.353720
       7A1     0.353720     3B2     0.357604     3B1     0.357604
       8A1     0.366570     9A1     0.521482     4B1     1.297044
       4B2     1.297044    10A1     1.299628

    Beta Occupied:

    Beta Virtual:

       1A1    -1.975411     2A1     0.068276     3A1     0.126573
       4A1     0.159552     1B2     0.163631     1B1     0.163631
       5A1     0.231890     2B2     0.253970     2B1     0.253970
       6A1     0.267135     7A1     0.454770     3B2     0.460449
       3B1     0.460449     8A1     0.478686     1A2     0.478686
       9A1     0.761321     4B1     1.545925     4B2     1.545925
      10A1     1.548283

    Final Occupation by Irrep:
             A1    A2    B1    B2
    DOCC [     0,    0,    0,    0 ]
    SOCC [     3,    0,    1,    1 ]
    NA   [     3,    0,    1,    1 ]
    NB   [     0,    0,    0,    0 ]

  @DF-UKS Final Energy:    -5.78932111639689

   => Energetics <=

    Nuclear Repulsion Energy =              0.2795598377236564
    One-Electron Energy =                  -7.9948170766077915
    Two-Electron Energy =                   3.2820618852694565
    DFT Exchange-Correlation Energy =      -1.3561257627822116
    Empirical Dispersion Energy =           0.0000000000000000
    VV10 Nonlocal Energy =                  0.0000000000000000
    Total Energy =                         -5.7893211163968896

  UHF NO Occupations:
  HONO-2 :    1 A1 1.0000000
  HONO-1 :    2 A1 1.0000000
  HONO-0 :    3 A1 1.0000000
  LUNO+0 :    4 A1 0.0000000
  LUNO+1 :    2 B2 0.0000000
  LUNO+2 :    2 B1 0.0000000
  LUNO+3 :    5 A1 0.0000000

Computation Completed

Properties will be evaluated at   0.000000,   0.000000,   0.000000 [a0]

Properties computed using the SCF density matrix

 Multipole Moments:

 ------------------------------------------------------------------------------------
     Multipole            Electronic (a.u.)      Nuclear  (a.u.)        Total (a.u.)
 ------------------------------------------------------------------------------------

 L = 1.  Multiply by 2.5417464519 to convert [e a0] to [Debye]
 Dipole X            :          0.0000000            0.0000000            0.0000000
 Dipole Y            :          0.0000000            0.0000000            0.0000000
 Dipole Z            :         -3.9878279            5.3396507            1.3518228
 Magnitude           :                                                    1.3518228

 ------------------------------------------------------------------------------------

*** tstop() called on Joses-MacBook-Pro-2.local at Thu Jul 17 09:10:29 2025
Module time:
	user time   =       0.40 seconds =       0.01 minutes
	system time =       2.07 seconds =       0.03 minutes
	total time  =          0 seconds =       0.00 minutes
Total time:
	user time   =      38.42 seconds =       0.64 minutes
	system time =     110.76 seconds =       1.85 minutes
	total time  =         15 seconds =       0.25 minutes

*** tstart() called on Joses-MacBook-Pro-2.local
*** at Thu Jul 17 09:10:29 2025

         ------------------------------------------------------------
                                   SCF GRAD
                          Rob Parrish, Justin Turney,
                       Andy Simmonett, and Alex Sokolov
         ------------------------------------------------------------

  ==> Geometry <==

    Molecular point group: c2v
    Full point group: C_inf_v

    Geometry (in Angstrom), charge = -1, multiplicity = 6:

       Center              X                  Y                   Z               Mass
    ------------   -----------------  -----------------  -----------------  -----------------
         H            0.000000000000     0.000000000000     4.965417436690     1.007825032230
         LI           0.000000000000     0.000000000000    -0.713265327389     7.016003436600

  Nuclear repulsion =    0.279559837723656

  ==> Basis Set <==

  Basis Set: CC-PVDZ
    Blend: CC-PVDZ
    Number of shells: 9
    Number of basis functions: 19
    Number of Cartesian functions: 20
    Spherical Harmonics?: true
    Max angular momentum: 2

  ==> DFJKGrad: Density-Fitted SCF Gradients <==

    Gradient:                    1
    J tasked:                  Yes
    K tasked:                  Yes
    wK tasked:                  No
    OpenMP threads:              1
    Integrals threads:           1
    Memory [MiB]:              375
    Schwarz Cutoff:          1E-12
    Fitting Condition:       1E-10

   => Auxiliary Basis Set <=

  Basis Set: (CC-PVDZ AUX)
    Blend: CC-PVDZ-JKFIT + DEF2-UNIVERSAL-JKFIT
    Number of shells: 26
    Number of basis functions: 74
    Number of Cartesian functions: 85
    Spherical Harmonics?: true
    Max angular momentum: 3

  ==> DFT Potential <==

   => LibXC <=

    Version 6.2.2
    S. Lehtola, C. Steigemann, M. J.T. Oliveira, and M. A.L. Marques.,  SoftwareX 7, 1â€“5 (2018) (10.1016/j.softx.2017.11.002)

   => Composite Functional: B3LYP <=

    B3LYP Hyb-GGA Exchange-Correlation Functional

    P. J. Stephens, F. J. Devlin, C. F. Chabalowski, and M. J. Frisch.,  J. Phys. Chem. 98, 11623 (1994) (10.1021/j100096a001)

    Deriv               =              1
    GGA                 =           TRUE
    Meta                =          FALSE

    Exchange Hybrid     =           TRUE
    MP2 Hybrid          =          FALSE

   => Exchange Functionals <=

    0.0800   Slater exchange
    0.7200         Becke 88

   => Exact (HF) Exchange <=

    0.2000               HF

   => Correlation Functionals <=

    0.1900   Vosko, Wilk & Nusair (VWN5_RPA)
    0.8100   Lee, Yang & Parr

   => LibXC Density Thresholds  <==

    XC_HYB_GGA_XC_B3LYP:  1.00E-15

   => Molecular Quadrature <=

    Radial Scheme          =       TREUTLER
    Pruning Scheme         =           NONE
    Nuclear Scheme         =       TREUTLER

    Blocking Scheme        =         OCTREE
    BS radius alpha        =              1
    Pruning alpha          =              1
    Radial Points          =             75
    Spherical Points       =            302
    Total Points           =          44435
    Total Blocks           =            443
    Max Points             =            256
    Max Functions          =             19
    Weights Tolerance      =       1.00E-15

  -Total Gradient:
     Atom            X                  Y                   Z
    ------   -----------------  -----------------  -----------------
       1       -0.000000000000     0.000000000000    -0.000059664152
       2        0.000000000000    -0.000000000000     0.000055837175

*** tstop() called on Joses-MacBook-Pro-2.local at Thu Jul 17 09:10:29 2025
Module time:
	user time   =       0.31 seconds =       0.01 minutes
	system time =       0.89 seconds =       0.01 minutes
	total time  =          0 seconds =       0.00 minutes
Total time:
	user time   =      38.73 seconds =       0.65 minutes
	system time =     111.66 seconds =       1.86 minutes
	total time  =         15 seconds =       0.25 minutes

    			-----------------------------------------

    			 OPTKING 3.0: for geometry optimizations

    			     By R.A. King, Bethel University

    			        with contributions from

    			    A.V. Copan, J. Cayton, A. Heide

    			-----------------------------------------

	                            ===> Fragment 1 <==

	 Z (Atomic Numbers)          Masses                          Geom
	       1.000000             1.007825          0.00000000  0.00000000  9.38327905
	       3.000000             7.016003          0.00000000  0.00000000 -1.34787612

	 - Coordinate -           - BOHR/RAD -       - ANG/DEG -
	 R(1,2)           =        10.731155           5.678683

	        --- Internal Coordinate Step in ANG or DEG, aJ/ANG or AJ/DEG ---
	-------------------------------------------------------------------------------
	           Coordinate      Previous         Force          Change          New
	           ----------      --------        ------          ------        ------
	               R(1,2)       5.67868        0.00048        0.00324       5.68193
	-------------------------------------------------------------------------------

	                                 ==> Convergence Check <==

	Measures of convergence in internal coordinates in au.

	Criteria marked as inactive (o), active & met (*), and active & unmet ( ).

	----------------------------------------------------------------------------------------------
	   Step    Total Energy     Delta E     Max Force     RMS Force      Max Disp      RMS Disp
	----------------------------------------------------------------------------------------------
	  Convergence Criteria     1.00e-06 *    3.00e-04 *             o    1.20e-03 *             o
	----------------------------------------------------------------------------------------------
	    30      -5.78932112   -3.78e-07 *    5.78e-05 *    5.78e-05 o    6.13e-03      6.13e-03 o  ~
	----------------------------------------------------------------------------------------------

Next Geometry in Ang
	Fragment 1 (Ang)

	    H   0.0000000000   0.0000000000   4.9670398908
	   Li   0.0000000000   0.0000000000  -0.7148877815

    Final optimized geometry and variables:
    Molecular point group: c2v
    Full point group: C_inf_v

    Geometry (in Angstrom), charge = -1, multiplicity = 6:

    H            0.000000000000     0.000000000000     4.965417436690
    LI           0.000000000000     0.000000000000    -0.713265327389

    Psi4 stopped on: Thursday, 17 July 2025 09:10AM
    Psi4 wall time for execution: 0:00:16.28

*** Psi4 exiting successfully. Buy a developer a beer!
