                               Psi4 1.9.1 release

  ==> Input File <==

--------------------------------------------------------------------------
molecule {
-1 6
Ne   0.00000        0.60000        0.00000
Ne   0.00000       -0.60000        0.00000
}

set {
basis              cc-pvdz
reference          uks
maxiter            500
geom_maxiter       500
DAMPING_PERCENTAGE 1
guess              SAP
}

optimize('b3lyp')
--------------------------------------------------------------------------

    Molecular point group: d2h
  Charge       = -1
  Multiplicity = 6
  Basis Set: CC-PVDZ
    Blend: CC-PVDZ
  Basis Set: (CC-PVDZ AUX)
    Blend: CC-PVDZ-JKFIT
  @DF-UKS Final Energy:  -253.02251082708005
    Total Energy =                       -253.0225108270800547
 Dipole X            :          0.0000000            0.0000000            0.0000000
 Dipole Y            :          0.0000000            0.0000000            0.0000000
 Dipole Z            :          0.0000000            0.0000000            0.0000000
 Magnitude           :                                                    0.0000000
    Molecular point group: d2h
  Basis Set: CC-PVDZ
    Blend: CC-PVDZ
  Basis Set: (CC-PVDZ AUX)
    Blend: CC-PVDZ-JKFIT
  Basis Set: CC-PVDZ
    Blend: CC-PVDZ
  Basis Set: (CC-PVDZ AUX)
    Blend: CC-PVDZ-JKFIT
  @DF-UKS Final Energy:  -253.14790953789577
    Total Energy =                       -253.1479095378957709
  Basis Set: CC-PVDZ
    Blend: CC-PVDZ
  Basis Set: (CC-PVDZ AUX)
    Blend: CC-PVDZ-JKFIT
  Basis Set: CC-PVDZ
    Blend: CC-PVDZ
  @DF-UKS Final Energy:  -253.14814215747126
    Total Energy =                       -253.1481421574712556
  @DF-UKS Final Energy:  -253.14818182377422
    Total Energy =                       -253.1481818237742232
  @DF-UKS Final Energy:  -253.14818849261434
    Total Energy =                       -253.1481884926143380
  Basis Set: (CC-PVDZ AUX)
    Blend: CC-PVDZ-JKFIT
  Basis Set: CC-PVDZ
    Blend: CC-PVDZ
  Basis Set: (CC-PVDZ AUX)
    Blend: CC-PVDZ-JKFIT
  @DF-UKS Final Energy:  -253.14818961824534
    Total Energy =                       -253.1481896182453397
  Basis Set: CC-PVDZ
    Blend: CC-PVDZ
  Basis Set: (CC-PVDZ AUX)
    Blend: CC-PVDZ-JKFIT
  Charge       = -1
  Multiplicity = 6
  Basis Set: CC-PVDZ
    Blend: CC-PVDZ
  Basis Set: (CC-PVDZ AUX)
    Blend: CC-PVDZ-JKFIT

    Orbital Energies [Eh]
    ---------------------

    Alpha Occupied:

       1B2u  -30.568574     1Ag   -30.568521     2Ag    -1.269821
       2B2u   -1.111926     3Ag    -0.419935     1B3u   -0.357218
       1B1u   -0.305895     1B1g   -0.271749     1B3g   -0.217219
       3B2u   -0.142615     2B3u    1.410555     2B1u    1.444923
       4B2u    1.554284

    Alpha Virtual:

       2B1g    1.729150     2B3g    1.761885     4Ag     1.784961
       5Ag     1.978250     5B2u    2.738136     6Ag     4.779976
       3B3u    4.909934     3B1u    4.951799     1B2g    4.997037
       7Ag     5.000032     6B2u    5.005582     1Au     5.006219
       3B1g    5.040474     3B3g    5.082608     7B2u    5.589179

    Beta Occupied:

       1Ag   -30.471864     1B2u  -30.471836     2Ag    -1.126207
       2B2u   -0.949897     3Ag    -0.218074     1B1u   -0.199535
       1B3u   -0.143089     1B3g   -0.102869

    Beta Virtual:

       1B1g    0.027623     3B2u    0.163831     2B1u    1.648530
       2B3u    1.666980     4B2u    1.803930     2B3g    1.892993
       2B1g    1.908788     4Ag     1.983083     5Ag     2.132573
       5B2u    2.856064     6Ag     4.902500     3B1u    5.041469
       3B3u    5.047419     1B2g    5.093443     7Ag     5.096414
       1Au     5.103709     6B2u    5.106612     3B3g    5.175398
       3B1g    5.182568     7B2u    5.713897

    Final Occupation by Irrep:
             Ag   B1g   B2g   B3g    Au   B1u   B2u   B3u
    DOCC [     3,    0,    0,    1,    0,    1,    2,    1 ]
    SOCC [     0,    1,    0,    0,    0,    1,    2,    1 ]
    NA   [     3,    1,    0,    1,    0,    2,    4,    2 ]
    NB   [     3,    0,    0,    1,    0,    1,    2,    1 ]

  @DF-UKS Final Energy:  -253.14818985899157

   => Energetics <=

    Nuclear Repulsion Energy =             36.7296082439763865
    One-Electron Energy =                -440.4647962922602460
    Two-Electron Energy =                 171.2605829695145871
    DFT Exchange-Correlation Energy =     -20.6735847802222921
    Empirical Dispersion Energy =           0.0000000000000000
    VV10 Nonlocal Energy =                  0.0000000000000000
    Total Energy =                       -253.1481898589915716

  UHF NO Occupations:
  HONO-2 :    1B1g 1.0000000
  HONO-1 :    3B2u 1.0000000
  HONO-0 :    4B2u 1.0000000
  LUNO+0 :    4 Ag 0.0010863
  LUNO+1 :    2B3g 0.0004917
  LUNO+2 :    5 Ag 0.0002519
  LUNO+3 :    5B2u 0.0001804

Computation Completed

Properties will be evaluated at   0.000000,   0.000000,   0.000000 [a0]

Properties computed using the SCF density matrix

 Multipole Moments:

 ------------------------------------------------------------------------------------
     Multipole            Electronic (a.u.)      Nuclear  (a.u.)        Total (a.u.)
 ------------------------------------------------------------------------------------

 L = 1.  Multiply by 2.5417464519 to convert [e a0] to [Debye]
 Dipole X            :          0.0000000            0.0000000            0.0000000
 Dipole Y            :          0.0000000            0.0000000            0.0000000
 Dipole Z            :          0.0000000            0.0000000            0.0000000
 Magnitude           :                                                    0.0000000

 ------------------------------------------------------------------------------------

*** tstop() called on Joses-MacBook-Pro-2.local at Thu Jul 17 10:57:39 2025
Module time:
	user time   =       2.67 seconds =       0.04 minutes
	system time =       2.88 seconds =       0.05 minutes
	total time  =          1 seconds =       0.02 minutes
Total time:
	user time   =      26.07 seconds =       0.43 minutes
	system time =      28.50 seconds =       0.47 minutes
	total time  =          6 seconds =       0.10 minutes

*** tstart() called on Joses-MacBook-Pro-2.local
*** at Thu Jul 17 10:57:39 2025

         ------------------------------------------------------------
                                   SCF GRAD
                          Rob Parrish, Justin Turney,
                       Andy Simmonett, and Alex Sokolov
         ------------------------------------------------------------

  ==> Geometry <==

    Molecular point group: d2h
    Full point group: D_inf_h

    Geometry (in Angstrom), charge = -1, multiplicity = 6:

       Center              X                  Y                   Z               Mass
    ------------   -----------------  -----------------  -----------------  -----------------
         NE          -0.000000000000     0.720368710653     0.000000000000    19.992440176200
         NE           0.000000000000    -0.720368710653     0.000000000000    19.992440176200

  Nuclear repulsion =   36.729608243976386

  ==> Basis Set <==

  Basis Set: CC-PVDZ
    Blend: CC-PVDZ
    Number of shells: 12
    Number of basis functions: 28
    Number of Cartesian functions: 30
    Spherical Harmonics?: true
    Max angular momentum: 2

  ==> DFJKGrad: Density-Fitted SCF Gradients <==

    Gradient:                    1
    J tasked:                  Yes
    K tasked:                  Yes
    wK tasked:                  No
    OpenMP threads:              1
    Integrals threads:           1
    Memory [MiB]:              375
    Schwarz Cutoff:          1E-12
    Fitting Condition:       1E-10

   => Auxiliary Basis Set <=

  Basis Set: (CC-PVDZ AUX)
    Blend: CC-PVDZ-JKFIT
    Number of shells: 48
    Number of basis functions: 140
    Number of Cartesian functions: 162
    Spherical Harmonics?: true
    Max angular momentum: 3

  ==> DFT Potential <==

   => LibXC <=

    Version 6.2.2
    S. Lehtola, C. Steigemann, M. J.T. Oliveira, and M. A.L. Marques.,  SoftwareX 7, 1â€“5 (2018) (10.1016/j.softx.2017.11.002)

   => Composite Functional: B3LYP <=

    B3LYP Hyb-GGA Exchange-Correlation Functional

    P. J. Stephens, F. J. Devlin, C. F. Chabalowski, and M. J. Frisch.,  J. Phys. Chem. 98, 11623 (1994) (10.1021/j100096a001)

    Deriv               =              1
    GGA                 =           TRUE
    Meta                =          FALSE

    Exchange Hybrid     =           TRUE
    MP2 Hybrid          =          FALSE

   => Exchange Functionals <=

    0.0800   Slater exchange
    0.7200         Becke 88

   => Exact (HF) Exchange <=

    0.2000               HF

   => Correlation Functionals <=

    0.1900   Vosko, Wilk & Nusair (VWN5_RPA)
    0.8100   Lee, Yang & Parr

   => LibXC Density Thresholds  <==

    XC_HYB_GGA_XC_B3LYP:  1.00E-15

   => Molecular Quadrature <=

    Radial Scheme          =       TREUTLER
    Pruning Scheme         =           NONE
    Nuclear Scheme         =       TREUTLER

    Blocking Scheme        =         OCTREE
    BS radius alpha        =              1
    Pruning alpha          =              1
    Radial Points          =             75
    Spherical Points       =            302
    Total Points           =          41914
    Total Blocks           =            378
    Max Points             =            255
    Max Functions          =             28
    Weights Tolerance      =       1.00E-15

  -Total Gradient:
     Atom            X                  Y                   Z
    ------   -----------------  -----------------  -----------------
       1        0.000000000000    -0.000017578826     0.000000000000
       2       -0.000000000000     0.000017578826     0.000000000000

*** tstop() called on Joses-MacBook-Pro-2.local at Thu Jul 17 10:57:39 2025
Module time:
	user time   =       0.76 seconds =       0.01 minutes
	system time =       1.00 seconds =       0.02 minutes
	total time  =          0 seconds =       0.00 minutes
Total time:
	user time   =      26.84 seconds =       0.45 minutes
	system time =      29.50 seconds =       0.49 minutes
	total time  =          6 seconds =       0.10 minutes

    			-----------------------------------------

    			 OPTKING 3.0: for geometry optimizations

    			     By R.A. King, Bethel University

    			        with contributions from

    			    A.V. Copan, J. Cayton, A. Heide

    			-----------------------------------------

	                            ===> Fragment 1 <==

	 Z (Atomic Numbers)          Masses                          Geom
	      10.000000            19.992440         -0.00000000  1.36129957  0.00000000
	      10.000000            19.992440          0.00000000 -1.36129957  0.00000000

	 - Coordinate -           - BOHR/RAD -       - ANG/DEG -
	 R(1,2)           =         2.722599           1.440737

	        --- Internal Coordinate Step in ANG or DEG, aJ/ANG or AJ/DEG ---
	-------------------------------------------------------------------------------
	           Coordinate      Previous         Force          Change          New
	           ----------      --------        ------          ------        ------
	               R(1,2)       1.44074        0.00014        0.00001       1.44075
	-------------------------------------------------------------------------------

	                                 ==> Convergence Check <==

	Measures of convergence in internal coordinates in au.

	Criteria marked as inactive (o), active & met (*), and active & unmet ( ).

	----------------------------------------------------------------------------------------------
	   Step    Total Energy     Delta E     Max Force     RMS Force      Max Disp      RMS Disp
	----------------------------------------------------------------------------------------------
	  Convergence Criteria     1.00e-06 *    3.00e-04 *             o    1.20e-03 *             o
	----------------------------------------------------------------------------------------------
	     7    -253.14818986   -2.41e-07 *    1.76e-05 *    1.76e-05 o    2.08e-05 *    2.08e-05 o  ~
	----------------------------------------------------------------------------------------------

Next Geometry in Ang
	Fragment 1 (Ang)

	   Ne  -0.0000000000   0.7203742079   0.0000000000
	   Ne   0.0000000000  -0.7203742079   0.0000000000

    Final optimized geometry and variables:
    Molecular point group: d2h
    Full point group: D_inf_h

    Geometry (in Angstrom), charge = -1, multiplicity = 6:

    NE          -0.000000000000     0.720368710653     0.000000000000
    NE           0.000000000000    -0.720368710653     0.000000000000

    Psi4 stopped on: Thursday, 17 July 2025 10:57AM
    Psi4 wall time for execution: 0:00:06.30

*** Psi4 exiting successfully. Buy a developer a beer!
