                               Psi4 1.9.1 release

  ==> Input File <==

--------------------------------------------------------------------------
molecule {
-1 6
C   0.00000        0.60000        0.00000
Mg   0.00000       -0.60000        0.00000
}

set {
basis              cc-pvdz
reference          uks
maxiter            500
geom_maxiter       500
DAMPING_PERCENTAGE 1
guess              SAP
}

optimize('b3lyp')
--------------------------------------------------------------------------

    Molecular point group: c2v
  Charge       = -1
  Multiplicity = 6
  Basis Set: CC-PVDZ
    Blend: CC-PVDZ
  Basis Set: (CC-PVDZ AUX)
    Blend: CC-PVDZ-JKFIT + DEF2-UNIVERSAL-JKFIT
  @DF-UKS Final Energy:  -237.38120440432829
    Total Energy =                       -237.3812044043282867
 Dipole X            :          0.0000000            0.0000000            0.0000000
 Dipole Y            :          0.0000000            0.0000000            0.0000000
 Dipole Z            :          0.8908787           -0.0056558            0.8852229
 Magnitude           :                                                    0.8852229
    Molecular point group: c2v
  Basis Set: CC-PVDZ
    Blend: CC-PVDZ
  Basis Set: (CC-PVDZ AUX)
    Blend: CC-PVDZ-JKFIT + DEF2-UNIVERSAL-JKFIT
  Basis Set: CC-PVDZ
    Blend: CC-PVDZ
  Basis Set: (CC-PVDZ AUX)
    Blend: CC-PVDZ-JKFIT + DEF2-UNIVERSAL-JKFIT
  @DF-UKS Final Energy:  -237.62862091158465
    Total Energy =                       -237.6286209115846475
  Basis Set: CC-PVDZ
    Blend: CC-PVDZ
  Basis Set: (CC-PVDZ AUX)
    Blend: CC-PVDZ-JKFIT + DEF2-UNIVERSAL-JKFIT
  Basis Set: CC-PVDZ
    Blend: CC-PVDZ
  @DF-UKS Final Energy:  -237.79653653789842
    Total Energy =                       -237.7965365378984188
  @DF-UKS Final Energy:  -237.88338601913779
    Total Energy =                       -237.8833860191377880
  @DF-UKS Final Energy:  -237.92226558484788
    Total Energy =                       -237.9222655848478780
  @DF-UKS Final Energy:  -237.93927823861921
    Total Energy =                       -237.9392782386192096
  @DF-UKS Final Energy:  -237.94538268589258
    Total Energy =                       -237.9453826858925822
  @DF-UKS Final Energy:  -237.94672278394083
    Total Energy =                       -237.9467227839408281
  @DF-UKS Final Energy:  -237.94713082446356
    Total Energy =                       -237.9471308244635566
  @DF-UKS Final Energy:  -237.94718734347506
    Total Energy =                       -237.9471873434750648
  @DF-UKS Final Energy:  -237.94719577150707
    Total Energy =                       -237.9471957715070687
  Basis Set: (CC-PVDZ AUX)
    Blend: CC-PVDZ-JKFIT + DEF2-UNIVERSAL-JKFIT
  Basis Set: CC-PVDZ
    Blend: CC-PVDZ
  Basis Set: (CC-PVDZ AUX)
    Blend: CC-PVDZ-JKFIT + DEF2-UNIVERSAL-JKFIT
  @DF-UKS Final Energy:  -237.94719721480379
    Total Energy =                       -237.9471972148037935
  Basis Set: CC-PVDZ
    Blend: CC-PVDZ
  Basis Set: (CC-PVDZ AUX)
    Blend: CC-PVDZ-JKFIT + DEF2-UNIVERSAL-JKFIT
  Charge       = -1
  Multiplicity = 6
  Basis Set: CC-PVDZ
    Blend: CC-PVDZ
  Basis Set: (CC-PVDZ AUX)
    Blend: CC-PVDZ-JKFIT + DEF2-UNIVERSAL-JKFIT

    Orbital Energies [Eh]
    ---------------------

    Alpha Occupied:

       1A1   -46.669613     2A1   -10.011709     3A1    -2.950173
       1B2    -1.695397     1B1    -1.693290     4A1    -1.692814
       5A1    -0.371070     6A1    -0.083793     2B1    -0.033722
       2B2    -0.029297     7A1    -0.006693     3B1     0.083740

    Alpha Virtual:

       3B2     0.124756     8A1     0.171555     9A1     0.239859
       4B1     0.297076     4B2     0.303203    10A1     0.375629
       1A2     0.468749    11A1     0.471330     5B1     0.502603
       5B2     0.503240    12A1     0.603921     6B2     0.719214
       6B1     0.719250    13A1     0.767933    14A1     1.017041
       2A2     1.355181    15A1     1.355287     7B2     1.438683
       7B1     1.439443    16A1     1.735017

    Beta Occupied:

       1A1   -46.665976     2A1    -9.976529     3A1    -2.944284
       1B2    -1.691525     1B1    -1.687318     4A1    -1.687136
       5A1    -0.230470

    Beta Virtual:

       6A1     0.056083     2B2     0.112823     2B1     0.125003
       7A1     0.140023     3B2     0.194993     8A1     0.204007
       3B1     0.206642     9A1     0.278168     4B2     0.329876
       4B1     0.344315    10A1     0.427039     1A2     0.521128
      11A1     0.521511     5B2     0.554862     5B1     0.568833
      12A1     0.661392     6B2     0.793794     6B1     0.801268
      13A1     0.846852    14A1     1.093418    15A1     1.467452
       2A2     1.467461     7B2     1.542146     7B1     1.549475
      16A1     1.828557

    Final Occupation by Irrep:
             A1    A2    B1    B2
    DOCC [     5,    0,    1,    1 ]
    SOCC [     2,    0,    2,    1 ]
    NA   [     7,    0,    3,    2 ]
    NB   [     5,    0,    1,    1 ]

  @DF-UKS Final Energy:  -237.94719728455902

   => Energetics <=

    Nuclear Repulsion Energy =             17.4062291446737269
    One-Electron Energy =                -367.9987808183146853
    Two-Electron Energy =                 130.3574267796001891
    DFT Exchange-Correlation Energy =     -17.7120723905182587
    Empirical Dispersion Energy =           0.0000000000000000
    VV10 Nonlocal Energy =                  0.0000000000000000
    Total Energy =                       -237.9471972845590244

  UHF NO Occupations:
  HONO-2 :    2 B1 1.0000000
  HONO-1 :    3 B1 1.0000000
  HONO-0 :    7 A1 1.0000000
  LUNO+0 :    8 A1 0.0017195
  LUNO+1 :    9 A1 0.0000004
  LUNO+2 :    3 B2 0.0000004
  LUNO+3 :    4 B1 0.0000003

Computation Completed

Properties will be evaluated at   0.000000,   0.000000,   0.000000 [a0]

Properties computed using the SCF density matrix

 Multipole Moments:

 ------------------------------------------------------------------------------------
     Multipole            Electronic (a.u.)      Nuclear  (a.u.)        Total (a.u.)
 ------------------------------------------------------------------------------------

 L = 1.  Multiply by 2.5417464519 to convert [e a0] to [Debye]
 Dipole X            :          0.0000000            0.0000000            0.0000000
 Dipole Y            :          0.0000000            0.0000000            0.0000000
 Dipole Z            :          0.2642063           -0.0103167            0.2538896
 Magnitude           :                                                    0.2538896

 ------------------------------------------------------------------------------------

*** tstop() called on Joses-MacBook-Pro-2.local at Thu Jul 17 10:19:28 2025
Module time:
	user time   =       3.87 seconds =       0.06 minutes
	system time =       2.31 seconds =       0.04 minutes
	total time  =          0 seconds =       0.00 minutes
Total time:
	user time   =      79.44 seconds =       1.32 minutes
	system time =      66.20 seconds =       1.10 minutes
	total time  =         15 seconds =       0.25 minutes

*** tstart() called on Joses-MacBook-Pro-2.local
*** at Thu Jul 17 10:19:28 2025

         ------------------------------------------------------------
                                   SCF GRAD
                          Rob Parrish, Justin Turney,
                       Andy Simmonett, and Alex Sokolov
         ------------------------------------------------------------

  ==> Geometry <==

    Molecular point group: c2v
    Full point group: C_inf_v

    Geometry (in Angstrom), charge = -1, multiplicity = 6:

       Center              X                  Y                   Z               Mass
    ------------   -----------------  -----------------  -----------------  -----------------
         C            0.000000000000     0.000000000000     1.458973488483    12.000000000000
         MG           0.000000000000     0.000000000000    -0.729941689615    23.985041697000

  Nuclear repulsion =   17.406229144673727

  ==> Basis Set <==

  Basis Set: CC-PVDZ
    Blend: CC-PVDZ
    Number of shells: 14
    Number of basis functions: 32
    Number of Cartesian functions: 34
    Spherical Harmonics?: true
    Max angular momentum: 2

  ==> DFJKGrad: Density-Fitted SCF Gradients <==

    Gradient:                    1
    J tasked:                  Yes
    K tasked:                  Yes
    wK tasked:                  No
    OpenMP threads:              1
    Integrals threads:           1
    Memory [MiB]:              375
    Schwarz Cutoff:          1E-12
    Fitting Condition:       1E-10

   => Auxiliary Basis Set <=

  Basis Set: (CC-PVDZ AUX)
    Blend: CC-PVDZ-JKFIT + DEF2-UNIVERSAL-JKFIT
    Number of shells: 58
    Number of basis functions: 182
    Number of Cartesian functions: 218
    Spherical Harmonics?: true
    Max angular momentum: 4

  ==> DFT Potential <==

   => LibXC <=

    Version 6.2.2
    S. Lehtola, C. Steigemann, M. J.T. Oliveira, and M. A.L. Marques.,  SoftwareX 7, 1â€“5 (2018) (10.1016/j.softx.2017.11.002)

   => Composite Functional: B3LYP <=

    B3LYP Hyb-GGA Exchange-Correlation Functional

    P. J. Stephens, F. J. Devlin, C. F. Chabalowski, and M. J. Frisch.,  J. Phys. Chem. 98, 11623 (1994) (10.1021/j100096a001)

    Deriv               =              1
    GGA                 =           TRUE
    Meta                =          FALSE

    Exchange Hybrid     =           TRUE
    MP2 Hybrid          =          FALSE

   => Exchange Functionals <=

    0.0800   Slater exchange
    0.7200         Becke 88

   => Exact (HF) Exchange <=

    0.2000               HF

   => Correlation Functionals <=

    0.1900   Vosko, Wilk & Nusair (VWN5_RPA)
    0.8100   Lee, Yang & Parr

   => LibXC Density Thresholds  <==

    XC_HYB_GGA_XC_B3LYP:  1.00E-15

   => Molecular Quadrature <=

    Radial Scheme          =       TREUTLER
    Pruning Scheme         =           NONE
    Nuclear Scheme         =       TREUTLER

    Blocking Scheme        =         OCTREE
    BS radius alpha        =              1
    Pruning alpha          =              1
    Radial Points          =             75
    Spherical Points       =            302
    Total Points           =          43476
    Total Blocks           =            413
    Max Points             =            256
    Max Functions          =             32
    Weights Tolerance      =       1.00E-15

  -Total Gradient:
     Atom            X                  Y                   Z
    ------   -----------------  -----------------  -----------------
       1        0.000000000000    -0.000000000000    -0.000030001421
       2       -0.000000000000     0.000000000000    -0.000004640451

*** tstop() called on Joses-MacBook-Pro-2.local at Thu Jul 17 10:19:28 2025
Module time:
	user time   =       1.04 seconds =       0.02 minutes
	system time =       1.52 seconds =       0.03 minutes
	total time  =          0 seconds =       0.00 minutes
Total time:
	user time   =      80.49 seconds =       1.34 minutes
	system time =      67.73 seconds =       1.13 minutes
	total time  =         15 seconds =       0.25 minutes

    			-----------------------------------------

    			 OPTKING 3.0: for geometry optimizations

    			     By R.A. King, Bethel University

    			        with contributions from

    			    A.V. Copan, J. Cayton, A. Heide

    			-----------------------------------------

	                            ===> Fragment 1 <==

	 Z (Atomic Numbers)          Masses                          Geom
	       6.000000            12.000000          0.00000000  0.00000000  2.75706032
	      12.000000            23.985042          0.00000000  0.00000000 -1.37938988

	 - Coordinate -           - BOHR/RAD -       - ANG/DEG -
	 R(1,2)           =         4.136450           2.188915

	        --- Internal Coordinate Step in ANG or DEG, aJ/ANG or AJ/DEG ---
	-------------------------------------------------------------------------------
	           Coordinate      Previous         Force          Change          New
	           ----------      --------        ------          ------        ------
	               R(1,2)       2.18892        0.00010        0.00011       2.18902
	-------------------------------------------------------------------------------

	                                 ==> Convergence Check <==

	Measures of convergence in internal coordinates in au.

	Criteria marked as inactive (o), active & met (*), and active & unmet ( ).

	----------------------------------------------------------------------------------------------
	   Step    Total Energy     Delta E     Max Force     RMS Force      Max Disp      RMS Disp
	----------------------------------------------------------------------------------------------
	  Convergence Criteria     1.00e-06 *    3.00e-04 *             o    1.20e-03 *             o
	----------------------------------------------------------------------------------------------
	    13    -237.94719728   -6.98e-08 *    1.27e-05 *    1.27e-05 o    2.03e-04 *    2.03e-04 o  ~
	----------------------------------------------------------------------------------------------

Next Geometry in Ang
	Fragment 1 (Ang)

	    C   0.0000000000   0.0000000000   1.4590273237
	   Mg   0.0000000000   0.0000000000  -0.7299955249

    Final optimized geometry and variables:
    Molecular point group: c2v
    Full point group: C_inf_v

    Geometry (in Angstrom), charge = -1, multiplicity = 6:

    C            0.000000000000     0.000000000000     1.458973488483
    MG           0.000000000000     0.000000000000    -0.729941689615

    Psi4 stopped on: Thursday, 17 July 2025 10:19AM
    Psi4 wall time for execution: 0:00:16.07

*** Psi4 exiting successfully. Buy a developer a beer!
