                               Psi4 1.9.1 release

  ==> Input File <==

--------------------------------------------------------------------------
molecule {
-1 6
Li   0.00000        0.60000        0.00000
Al   0.00000       -0.60000        0.00000
}

set {
basis              cc-pvdz
reference          uks
maxiter            500
geom_maxiter       500
DAMPING_PERCENTAGE 1
guess              SAP
}

optimize('b3lyp')
--------------------------------------------------------------------------

    Molecular point group: c2v
  Charge       = -1
  Multiplicity = 6
  Basis Set: CC-PVDZ
    Blend: CC-PVDZ
  Basis Set: (CC-PVDZ AUX)
    Blend: CC-PVDZ-JKFIT + DEF2-UNIVERSAL-JKFIT
  @DF-UKS Final Energy:  -249.37530089778755
    Total Energy =                       -249.3753008977875538
 Dipole X            :          0.0000000            0.0000000            0.0000000
 Dipole Y            :          0.0000000            0.0000000            0.0000000
 Dipole Z            :         -1.5011037           -0.6845814           -2.1856851
 Magnitude           :                                                    2.1856851
    Molecular point group: c2v
  Basis Set: CC-PVDZ
    Blend: CC-PVDZ
  Basis Set: (CC-PVDZ AUX)
    Blend: CC-PVDZ-JKFIT + DEF2-UNIVERSAL-JKFIT
  Basis Set: CC-PVDZ
    Blend: CC-PVDZ
  Basis Set: (CC-PVDZ AUX)
    Blend: CC-PVDZ-JKFIT + DEF2-UNIVERSAL-JKFIT
  @DF-UKS Final Energy:  -249.44515527471492
    Total Energy =                       -249.4451552747149208
  Basis Set: CC-PVDZ
    Blend: CC-PVDZ
  Basis Set: (CC-PVDZ AUX)
    Blend: CC-PVDZ-JKFIT + DEF2-UNIVERSAL-JKFIT
  Basis Set: CC-PVDZ
    Blend: CC-PVDZ
  @DF-UKS Final Energy:  -249.53334849230350
    Total Energy =                       -249.5333484923035030
  @DF-UKS Final Energy:  -249.65780657807633
    Total Energy =                       -249.6578065780763325
  @DF-UKS Final Energy:  -249.72965030204790
    Total Energy =                       -249.7296503020479008
  @DF-UKS Final Energy:  -249.76523915093330
    Total Energy =                       -249.7652391509332972
  @DF-UKS Final Energy:  -249.78229028434137
    Total Energy =                       -249.7822902843413715
  @DF-UKS Final Energy:  -249.79017727499087
    Total Energy =                       -249.7901772749908673
  @DF-UKS Final Energy:  -249.79344474805470
    Total Energy =                       -249.7934447480546680
  @DF-UKS Final Energy:  -249.79450296245409
    Total Energy =                       -249.7945029624540609
  @DF-UKS Final Energy:  -249.79471633947583
    Total Energy =                       -249.7947163394758263
  @DF-UKS Final Energy:  -249.79473349598334
    Total Energy =                       -249.7947334959833370
  Basis Set: (CC-PVDZ AUX)
    Blend: CC-PVDZ-JKFIT + DEF2-UNIVERSAL-JKFIT
  Basis Set: CC-PVDZ
    Blend: CC-PVDZ
  Basis Set: (CC-PVDZ AUX)
    Blend: CC-PVDZ-JKFIT + DEF2-UNIVERSAL-JKFIT
  @DF-UKS Final Energy:  -249.79473489545305
    Total Energy =                       -249.7947348954530753
  Basis Set: CC-PVDZ
    Blend: CC-PVDZ
  Basis Set: (CC-PVDZ AUX)
    Blend: CC-PVDZ-JKFIT + DEF2-UNIVERSAL-JKFIT
  Charge       = -1
  Multiplicity = 6
  Basis Set: CC-PVDZ
    Blend: CC-PVDZ
  Basis Set: (CC-PVDZ AUX)
    Blend: CC-PVDZ-JKFIT + DEF2-UNIVERSAL-JKFIT

    Orbital Energies [Eh]
    ---------------------

    Alpha Occupied:

       1A1   -55.924534     2A1    -4.005898     3A1    -2.559240
       1B2    -2.558961     1B1    -2.558961     4A1    -1.866797
       5A1    -0.209431     6A1    -0.029577     2B1    -0.002552
       2B2    -0.002552     7A1     0.030651

    Alpha Virtual:

       3B1     0.106509     3B2     0.106509     8A1     0.126455
       4B2     0.197607     4B1     0.197607     9A1     0.202788
      10A1     0.231690    11A1     0.309750     5B1     0.327557
       5B2     0.327557     1A2     0.347419    12A1     0.347419
       6B2     0.362565     6B1     0.362565    13A1     0.387213
       2A2     0.417246    14A1     0.417247    15A1     0.498467
       7B1     0.522535     7B2     0.522535    16A1     0.666844

    Beta Occupied:

       1A1   -55.915253     2A1    -3.992611     3A1    -2.545876
       1B2    -2.545844     1B1    -2.545844     4A1    -1.860681

    Beta Virtual:

       5A1    -0.034815     6A1     0.091380     2B1     0.115506
       2B2     0.115506     7A1     0.136293     8A1     0.156404
       3B1     0.162304     3B2     0.162304     4B2     0.221617
       4B1     0.221617     9A1     0.238029    10A1     0.290149
      11A1     0.374626     1A2     0.400821    12A1     0.400844
       5B2     0.407278     5B1     0.407278     6B1     0.429096
       6B2     0.429096    13A1     0.457483    14A1     0.511483
       2A2     0.511491    15A1     0.561718     7B1     0.602327
       7B2     0.602327    16A1     0.729014

    Final Occupation by Irrep:
             A1    A2    B1    B2
    DOCC [     4,    0,    1,    1 ]
    SOCC [     3,    0,    1,    1 ]
    NA   [     7,    0,    2,    2 ]
    NB   [     4,    0,    1,    1 ]

  @DF-UKS Final Energy:  -249.79473500312650

   => Energetics <=

    Nuclear Repulsion Energy =              7.0553818898418230
    One-Electron Energy =                -362.7585123179757147
    Two-Electron Energy =                 122.5083487604156005
    DFT Exchange-Correlation Energy =     -16.5999533354081983
    Empirical Dispersion Energy =           0.0000000000000000
    VV10 Nonlocal Energy =                  0.0000000000000000
    Total Energy =                       -249.7947350031264762

  UHF NO Occupations:
  HONO-2 :    6 A1 1.0000000
  HONO-1 :    2 B1 1.0000000
  HONO-0 :    7 A1 1.0000000
  LUNO+0 :    8 A1 0.0000010
  LUNO+1 :    3 B2 0.0000002
  LUNO+2 :    3 B1 0.0000002
  LUNO+3 :    9 A1 0.0000001

Computation Completed

Properties will be evaluated at   0.000000,   0.000000,   0.000000 [a0]

Properties computed using the SCF density matrix

 Multipole Moments:

 ------------------------------------------------------------------------------------
     Multipole            Electronic (a.u.)      Nuclear  (a.u.)        Total (a.u.)
 ------------------------------------------------------------------------------------

 L = 1.  Multiply by 2.5417464519 to convert [e a0] to [Debye]
 Dipole X            :          0.0000000            0.0000000            0.0000000
 Dipole Y            :          0.0000000            0.0000000            0.0000000
 Dipole Z            :         -1.0228233           -1.6687414           -2.6915648
 Magnitude           :                                                    2.6915648

 ------------------------------------------------------------------------------------

*** tstop() called on Joses-MacBook-Pro-2.local at Thu Jul 17 09:33:55 2025
Module time:
	user time   =       3.87 seconds =       0.06 minutes
	system time =       1.86 seconds =       0.03 minutes
	total time  =          0 seconds =       0.00 minutes
Total time:
	user time   =      65.42 seconds =       1.09 minutes
	system time =      74.27 seconds =       1.24 minutes
	total time  =         13 seconds =       0.22 minutes

*** tstart() called on Joses-MacBook-Pro-2.local
*** at Thu Jul 17 09:33:55 2025

         ------------------------------------------------------------
                                   SCF GRAD
                          Rob Parrish, Justin Turney,
                       Andy Simmonett, and Alex Sokolov
         ------------------------------------------------------------

  ==> Geometry <==

    Molecular point group: c2v
    Full point group: C_inf_v

    Geometry (in Angstrom), charge = -1, multiplicity = 6:

       Center              X                  Y                   Z               Mass
    ------------   -----------------  -----------------  -----------------  -----------------
         LI           0.000000000000     0.000000000000     2.321477108053     7.016003436600
         AL           0.000000000000     0.000000000000    -0.603653173817    26.981538530000

  Nuclear repulsion =    7.055381889841823

  ==> Basis Set <==

  Basis Set: CC-PVDZ
    Blend: CC-PVDZ
    Number of shells: 14
    Number of basis functions: 32
    Number of Cartesian functions: 34
    Spherical Harmonics?: true
    Max angular momentum: 2

  ==> DFJKGrad: Density-Fitted SCF Gradients <==

    Gradient:                    1
    J tasked:                  Yes
    K tasked:                  Yes
    wK tasked:                  No
    OpenMP threads:              1
    Integrals threads:           1
    Memory [MiB]:              375
    Schwarz Cutoff:          1E-12
    Fitting Condition:       1E-10

   => Auxiliary Basis Set <=

  Basis Set: (CC-PVDZ AUX)
    Blend: CC-PVDZ-JKFIT + DEF2-UNIVERSAL-JKFIT
    Number of shells: 53
    Number of basis functions: 163
    Number of Cartesian functions: 190
    Spherical Harmonics?: true
    Max angular momentum: 3

  ==> DFT Potential <==

   => LibXC <=

    Version 6.2.2
    S. Lehtola, C. Steigemann, M. J.T. Oliveira, and M. A.L. Marques.,  SoftwareX 7, 1â€“5 (2018) (10.1016/j.softx.2017.11.002)

   => Composite Functional: B3LYP <=

    B3LYP Hyb-GGA Exchange-Correlation Functional

    P. J. Stephens, F. J. Devlin, C. F. Chabalowski, and M. J. Frisch.,  J. Phys. Chem. 98, 11623 (1994) (10.1021/j100096a001)

    Deriv               =              1
    GGA                 =           TRUE
    Meta                =          FALSE

    Exchange Hybrid     =           TRUE
    MP2 Hybrid          =          FALSE

   => Exchange Functionals <=

    0.0800   Slater exchange
    0.7200         Becke 88

   => Exact (HF) Exchange <=

    0.2000               HF

   => Correlation Functionals <=

    0.1900   Vosko, Wilk & Nusair (VWN5_RPA)
    0.8100   Lee, Yang & Parr

   => LibXC Density Thresholds  <==

    XC_HYB_GGA_XC_B3LYP:  1.00E-15

   => Molecular Quadrature <=

    Radial Scheme          =       TREUTLER
    Pruning Scheme         =           NONE
    Nuclear Scheme         =       TREUTLER

    Blocking Scheme        =         OCTREE
    BS radius alpha        =              1
    Pruning alpha          =              1
    Radial Points          =             75
    Spherical Points       =            302
    Total Points           =          44327
    Total Blocks           =            456
    Max Points             =            253
    Max Functions          =             32
    Weights Tolerance      =       1.00E-15

  -Total Gradient:
     Atom            X                  Y                   Z
    ------   -----------------  -----------------  -----------------
       1        0.000000000000     0.000000000000    -0.000012692566
       2       -0.000000000000     0.000000000000     0.000018603258

*** tstop() called on Joses-MacBook-Pro-2.local at Thu Jul 17 09:33:56 2025
Module time:
	user time   =       0.76 seconds =       0.01 minutes
	system time =       1.90 seconds =       0.03 minutes
	total time  =          1 seconds =       0.02 minutes
Total time:
	user time   =      66.18 seconds =       1.10 minutes
	system time =      76.17 seconds =       1.27 minutes
	total time  =         14 seconds =       0.23 minutes

    			-----------------------------------------

    			 OPTKING 3.0: for geometry optimizations

    			     By R.A. King, Bethel University

    			        with contributions from

    			    A.V. Copan, J. Cayton, A. Heide

    			-----------------------------------------

	                            ===> Fragment 1 <==

	 Z (Atomic Numbers)          Masses                          Geom
	       3.000000             7.016003          0.00000000  0.00000000  4.38695594
	      13.000000            26.981539          0.00000000  0.00000000 -1.14073917

	 - Coordinate -           - BOHR/RAD -       - ANG/DEG -
	 R(1,2)           =         5.527695           2.925130

	        --- Internal Coordinate Step in ANG or DEG, aJ/ANG or AJ/DEG ---
	-------------------------------------------------------------------------------
	           Coordinate      Previous         Force          Change          New
	           ----------      --------        ------          ------        ------
	               R(1,2)       2.92513        0.00013        0.00069       2.92582
	-------------------------------------------------------------------------------

	                                 ==> Convergence Check <==

	Measures of convergence in internal coordinates in au.

	Criteria marked as inactive (o), active & met (*), and active & unmet ( ).

	----------------------------------------------------------------------------------------------
	   Step    Total Energy     Delta E     Max Force     RMS Force      Max Disp      RMS Disp
	----------------------------------------------------------------------------------------------
	  Convergence Criteria     1.00e-06 *    3.00e-04 *             o    1.20e-03 *             o
	----------------------------------------------------------------------------------------------
	    14    -249.79473500   -1.08e-07 *    1.56e-05 *    1.56e-05 o    1.31e-03      1.31e-03 o  ~
	----------------------------------------------------------------------------------------------

Next Geometry in Ang
	Fragment 1 (Ang)

	   Li   0.0000000000   0.0000000000   2.3218242378
	   Al   0.0000000000   0.0000000000  -0.6040003036

    Final optimized geometry and variables:
    Molecular point group: c2v
    Full point group: C_inf_v

    Geometry (in Angstrom), charge = -1, multiplicity = 6:

    LI           0.000000000000     0.000000000000     2.321477108053
    AL           0.000000000000     0.000000000000    -0.603653173817

    Psi4 stopped on: Thursday, 17 July 2025 09:33AM
    Psi4 wall time for execution: 0:00:14.30

*** Psi4 exiting successfully. Buy a developer a beer!
