                               Psi4 1.9.1 release

  ==> Input File <==

--------------------------------------------------------------------------
molecule {
-1 6
Be   0.00000        0.60000        0.00000
C   0.00000       -0.60000        0.00000
}

set {
basis              cc-pvdz
reference          uks
maxiter            500
geom_maxiter       500
DAMPING_PERCENTAGE 1
guess              SAP
}

optimize('b3lyp')
--------------------------------------------------------------------------

    Molecular point group: c2v
  Charge       = -1
  Multiplicity = 6
  Basis Set: CC-PVDZ
    Blend: CC-PVDZ
  Basis Set: (CC-PVDZ AUX)
    Blend: CC-PVDZ-JKFIT + DEF2-UNIVERSAL-JKFIT
  @DF-UKS Final Energy:   -52.36226276645817
    Total Energy =                        -52.3622627664581728
 Dipole X            :          0.0000000            0.0000000            0.0000000
 Dipole Y            :          0.0000000            0.0000000            0.0000000
 Dipole Z            :         -1.3881669           -0.6554193           -2.0435863
 Magnitude           :                                                    2.0435863
    Molecular point group: c2v
  Basis Set: CC-PVDZ
    Blend: CC-PVDZ
  Basis Set: (CC-PVDZ AUX)
    Blend: CC-PVDZ-JKFIT + DEF2-UNIVERSAL-JKFIT
  Basis Set: CC-PVDZ
    Blend: CC-PVDZ
  Basis Set: (CC-PVDZ AUX)
    Blend: CC-PVDZ-JKFIT + DEF2-UNIVERSAL-JKFIT
  @DF-UKS Final Energy:   -52.49580418758878
    Total Energy =                        -52.4958041875887815
  Basis Set: CC-PVDZ
    Blend: CC-PVDZ
  Basis Set: (CC-PVDZ AUX)
    Blend: CC-PVDZ-JKFIT + DEF2-UNIVERSAL-JKFIT
  Basis Set: CC-PVDZ
    Blend: CC-PVDZ
  @DF-UKS Final Energy:   -52.52474109655026
    Total Energy =                        -52.5247410965502581
  @DF-UKS Final Energy:   -52.54023251452594
    Total Energy =                        -52.5402325145259397
  @DF-UKS Final Energy:   -52.54420727135791
    Total Energy =                        -52.5442072713579051
  @DF-UKS Final Energy:   -52.54569371864972
    Total Energy =                        -52.5456937186497157
  @DF-UKS Final Energy:   -52.54602419161981
    Total Energy =                        -52.5460241916198143
  @DF-UKS Final Energy:   -52.54612240348453
    Total Energy =                        -52.5461224034845316
  @DF-UKS Final Energy:   -52.54613358041394
    Total Energy =                        -52.5461335804139438
  Basis Set: (CC-PVDZ AUX)
    Blend: CC-PVDZ-JKFIT + DEF2-UNIVERSAL-JKFIT
  Basis Set: CC-PVDZ
    Blend: CC-PVDZ
  Basis Set: (CC-PVDZ AUX)
    Blend: CC-PVDZ-JKFIT + DEF2-UNIVERSAL-JKFIT
  @DF-UKS Final Energy:   -52.54613501104856
    Total Energy =                        -52.5461350110485554
  Basis Set: CC-PVDZ
    Blend: CC-PVDZ
  Basis Set: (CC-PVDZ AUX)
    Blend: CC-PVDZ-JKFIT + DEF2-UNIVERSAL-JKFIT
  Charge       = -1
  Multiplicity = 6
  Basis Set: CC-PVDZ
    Blend: CC-PVDZ
  Basis Set: (CC-PVDZ AUX)
    Blend: CC-PVDZ-JKFIT + DEF2-UNIVERSAL-JKFIT

    Orbital Energies [Eh]
    ---------------------

    Alpha Occupied:

       1A1   -10.007742     2A1    -3.844362     3A1    -0.378560
       4A1    -0.092743     1B2    -0.035753     1B1    -0.029675
       5A1     0.012372     2B2     0.121593

    Alpha Virtual:

       2B1     0.174995     6A1     0.247145     7A1     0.371419
       3B2     0.372161     3B1     0.385954     8A1     0.506551
       9A1     0.628916     1A2     0.671922    10A1     0.676529
       4B2     0.710769     4B1     0.712835     5B2     0.740596
       5B1     0.741052    11A1     0.984818    12A1     1.071624
       2A2     1.372870    13A1     1.373191     6B1     1.552336
       6B2     1.552798    14A1     1.825098

    Beta Occupied:

       1A1    -9.971682     2A1    -3.829977     3A1    -0.238253

    Beta Virtual:

       4A1     0.089601     1B1     0.126485     1B2     0.141438
       5A1     0.170357     2B1     0.249692     2B2     0.267448
       6A1     0.283205     3B1     0.418100     7A1     0.438175
       3B2     0.438283     8A1     0.586592     9A1     0.697232
       1A2     0.753156    10A1     0.753479     4B1     0.795898
       4B2     0.806401     5B1     0.813425     5B2     0.832695
      11A1     1.072183    12A1     1.147025     2A2     1.487452
      13A1     1.487472     6B1     1.654752     6B2     1.666319
      14A1     1.917516

    Final Occupation by Irrep:
             A1    A2    B1    B2
    DOCC [     3,    0,    0,    0 ]
    SOCC [     2,    0,    1,    2 ]
    NA   [     5,    0,    1,    2 ]
    NB   [     3,    0,    0,    0 ]

  @DF-UKS Final Energy:   -52.54613508726499

   => Energetics <=

    Nuclear Repulsion Energy =              6.9579535365194349
    One-Electron Energy =                 -85.8646479185301530
    Two-Electron Energy =                  33.0899350795152358
    DFT Exchange-Correlation Energy =      -6.7293757847695144
    Empirical Dispersion Energy =           0.0000000000000000
    VV10 Nonlocal Energy =                  0.0000000000000000
    Total Energy =                        -52.5461350872649930

  UHF NO Occupations:
  HONO-2 :    1 B1 1.0000000
  HONO-1 :    5 A1 1.0000000
  HONO-0 :    2 B2 1.0000000
  LUNO+0 :    6 A1 0.0014353
  LUNO+1 :    7 A1 0.0000004
  LUNO+2 :    8 A1 0.0000002
  LUNO+3 :    9 A1 0.0000000

Computation Completed

Properties will be evaluated at   0.000000,   0.000000,   0.000000 [a0]

Properties computed using the SCF density matrix

 Multipole Moments:

 ------------------------------------------------------------------------------------
     Multipole            Electronic (a.u.)      Nuclear  (a.u.)        Total (a.u.)
 ------------------------------------------------------------------------------------

 L = 1.  Multiply by 2.5417464519 to convert [e a0] to [Debye]
 Dipole X            :          0.0000000            0.0000000            0.0000000
 Dipole Y            :          0.0000000            0.0000000            0.0000000
 Dipole Z            :         -0.4377820           -0.9969396           -1.4347216
 Magnitude           :                                                    1.4347216

 ------------------------------------------------------------------------------------

*** tstop() called on Joses-MacBook-Pro-2.local at Thu Jul 17 09:40:02 2025
Module time:
	user time   =       2.90 seconds =       0.05 minutes
	system time =       2.29 seconds =       0.04 minutes
	total time  =          0 seconds =       0.00 minutes
Total time:
	user time   =      43.56 seconds =       0.73 minutes
	system time =      51.71 seconds =       0.86 minutes
	total time  =          9 seconds =       0.15 minutes

*** tstart() called on Joses-MacBook-Pro-2.local
*** at Thu Jul 17 09:40:02 2025

         ------------------------------------------------------------
                                   SCF GRAD
                          Rob Parrish, Justin Turney,
                       Andy Simmonett, and Alex Sokolov
         ------------------------------------------------------------

  ==> Geometry <==

    Molecular point group: c2v
    Full point group: C_inf_v

    Geometry (in Angstrom), charge = -1, multiplicity = 6:

       Center              X                  Y                   Z               Mass
    ------------   -----------------  -----------------  -----------------  -----------------
         BE           0.000000000000     0.000000000000     1.042415643877     9.012183065000
         C            0.000000000000     0.000000000000    -0.782870051036    12.000000000000

  Nuclear repulsion =    6.957953536519435

  ==> Basis Set <==

  Basis Set: CC-PVDZ
    Blend: CC-PVDZ
    Number of shells: 12
    Number of basis functions: 28
    Number of Cartesian functions: 30
    Spherical Harmonics?: true
    Max angular momentum: 2

  ==> DFJKGrad: Density-Fitted SCF Gradients <==

    Gradient:                    1
    J tasked:                  Yes
    K tasked:                  Yes
    wK tasked:                  No
    OpenMP threads:              1
    Integrals threads:           1
    Memory [MiB]:              375
    Schwarz Cutoff:          1E-12
    Fitting Condition:       1E-10

   => Auxiliary Basis Set <=

  Basis Set: (CC-PVDZ AUX)
    Blend: CC-PVDZ-JKFIT + DEF2-UNIVERSAL-JKFIT
    Number of shells: 41
    Number of basis functions: 121
    Number of Cartesian functions: 141
    Spherical Harmonics?: true
    Max angular momentum: 3

  ==> DFT Potential <==

   => LibXC <=

    Version 6.2.2
    S. Lehtola, C. Steigemann, M. J.T. Oliveira, and M. A.L. Marques.,  SoftwareX 7, 1â€“5 (2018) (10.1016/j.softx.2017.11.002)

   => Composite Functional: B3LYP <=

    B3LYP Hyb-GGA Exchange-Correlation Functional

    P. J. Stephens, F. J. Devlin, C. F. Chabalowski, and M. J. Frisch.,  J. Phys. Chem. 98, 11623 (1994) (10.1021/j100096a001)

    Deriv               =              1
    GGA                 =           TRUE
    Meta                =          FALSE

    Exchange Hybrid     =           TRUE
    MP2 Hybrid          =          FALSE

   => Exchange Functionals <=

    0.0800   Slater exchange
    0.7200         Becke 88

   => Exact (HF) Exchange <=

    0.2000               HF

   => Correlation Functionals <=

    0.1900   Vosko, Wilk & Nusair (VWN5_RPA)
    0.8100   Lee, Yang & Parr

   => LibXC Density Thresholds  <==

    XC_HYB_GGA_XC_B3LYP:  1.00E-15

   => Molecular Quadrature <=

    Radial Scheme          =       TREUTLER
    Pruning Scheme         =           NONE
    Nuclear Scheme         =       TREUTLER

    Blocking Scheme        =         OCTREE
    BS radius alpha        =              1
    Pruning alpha          =              1
    Radial Points          =             75
    Spherical Points       =            302
    Total Points           =          43376
    Total Blocks           =            402
    Max Points             =            255
    Max Functions          =             28
    Weights Tolerance      =       1.00E-15

  -Total Gradient:
     Atom            X                  Y                   Z
    ------   -----------------  -----------------  -----------------
       1        0.000000000000    -0.000000000000    -0.000007739111
       2       -0.000000000000     0.000000000000     0.000019523937

*** tstop() called on Joses-MacBook-Pro-2.local at Thu Jul 17 09:40:02 2025
Module time:
	user time   =       0.68 seconds =       0.01 minutes
	system time =       1.19 seconds =       0.02 minutes
	total time  =          0 seconds =       0.00 minutes
Total time:
	user time   =      44.25 seconds =       0.74 minutes
	system time =      52.90 seconds =       0.88 minutes
	total time  =          9 seconds =       0.15 minutes

    			-----------------------------------------

    			 OPTKING 3.0: for geometry optimizations

    			     By R.A. King, Bethel University

    			        with contributions from

    			    A.V. Copan, J. Cayton, A. Heide

    			-----------------------------------------

	                            ===> Fragment 1 <==

	 Z (Atomic Numbers)          Masses                          Geom
	       4.000000             9.012183          0.00000000  0.00000000  1.96988008
	       6.000000            12.000000          0.00000000  0.00000000 -1.47940999

	 - Coordinate -           - BOHR/RAD -       - ANG/DEG -
	 R(1,2)           =         3.449290           1.825286

	        --- Internal Coordinate Step in ANG or DEG, aJ/ANG or AJ/DEG ---
	-------------------------------------------------------------------------------
	           Coordinate      Previous         Force          Change          New
	           ----------      --------        ------          ------        ------
	               R(1,2)       1.82529        0.00011        0.00008       1.82537
	-------------------------------------------------------------------------------

	                                 ==> Convergence Check <==

	Measures of convergence in internal coordinates in au.

	Criteria marked as inactive (o), active & met (*), and active & unmet ( ).

	----------------------------------------------------------------------------------------------
	   Step    Total Energy     Delta E     Max Force     RMS Force      Max Disp      RMS Disp
	----------------------------------------------------------------------------------------------
	  Convergence Criteria     1.00e-06 *    3.00e-04 *             o    1.20e-03 *             o
	----------------------------------------------------------------------------------------------
	    11     -52.54613509   -7.62e-08 *    1.36e-05 *    1.36e-05 o    1.55e-04 *    1.55e-04 o  ~
	----------------------------------------------------------------------------------------------

Next Geometry in Ang
	Fragment 1 (Ang)

	   Be   0.0000000000   0.0000000000   1.0424565946
	    C   0.0000000000   0.0000000000  -0.7829110018

    Final optimized geometry and variables:
    Molecular point group: c2v
    Full point group: C_inf_v

    Geometry (in Angstrom), charge = -1, multiplicity = 6:

    BE           0.000000000000     0.000000000000     1.042415643877
    C            0.000000000000     0.000000000000    -0.782870051036

    Psi4 stopped on: Thursday, 17 July 2025 09:40AM
    Psi4 wall time for execution: 0:00:09.74

*** Psi4 exiting successfully. Buy a developer a beer!
