                               Psi4 1.9.1 release

  ==> Input File <==

--------------------------------------------------------------------------
molecule {
-1 6
Be   0.00000        0.60000        0.00000
Be   0.00000       -0.60000        0.00000
}

set {
basis              cc-pvdz
reference          uks
maxiter            500
geom_maxiter       500
DAMPING_PERCENTAGE 1
guess              SAP
}

optimize('b3lyp')
--------------------------------------------------------------------------

    Molecular point group: d2h
  Charge       = -1
  Multiplicity = 6
  Basis Set: CC-PVDZ
    Blend: CC-PVDZ
  Basis Set: (CC-PVDZ AUX)
    Blend: DEF2-UNIVERSAL-JKFIT
  @DF-UKS Final Energy:   -29.01464759099514
    Total Energy =                        -29.0146475909951356
 Dipole X            :          0.0000000            0.0000000            0.0000000
 Dipole Y            :          0.0000000            0.0000000            0.0000000
 Dipole Z            :          0.0000000            0.0000000            0.0000000
 Magnitude           :                                                    0.0000000
    Molecular point group: d2h
  Basis Set: CC-PVDZ
    Blend: CC-PVDZ
  Basis Set: (CC-PVDZ AUX)
    Blend: DEF2-UNIVERSAL-JKFIT
  Basis Set: CC-PVDZ
    Blend: CC-PVDZ
  Basis Set: (CC-PVDZ AUX)
    Blend: DEF2-UNIVERSAL-JKFIT
  @DF-UKS Final Energy:   -29.15179845430458
    Total Energy =                        -29.1517984543045792
  Basis Set: CC-PVDZ
    Blend: CC-PVDZ
  Basis Set: (CC-PVDZ AUX)
    Blend: DEF2-UNIVERSAL-JKFIT
  Basis Set: CC-PVDZ
    Blend: CC-PVDZ
  @DF-UKS Final Energy:   -29.21277037729890
    Total Energy =                        -29.2127703772988951
  @DF-UKS Final Energy:   -29.23992155519733
    Total Energy =                        -29.2399215551973342
  @DF-UKS Final Energy:   -29.25013241351696
    Total Energy =                        -29.2501324135169618
  @DF-UKS Final Energy:   -29.25300135638275
    Total Energy =                        -29.2530013563827538
  @DF-UKS Final Energy:   -29.25341541704423
    Total Energy =                        -29.2534154170442342
  @DF-UKS Final Energy:   -29.25348895197919
    Total Energy =                        -29.2534889519791932
  Basis Set: (CC-PVDZ AUX)
    Blend: DEF2-UNIVERSAL-JKFIT
  Basis Set: CC-PVDZ
    Blend: CC-PVDZ
  Basis Set: (CC-PVDZ AUX)
    Blend: DEF2-UNIVERSAL-JKFIT
  @DF-UKS Final Energy:   -29.25349337303879
    Total Energy =                        -29.2534933730387898
  Basis Set: CC-PVDZ
    Blend: CC-PVDZ
  Basis Set: (CC-PVDZ AUX)
    Blend: DEF2-UNIVERSAL-JKFIT
  Charge       = -1
  Multiplicity = 6
  Basis Set: CC-PVDZ
    Blend: CC-PVDZ
  Basis Set: (CC-PVDZ AUX)
    Blend: DEF2-UNIVERSAL-JKFIT

    Orbital Energies [Eh]
    ---------------------

    Alpha Occupied:

       1Ag    -3.872160     1B2u   -3.871735     2Ag    -0.161835
       2B2u   -0.021642     1B1u    0.028852     1B3u    0.028852
       3Ag     0.030347

    Alpha Virtual:

       1B1g    0.165393     1B3g    0.165393     3B2u    0.250302
       4Ag     0.307841     2B3u    0.334821     2B1u    0.334821
       5Ag     0.348655     2B3g    0.391305     2B1g    0.391305
       4B2u    0.417560     5B2u    0.551542     1B2g    0.586410
       6Ag     0.586410     3B1u    0.612202     3B3u    0.612202
       1Au     0.730713     6B2u    0.730713     7Ag     0.865566
       3B3g    0.925148     3B1g    0.925148     7B2u    1.082279

    Beta Occupied:

       1Ag    -3.853619     1B2u   -3.853396

    Beta Virtual:

       2Ag     0.039135     2B2u    0.135738     1B3u    0.169487
       1B1u    0.169487     3Ag     0.195343     1B1g    0.248191
       1B3g    0.248191     3B2u    0.308220     4Ag     0.379140
       2B3u    0.391250     2B1u    0.391250     5Ag     0.423686
       2B3g    0.443700     2B1g    0.443700     4B2u    0.494575
       5B2u    0.624034     1B2g    0.695930     6Ag     0.695937
       3B3u    0.739131     3B1u    0.739131     6B2u    0.828665
       1Au     0.828672     7Ag     0.974263     3B3g    1.027644
       3B1g    1.027644     7B2u    1.160337

    Final Occupation by Irrep:
             Ag   B1g   B2g   B3g    Au   B1u   B2u   B3u
    DOCC [     1,    0,    0,    0,    0,    0,    1,    0 ]
    SOCC [     2,    0,    0,    0,    0,    1,    1,    1 ]
    NA   [     3,    0,    0,    0,    0,    1,    2,    1 ]
    NB   [     1,    0,    0,    0,    0,    0,    1,    0 ]

  @DF-UKS Final Energy:   -29.25349364400870

   => Energetics <=

    Nuclear Repulsion Energy =              4.1199782697842933
    One-Electron Energy =                 -47.8185222593547223
    Two-Electron Energy =                  19.1376498661265941
    DFT Exchange-Correlation Energy =      -4.6925995205648592
    Empirical Dispersion Energy =           0.0000000000000000
    VV10 Nonlocal Energy =                  0.0000000000000000
    Total Energy =                        -29.2534936440086959

  UHF NO Occupations:
  HONO-2 :    2B2u 1.0000000
  HONO-1 :    1B1u 1.0000000
  HONO-0 :    3 Ag 1.0000000
  LUNO+0 :    4 Ag 0.0000002
  LUNO+1 :    3B2u 0.0000001
  LUNO+2 :    4B2u 0.0000000
  LUNO+3 :    5B2u 0.0000000

Computation Completed

Properties will be evaluated at   0.000000,   0.000000,   0.000000 [a0]

Properties computed using the SCF density matrix

 Multipole Moments:

 ------------------------------------------------------------------------------------
     Multipole            Electronic (a.u.)      Nuclear  (a.u.)        Total (a.u.)
 ------------------------------------------------------------------------------------

 L = 1.  Multiply by 2.5417464519 to convert [e a0] to [Debye]
 Dipole X            :          0.0000000            0.0000000            0.0000000
 Dipole Y            :          0.0000000            0.0000000            0.0000000
 Dipole Z            :          0.0000000            0.0000000            0.0000000
 Magnitude           :                                                    0.0000000

 ------------------------------------------------------------------------------------

*** tstop() called on Joses-MacBook-Pro-2.local at Thu Jul 17 09:39:05 2025
Module time:
	user time   =       1.38 seconds =       0.02 minutes
	system time =       3.36 seconds =       0.06 minutes
	total time  =          0 seconds =       0.00 minutes
Total time:
	user time   =      30.57 seconds =       0.51 minutes
	system time =      51.47 seconds =       0.86 minutes
	total time  =          7 seconds =       0.12 minutes

*** tstart() called on Joses-MacBook-Pro-2.local
*** at Thu Jul 17 09:39:05 2025

         ------------------------------------------------------------
                                   SCF GRAD
                          Rob Parrish, Justin Turney,
                       Andy Simmonett, and Alex Sokolov
         ------------------------------------------------------------

  ==> Geometry <==

    Molecular point group: d2h
    Full point group: D_inf_h

    Geometry (in Angstrom), charge = -1, multiplicity = 6:

       Center              X                  Y                   Z               Mass
    ------------   -----------------  -----------------  -----------------  -----------------
         BE          -0.000000000000     1.027533983955     0.000000000000     9.012183065000
         BE           0.000000000000    -1.027533983955     0.000000000000     9.012183065000

  Nuclear repulsion =    4.119978269784293

  ==> Basis Set <==

  Basis Set: CC-PVDZ
    Blend: CC-PVDZ
    Number of shells: 12
    Number of basis functions: 28
    Number of Cartesian functions: 30
    Spherical Harmonics?: true
    Max angular momentum: 2

  ==> DFJKGrad: Density-Fitted SCF Gradients <==

    Gradient:                    1
    J tasked:                  Yes
    K tasked:                  Yes
    wK tasked:                  No
    OpenMP threads:              1
    Integrals threads:           1
    Memory [MiB]:              375
    Schwarz Cutoff:          1E-12
    Fitting Condition:       1E-10

   => Auxiliary Basis Set <=

  Basis Set: (CC-PVDZ AUX)
    Blend: DEF2-UNIVERSAL-JKFIT
    Number of shells: 34
    Number of basis functions: 102
    Number of Cartesian functions: 120
    Spherical Harmonics?: true
    Max angular momentum: 3

  ==> DFT Potential <==

   => LibXC <=

    Version 6.2.2
    S. Lehtola, C. Steigemann, M. J.T. Oliveira, and M. A.L. Marques.,  SoftwareX 7, 1â€“5 (2018) (10.1016/j.softx.2017.11.002)

   => Composite Functional: B3LYP <=

    B3LYP Hyb-GGA Exchange-Correlation Functional

    P. J. Stephens, F. J. Devlin, C. F. Chabalowski, and M. J. Frisch.,  J. Phys. Chem. 98, 11623 (1994) (10.1021/j100096a001)

    Deriv               =              1
    GGA                 =           TRUE
    Meta                =          FALSE

    Exchange Hybrid     =           TRUE
    MP2 Hybrid          =          FALSE

   => Exchange Functionals <=

    0.0800   Slater exchange
    0.7200         Becke 88

   => Exact (HF) Exchange <=

    0.2000               HF

   => Correlation Functionals <=

    0.1900   Vosko, Wilk & Nusair (VWN5_RPA)
    0.8100   Lee, Yang & Parr

   => LibXC Density Thresholds  <==

    XC_HYB_GGA_XC_B3LYP:  1.00E-15

   => Molecular Quadrature <=

    Radial Scheme          =       TREUTLER
    Pruning Scheme         =           NONE
    Nuclear Scheme         =       TREUTLER

    Blocking Scheme        =         OCTREE
    BS radius alpha        =              1
    Pruning alpha          =              1
    Radial Points          =             75
    Spherical Points       =            302
    Total Points           =          42552
    Total Blocks           =            394
    Max Points             =            255
    Max Functions          =             28
    Weights Tolerance      =       1.00E-15

  -Total Gradient:
     Atom            X                  Y                   Z
    ------   -----------------  -----------------  -----------------
       1        0.000000000000    -0.000046655071     0.000000000000
       2       -0.000000000000     0.000046655071    -0.000000000000

*** tstop() called on Joses-MacBook-Pro-2.local at Thu Jul 17 09:39:06 2025
Module time:
	user time   =       0.59 seconds =       0.01 minutes
	system time =       1.27 seconds =       0.02 minutes
	total time  =          1 seconds =       0.02 minutes
Total time:
	user time   =      31.16 seconds =       0.52 minutes
	system time =      52.74 seconds =       0.88 minutes
	total time  =          8 seconds =       0.13 minutes

    			-----------------------------------------

    			 OPTKING 3.0: for geometry optimizations

    			     By R.A. King, Bethel University

    			        with contributions from

    			    A.V. Copan, J. Cayton, A. Heide

    			-----------------------------------------

	                            ===> Fragment 1 <==

	 Z (Atomic Numbers)          Masses                          Geom
	       4.000000             9.012183         -0.00000000  1.94175781  0.00000000
	       4.000000             9.012183          0.00000000 -1.94175781  0.00000000

	 - Coordinate -           - BOHR/RAD -       - ANG/DEG -
	 R(1,2)           =         3.883516           2.055068

	        --- Internal Coordinate Step in ANG or DEG, aJ/ANG or AJ/DEG ---
	-------------------------------------------------------------------------------
	           Coordinate      Previous         Force          Change          New
	           ----------      --------        ------          ------        ------
	               R(1,2)       2.05507        0.00038        0.00037       2.05544
	-------------------------------------------------------------------------------

	                                 ==> Convergence Check <==

	Measures of convergence in internal coordinates in au.

	Criteria marked as inactive (o), active & met (*), and active & unmet ( ).

	----------------------------------------------------------------------------------------------
	   Step    Total Energy     Delta E     Max Force     RMS Force      Max Disp      RMS Disp
	----------------------------------------------------------------------------------------------
	  Convergence Criteria     1.00e-06 *    3.00e-04 *             o    1.20e-03 *             o
	----------------------------------------------------------------------------------------------
	    10     -29.25349364   -2.71e-07 *    4.67e-05 *    4.67e-05 o    7.08e-04 *    7.08e-04 o  ~
	----------------------------------------------------------------------------------------------

Next Geometry in Ang
	Fragment 1 (Ang)

	   Be  -0.0000000000   1.0277213704   0.0000000000
	   Be   0.0000000000  -1.0277213704   0.0000000000

    Final optimized geometry and variables:
    Molecular point group: d2h
    Full point group: D_inf_h

    Geometry (in Angstrom), charge = -1, multiplicity = 6:

    BE          -0.000000000000     1.027533983955     0.000000000000
    BE           0.000000000000    -1.027533983955     0.000000000000

    Psi4 stopped on: Thursday, 17 July 2025 09:39AM
    Psi4 wall time for execution: 0:00:08.61

*** Psi4 exiting successfully. Buy a developer a beer!
