                               Psi4 1.9.1 release

  ==> Input File <==

--------------------------------------------------------------------------
molecule {
-1 6
Si   0.00000        0.60000        0.00000
Ar   0.00000       -0.60000        0.00000
}

set {
basis              cc-pvdz
reference          uks
maxiter            500
geom_maxiter       500
DAMPING_PERCENTAGE 1
guess              SAP
}

optimize('b3lyp')
--------------------------------------------------------------------------

    Molecular point group: c2v
  Charge       = -1
  Multiplicity = 6
  Basis Set: CC-PVDZ
    Blend: CC-PVDZ
  Basis Set: (CC-PVDZ AUX)
    Blend: CC-PVDZ-JKFIT
  @DF-UKS Final Energy:  -815.07671054760772
    Total Energy =                       -815.0767105476077177
 Dipole X            :          0.0000000            0.0000000            0.0000000
 Dipole Y            :          0.0000000            0.0000000            0.0000000
 Dipole Z            :         -3.6777607            1.8654469           -1.8123138
 Magnitude           :                                                    1.8123138
    Molecular point group: c2v
  Basis Set: CC-PVDZ
    Blend: CC-PVDZ
  Basis Set: (CC-PVDZ AUX)
    Blend: CC-PVDZ-JKFIT
  Basis Set: CC-PVDZ
    Blend: CC-PVDZ
  Basis Set: (CC-PVDZ AUX)
    Blend: CC-PVDZ-JKFIT
  @DF-UKS Final Energy:  -815.11485816539096
    Total Energy =                       -815.1148581653908423
  Basis Set: CC-PVDZ
    Blend: CC-PVDZ
  Basis Set: (CC-PVDZ AUX)
    Blend: CC-PVDZ-JKFIT
  Basis Set: CC-PVDZ
    Blend: CC-PVDZ
  @DF-UKS Final Energy:  -815.18560759688614
    Total Energy =                       -815.1856075968860296
  @DF-UKS Final Energy:  -815.41567575186525
    Total Energy =                       -815.4156757518653649
  @DF-UKS Final Energy:  -815.90203129322447
    Total Energy =                       -815.9020312932244678
  @DF-UKS Final Energy:  -816.07096678941627
    Total Energy =                       -816.0709667894161612
  @DF-UKS Final Energy:  -816.18370277538963
    Total Energy =                       -816.1837027753896336
  @DF-UKS Final Energy:  -816.31112216607653
    Total Energy =                       -816.3111221660765295
  @DF-UKS Final Energy:  -816.38876722108785
    Total Energy =                       -816.3887672210877327
  @DF-UKS Final Energy:  -816.41305812794883
    Total Energy =                       -816.4130581279488297
  @DF-UKS Final Energy:  -816.42422946371414
    Total Energy =                       -816.4242294637142550
  @DF-UKS Final Energy:  -816.42931600919837
    Total Energy =                       -816.4293160091983736
  @DF-UKS Final Energy:  -816.43228818996295
    Total Energy =                       -816.4322881899629465
  @DF-UKS Final Energy:  -816.43890418285264
    Total Energy =                       -816.4389041828526388
  @DF-UKS Final Energy:  -816.45785025863620
    Total Energy =                       -816.4578502586361992
  @DF-UKS Final Energy:  -816.45816579555196
    Total Energy =                       -816.4581657955519631
  @DF-UKS Final Energy:  -816.46640246301945
    Total Energy =                       -816.4664024630194490
  @DF-UKS Final Energy:  -816.46649613800275
    Total Energy =                       -816.4664961380027535
  @DF-UKS Final Energy:  -816.46915861156378
    Total Energy =                       -816.4691586115637847
  @DF-UKS Final Energy:  -816.46917130571421
    Total Energy =                       -816.4691713057142124
  @DF-UKS Final Energy:  -816.46964763288031
    Total Energy =                       -816.4696476328803101
  @DF-UKS Final Energy:  -816.46967840236425
    Total Energy =                       -816.4696784023642522
  Basis Set: (CC-PVDZ AUX)
    Blend: CC-PVDZ-JKFIT
  Basis Set: CC-PVDZ
    Blend: CC-PVDZ
  Basis Set: (CC-PVDZ AUX)
    Blend: CC-PVDZ-JKFIT
  @DF-UKS Final Energy:  -816.46968010194701
    Total Energy =                       -816.4696801019470058
  Basis Set: CC-PVDZ
    Blend: CC-PVDZ
  Basis Set: (CC-PVDZ AUX)
    Blend: CC-PVDZ-JKFIT
  Charge       = -1
  Multiplicity = 6
  Basis Set: CC-PVDZ
    Blend: CC-PVDZ
  Basis Set: (CC-PVDZ AUX)
    Blend: CC-PVDZ-JKFIT

    Orbital Energies [Eh]
    ---------------------

    Alpha Occupied:

       1A1  -114.963597     2A1   -65.917692     3A1   -11.000109
       1B2    -8.550054     1B1    -8.550054     4A1    -8.549792
       5A1    -5.067751     6A1    -3.425307     2B1    -3.425120
       2B2    -3.425120     7A1    -0.829924     3B2    -0.288847
       3B1    -0.288847     8A1    -0.286106     9A1    -0.253696
       4B1     0.016029     4B2     0.016029    10A1     0.016797
      11A1     0.375370

    Alpha Virtual:

      12A1     0.481445     5B2     0.486823     5B1     0.486823
      13A1     0.554087     1A2     0.557428    14A1     0.557430
       6B1     0.557508     6B2     0.557508     7B2     0.714282
       7B1     0.714282    15A1     0.749764    16A1     0.888228
      17A1     0.969229     2A2     0.969230     8B1     0.971386
       8B2     0.971386    18A1     0.975553

    Beta Occupied:

       1A1  -114.963316     2A1   -65.899354     3A1   -10.999826
       1B2    -8.549854     1B1    -8.549854     4A1    -8.549105
       5A1    -5.042892     6A1    -3.401762     2B1    -3.401579
       2B2    -3.401579     7A1    -0.829029     3B2    -0.288557
       3B1    -0.288557     8A1    -0.284481

    Beta Virtual:

       9A1    -0.021806    10A1     0.201649     4B2     0.202352
       4B1     0.202352    11A1     0.519802    12A1     0.573858
       5B2     0.589878     5B1     0.589878    13A1     0.689689
      14A1     0.696772     1A2     0.696773     6B1     0.697170
       6B2     0.697170     7B2     0.716138     7B1     0.716138
      15A1     0.761698    16A1     0.895775    17A1     0.969513
       2A2     0.969514     8B1     0.972157     8B2     0.972157
      18A1     0.977530

    Final Occupation by Irrep:
             A1    A2    B1    B2
    DOCC [     8,    0,    3,    3 ]
    SOCC [     3,    0,    1,    1 ]
    NA   [    11,    0,    4,    4 ]
    NB   [     8,    0,    3,    3 ]

  @DF-UKS Final Energy:  -816.46968020295890

   => Energetics <=

    Nuclear Repulsion Energy =             31.9385629148539927
    One-Electron Energy =               -1198.2143359892284025
    Two-Electron Energy =                 391.6696709800048666
    DFT Exchange-Correlation Energy =     -41.8635781085892873
    Empirical Dispersion Energy =           0.0000000000000000
    VV10 Nonlocal Energy =                  0.0000000000000000
    Total Energy =                       -816.4696802029588980

  UHF NO Occupations:
  HONO-2 :    4 B2 1.0000000
  HONO-1 :   10 A1 1.0000000
  HONO-0 :   11 A1 1.0000000
  LUNO+0 :   12 A1 0.0000035
  LUNO+1 :    5 B2 0.0000008
  LUNO+2 :    5 B1 0.0000008
  LUNO+3 :   13 A1 0.0000007

Computation Completed

Properties will be evaluated at   0.000000,   0.000000,   0.000000 [a0]

Properties computed using the SCF density matrix

 Multipole Moments:

 ------------------------------------------------------------------------------------
     Multipole            Electronic (a.u.)      Nuclear  (a.u.)        Total (a.u.)
 ------------------------------------------------------------------------------------

 L = 1.  Multiply by 2.5417464519 to convert [e a0] to [Debye]
 Dipole X            :          0.0000000            0.0000000            0.0000000
 Dipole Y            :          0.0000000            0.0000000            0.0000000
 Dipole Z            :        -10.8621448            6.4906462           -4.3714985
 Magnitude           :                                                    4.3714985

 ------------------------------------------------------------------------------------

*** tstop() called on Joses-MacBook-Pro-2.local at Thu Jul 17 11:53:24 2025
Module time:
	user time   =       5.41 seconds =       0.09 minutes
	system time =       1.89 seconds =       0.03 minutes
	total time  =          1 seconds =       0.02 minutes
Total time:
	user time   =     273.07 seconds =       4.55 minutes
	system time =      64.26 seconds =       1.07 minutes
	total time  =         32 seconds =       0.53 minutes

*** tstart() called on Joses-MacBook-Pro-2.local
*** at Thu Jul 17 11:53:24 2025

         ------------------------------------------------------------
                                   SCF GRAD
                          Rob Parrish, Justin Turney,
                       Andy Simmonett, and Alex Sokolov
         ------------------------------------------------------------

  ==> Geometry <==

    Molecular point group: c2v
    Full point group: C_inf_v

    Geometry (in Angstrom), charge = -1, multiplicity = 6:

       Center              X                  Y                   Z               Mass
    ------------   -----------------  -----------------  -----------------  -----------------
         SI           0.000000000000     0.000000000000     2.455933211017    27.976926534650
         AR           0.000000000000     0.000000000000    -1.719353493158    39.962383123700

  Nuclear repulsion =   31.938562914853993

  ==> Basis Set <==

  Basis Set: CC-PVDZ
    Blend: CC-PVDZ
    Number of shells: 16
    Number of basis functions: 36
    Number of Cartesian functions: 38
    Spherical Harmonics?: true
    Max angular momentum: 2

  ==> DFJKGrad: Density-Fitted SCF Gradients <==

    Gradient:                    1
    J tasked:                  Yes
    K tasked:                  Yes
    wK tasked:                  No
    OpenMP threads:              1
    Integrals threads:           1
    Memory [MiB]:              375
    Schwarz Cutoff:          1E-12
    Fitting Condition:       1E-10

   => Auxiliary Basis Set <=

  Basis Set: (CC-PVDZ AUX)
    Blend: CC-PVDZ-JKFIT
    Number of shells: 72
    Number of basis functions: 224
    Number of Cartesian functions: 260
    Spherical Harmonics?: true
    Max angular momentum: 3

  ==> DFT Potential <==

   => LibXC <=

    Version 6.2.2
    S. Lehtola, C. Steigemann, M. J.T. Oliveira, and M. A.L. Marques.,  SoftwareX 7, 1â€“5 (2018) (10.1016/j.softx.2017.11.002)

   => Composite Functional: B3LYP <=

    B3LYP Hyb-GGA Exchange-Correlation Functional

    P. J. Stephens, F. J. Devlin, C. F. Chabalowski, and M. J. Frisch.,  J. Phys. Chem. 98, 11623 (1994) (10.1021/j100096a001)

    Deriv               =              1
    GGA                 =           TRUE
    Meta                =          FALSE

    Exchange Hybrid     =           TRUE
    MP2 Hybrid          =          FALSE

   => Exchange Functionals <=

    0.0800   Slater exchange
    0.7200         Becke 88

   => Exact (HF) Exchange <=

    0.2000               HF

   => Correlation Functionals <=

    0.1900   Vosko, Wilk & Nusair (VWN5_RPA)
    0.8100   Lee, Yang & Parr

   => LibXC Density Thresholds  <==

    XC_HYB_GGA_XC_B3LYP:  1.00E-15

   => Molecular Quadrature <=

    Radial Scheme          =       TREUTLER
    Pruning Scheme         =           NONE
    Nuclear Scheme         =       TREUTLER

    Blocking Scheme        =         OCTREE
    BS radius alpha        =              1
    Pruning alpha          =              1
    Radial Points          =             75
    Spherical Points       =            302
    Total Points           =          41777
    Total Blocks           =            426
    Max Points             =            254
    Max Functions          =             36
    Weights Tolerance      =       1.00E-15

  -Total Gradient:
     Atom            X                  Y                   Z
    ------   -----------------  -----------------  -----------------
       1        0.000000000000     0.000000000000    -0.000012180504
       2        0.000000000000     0.000000000000     0.000004455886

*** tstop() called on Joses-MacBook-Pro-2.local at Thu Jul 17 11:53:24 2025
Module time:
	user time   =       2.24 seconds =       0.04 minutes
	system time =       0.79 seconds =       0.01 minutes
	total time  =          0 seconds =       0.00 minutes
Total time:
	user time   =     275.31 seconds =       4.59 minutes
	system time =      65.05 seconds =       1.08 minutes
	total time  =         32 seconds =       0.53 minutes

    			-----------------------------------------

    			 OPTKING 3.0: for geometry optimizations

    			     By R.A. King, Bethel University

    			        with contributions from

    			    A.V. Copan, J. Cayton, A. Heide

    			-----------------------------------------

	                            ===> Fragment 1 <==

	 Z (Atomic Numbers)          Masses                          Geom
	      14.000000            27.976927          0.00000000  0.00000000  4.64104115
	      18.000000            39.962383          0.00000000  0.00000000 -3.24910721

	 - Coordinate -           - BOHR/RAD -       - ANG/DEG -
	 R(1,2)           =         7.890148           4.175287

	        --- Internal Coordinate Step in ANG or DEG, aJ/ANG or AJ/DEG ---
	-------------------------------------------------------------------------------
	           Coordinate      Previous         Force          Change          New
	           ----------      --------        ------          ------        ------
	               R(1,2)       4.17529        0.00007        0.00070       4.17599
	-------------------------------------------------------------------------------

	                                 ==> Convergence Check <==

	Measures of convergence in internal coordinates in au.

	Criteria marked as inactive (o), active & met (*), and active & unmet ( ).

	----------------------------------------------------------------------------------------------
	   Step    Total Energy     Delta E     Max Force     RMS Force      Max Disp      RMS Disp
	----------------------------------------------------------------------------------------------
	  Convergence Criteria     1.00e-06 *    3.00e-04 *             o    1.20e-03 *             o
	----------------------------------------------------------------------------------------------
	    24    -816.46968020   -1.01e-07 *    8.32e-06 *    8.32e-06 o    1.33e-03      1.33e-03 o  ~
	----------------------------------------------------------------------------------------------

Next Geometry in Ang
	Fragment 1 (Ang)

	   Si   0.0000000000   0.0000000000   2.4562853352
	   Ar   0.0000000000   0.0000000000  -1.7197056173

    Final optimized geometry and variables:
    Molecular point group: c2v
    Full point group: C_inf_v

    Geometry (in Angstrom), charge = -1, multiplicity = 6:

    SI           0.000000000000     0.000000000000     2.455933211017
    AR           0.000000000000     0.000000000000    -1.719353493158

    Psi4 stopped on: Thursday, 17 July 2025 11:53AM
    Psi4 wall time for execution: 0:00:32.70

*** Psi4 exiting successfully. Buy a developer a beer!
