                               Psi4 1.9.1 release

  ==> Input File <==

--------------------------------------------------------------------------
molecule {
-1 6
P   0.00000        0.60000        0.00000
Cl   0.00000       -0.60000        0.00000
}

set {
basis              cc-pvdz
reference          uks
maxiter            500
geom_maxiter       500
DAMPING_PERCENTAGE 1
guess              SAP
}

optimize('b3lyp')
--------------------------------------------------------------------------

    Molecular point group: c2v
  Charge       = -1
  Multiplicity = 6
  Basis Set: CC-PVDZ
    Blend: CC-PVDZ
  Basis Set: (CC-PVDZ AUX)
    Blend: CC-PVDZ-JKFIT
  @DF-UKS Final Energy:  -799.67087808733959
    Total Energy =                       -799.6708780873395881
 Dipole X            :          0.0000000            0.0000000            0.0000000
 Dipole Y            :          0.0000000            0.0000000            0.0000000
 Dipole Z            :         -0.7820727           -0.0695049           -0.8515776
 Magnitude           :                                                    0.8515776
    Molecular point group: c2v
  Basis Set: CC-PVDZ
    Blend: CC-PVDZ
  Basis Set: (CC-PVDZ AUX)
    Blend: CC-PVDZ-JKFIT
  Basis Set: CC-PVDZ
    Blend: CC-PVDZ
  Basis Set: (CC-PVDZ AUX)
    Blend: CC-PVDZ-JKFIT
  @DF-UKS Final Energy:  -799.70959097539981
    Total Energy =                       -799.7095909753996921
  Basis Set: CC-PVDZ
    Blend: CC-PVDZ
  Basis Set: (CC-PVDZ AUX)
    Blend: CC-PVDZ-JKFIT
  Basis Set: CC-PVDZ
    Blend: CC-PVDZ
  @DF-UKS Final Energy:  -799.78123476169253
    Total Energy =                       -799.7812347616926445
  @DF-UKS Final Energy:  -800.01276669051833
    Total Energy =                       -800.0127666905183332
  @DF-UKS Final Energy:  -800.48182547541342
    Total Energy =                       -800.4818254754134159
  @DF-UKS Final Energy:  -800.63725942311839
    Total Energy =                       -800.6372594231183939
  @DF-UKS Final Energy:  -800.81548135062599
    Total Energy =                       -800.8154813506259870
  @DF-UKS Final Energy:  -800.89783664298795
    Total Energy =                       -800.8978366429880680
  @DF-UKS Final Energy:  -800.93602639352730
    Total Energy =                       -800.9360263935272997
  @DF-UKS Final Energy:  -800.95262244559228
    Total Energy =                       -800.9526224455922829
  @DF-UKS Final Energy:  -800.95792808769465
    Total Energy =                       -800.9579280876946541
  @DF-UKS Final Energy:  -800.95911162201037
    Total Energy =                       -800.9591116220103686
  @DF-UKS Final Energy:  -800.95986595329668
    Total Energy =                       -800.9598659532966849
  @DF-UKS Final Energy:  -800.96136719951483
    Total Energy =                       -800.9613671995149389
  @DF-UKS Final Energy:  -800.98021560141308
    Total Energy =                       -800.9802156014130787
  @DF-UKS Final Energy:  -801.01426706257041
    Total Energy =                       -801.0142670625704113
  @DF-UKS Final Energy:  -801.01525953799955
    Total Energy =                       -801.0152595379995546
  @DF-UKS Final Energy:  -801.03179387804710
    Total Energy =                       -801.0317938780470968
  @DF-UKS Final Energy:  -801.03194623134277
    Total Energy =                       -801.0319462313426584
  @DF-UKS Final Energy:  -801.03363379675136
    Total Energy =                       -801.0336337967513600
  Basis Set: (CC-PVDZ AUX)
    Blend: CC-PVDZ-JKFIT
  Basis Set: CC-PVDZ
    Blend: CC-PVDZ
  Basis Set: (CC-PVDZ AUX)
    Blend: CC-PVDZ-JKFIT
  @DF-UKS Final Energy:  -801.03366382706736
    Total Energy =                       -801.0336638270672438
  Basis Set: CC-PVDZ
    Blend: CC-PVDZ
  Basis Set: (CC-PVDZ AUX)
    Blend: CC-PVDZ-JKFIT
  Charge       = -1
  Multiplicity = 6
  Basis Set: CC-PVDZ
    Blend: CC-PVDZ
  Basis Set: (CC-PVDZ AUX)
    Blend: CC-PVDZ-JKFIT

    Orbital Energies [Eh]
    ---------------------

    Alpha Occupied:

       1A1  -101.394790     2A1   -76.797187     3A1    -9.312503
       4A1    -7.085377     1B2    -7.062890     1B1    -7.062890
       5A1    -6.275771     6A1    -4.436814     2B2    -4.435965
       2B1    -4.435965     7A1    -0.659737     8A1    -0.326193
       9A1    -0.220538     3B1    -0.170937     3B2    -0.170937
       4B1     0.002314     4B2     0.002314    10A1     0.004972
      11A1     0.488347

    Alpha Virtual:

      12A1     0.600919     5B1     0.624835     5B2     0.624835
      13A1     0.677511     6B1     0.695817     6B2     0.695817
       1A2     0.704555    14A1     0.704562     7B1     0.717111
       7B2     0.717111    15A1     0.719651    16A1     0.817564
       8B1     0.853574     8B2     0.853574    17A1     0.891373
       2A2     0.891392    18A1     0.892155

    Beta Occupied:

       1A1  -101.386695     2A1   -76.781228     3A1    -9.304423
       4A1    -7.060086     1B2    -7.057941     1B1    -7.057941
       5A1    -6.257441     6A1    -4.414932     2B2    -4.414623
       2B1    -4.414623     7A1    -0.603378     8A1    -0.201698
       3B1    -0.153597     3B2    -0.153597

    Beta Virtual:

       9A1    -0.053920     4B1     0.150426     4B2     0.150426
      10A1     0.156233    11A1     0.610045    12A1     0.669593
       5B1     0.686827     5B2     0.686827     6B1     0.726365
       6B2     0.726365    13A1     0.730023    14A1     0.794762
       1A2     0.800921    15A1     0.800927     7B1     0.803790
       7B2     0.803790    16A1     0.890300    17A1     0.900858
       2A2     0.900875     8B1     0.913476     8B2     0.913476
      18A1     0.958527

    Final Occupation by Irrep:
             A1    A2    B1    B2
    DOCC [     8,    0,    3,    3 ]
    SOCC [     3,    0,    1,    1 ]
    NA   [    11,    0,    4,    4 ]
    NB   [     8,    0,    3,    3 ]

  @DF-UKS Final Energy:  -801.03366399684319

   => Energetics <=

    Nuclear Repulsion Energy =             35.7826111425258162
    One-Electron Energy =               -1185.4206995603851738
    Two-Electron Energy =                 390.2284597444382257
    DFT Exchange-Correlation Energy =     -41.6240353234221558
    Empirical Dispersion Energy =           0.0000000000000000
    VV10 Nonlocal Energy =                  0.0000000000000000
    Total Energy =                       -801.0336639968433019

  UHF NO Occupations:
  HONO-2 :   10 A1 1.0000000
  HONO-1 :    4 B2 1.0000000
  HONO-0 :   11 A1 1.0000000
  LUNO+0 :   12 A1 0.0009089
  LUNO+1 :    5 B1 0.0000508
  LUNO+2 :    5 B2 0.0000508
  LUNO+3 :   13 A1 0.0000104

Computation Completed

Properties will be evaluated at   0.000000,   0.000000,   0.000000 [a0]

Properties computed using the SCF density matrix

 Multipole Moments:

 ------------------------------------------------------------------------------------
     Multipole            Electronic (a.u.)      Nuclear  (a.u.)        Total (a.u.)
 ------------------------------------------------------------------------------------

 L = 1.  Multiply by 2.5417464519 to convert [e a0] to [Debye]
 Dipole X            :          0.0000000            0.0000000            0.0000000
 Dipole Y            :          0.0000000            0.0000000            0.0000000
 Dipole Z            :         -2.0904512           -0.2184256           -2.3088768
 Magnitude           :                                                    2.3088768

 ------------------------------------------------------------------------------------

*** tstop() called on Joses-MacBook-Pro-2.local at Thu Jul 17 12:03:32 2025
Module time:
	user time   =       6.59 seconds =       0.11 minutes
	system time =       1.84 seconds =       0.03 minutes
	total time  =          0 seconds =       0.00 minutes
Total time:
	user time   =     396.08 seconds =       6.60 minutes
	system time =      91.38 seconds =       1.52 minutes
	total time  =         48 seconds =       0.80 minutes

*** tstart() called on Joses-MacBook-Pro-2.local
*** at Thu Jul 17 12:03:32 2025

         ------------------------------------------------------------
                                   SCF GRAD
                          Rob Parrish, Justin Turney,
                       Andy Simmonett, and Alex Sokolov
         ------------------------------------------------------------

  ==> Geometry <==

    Molecular point group: c2v
    Full point group: C_inf_v

    Geometry (in Angstrom), charge = -1, multiplicity = 6:

       Center              X                  Y                   Z               Mass
    ------------   -----------------  -----------------  -----------------  -----------------
         P            0.000000000000     0.000000000000     1.999790516349    30.973761998420
         CL           0.000000000000     0.000000000000    -1.771320210685    34.968852682000

  Nuclear repulsion =   35.782611142525816

  ==> Basis Set <==

  Basis Set: CC-PVDZ
    Blend: CC-PVDZ
    Number of shells: 16
    Number of basis functions: 36
    Number of Cartesian functions: 38
    Spherical Harmonics?: true
    Max angular momentum: 2

  ==> DFJKGrad: Density-Fitted SCF Gradients <==

    Gradient:                    1
    J tasked:                  Yes
    K tasked:                  Yes
    wK tasked:                  No
    OpenMP threads:              1
    Integrals threads:           1
    Memory [MiB]:              375
    Schwarz Cutoff:          1E-12
    Fitting Condition:       1E-10

   => Auxiliary Basis Set <=

  Basis Set: (CC-PVDZ AUX)
    Blend: CC-PVDZ-JKFIT
    Number of shells: 72
    Number of basis functions: 224
    Number of Cartesian functions: 260
    Spherical Harmonics?: true
    Max angular momentum: 3

  ==> DFT Potential <==

   => LibXC <=

    Version 6.2.2
    S. Lehtola, C. Steigemann, M. J.T. Oliveira, and M. A.L. Marques.,  SoftwareX 7, 1â€“5 (2018) (10.1016/j.softx.2017.11.002)

   => Composite Functional: B3LYP <=

    B3LYP Hyb-GGA Exchange-Correlation Functional

    P. J. Stephens, F. J. Devlin, C. F. Chabalowski, and M. J. Frisch.,  J. Phys. Chem. 98, 11623 (1994) (10.1021/j100096a001)

    Deriv               =              1
    GGA                 =           TRUE
    Meta                =          FALSE

    Exchange Hybrid     =           TRUE
    MP2 Hybrid          =          FALSE

   => Exchange Functionals <=

    0.0800   Slater exchange
    0.7200         Becke 88

   => Exact (HF) Exchange <=

    0.2000               HF

   => Correlation Functionals <=

    0.1900   Vosko, Wilk & Nusair (VWN5_RPA)
    0.8100   Lee, Yang & Parr

   => LibXC Density Thresholds  <==

    XC_HYB_GGA_XC_B3LYP:  1.00E-15

   => Molecular Quadrature <=

    Radial Scheme          =       TREUTLER
    Pruning Scheme         =           NONE
    Nuclear Scheme         =       TREUTLER

    Blocking Scheme        =         OCTREE
    BS radius alpha        =              1
    Pruning alpha          =              1
    Radial Points          =             75
    Spherical Points       =            302
    Total Points           =          40972
    Total Blocks           =            390
    Max Points             =            249
    Max Functions          =             36
    Weights Tolerance      =       1.00E-15

  -Total Gradient:
     Atom            X                  Y                   Z
    ------   -----------------  -----------------  -----------------
       1        0.000000000000     0.000000000000    -0.000007326927
       2        0.000000000000    -0.000000000000     0.000007663965

*** tstop() called on Joses-MacBook-Pro-2.local at Thu Jul 17 12:03:33 2025
Module time:
	user time   =       2.08 seconds =       0.03 minutes
	system time =       1.20 seconds =       0.02 minutes
	total time  =          1 seconds =       0.02 minutes
Total time:
	user time   =     398.17 seconds =       6.64 minutes
	system time =      92.58 seconds =       1.54 minutes
	total time  =         49 seconds =       0.82 minutes

    			-----------------------------------------

    			 OPTKING 3.0: for geometry optimizations

    			     By R.A. King, Bethel University

    			        with contributions from

    			    A.V. Copan, J. Cayton, A. Heide

    			-----------------------------------------

	                            ===> Fragment 1 <==

	 Z (Atomic Numbers)          Masses                          Geom
	      15.000000            30.973762          0.00000000  0.00000000  3.77905638
	      17.000000            34.968853          0.00000000  0.00000000 -3.34731008

	 - Coordinate -           - BOHR/RAD -       - ANG/DEG -
	 R(1,2)           =         7.126366           3.771111

	        --- Internal Coordinate Step in ANG or DEG, aJ/ANG or AJ/DEG ---
	-------------------------------------------------------------------------------
	           Coordinate      Previous         Force          Change          New
	           ----------      --------        ------          ------        ------
	               R(1,2)       3.77111        0.00006        0.00015       3.77126
	-------------------------------------------------------------------------------

	                                 ==> Convergence Check <==

	Measures of convergence in internal coordinates in au.

	Criteria marked as inactive (o), active & met (*), and active & unmet ( ).

	----------------------------------------------------------------------------------------------
	   Step    Total Energy     Delta E     Max Force     RMS Force      Max Disp      RMS Disp
	----------------------------------------------------------------------------------------------
	  Convergence Criteria     1.00e-06 *    3.00e-04 *             o    1.20e-03 *             o
	----------------------------------------------------------------------------------------------
	    22    -801.03366400   -1.70e-07 *    7.50e-06 *    7.50e-06 o    2.83e-04 *    2.83e-04 o  ~
	----------------------------------------------------------------------------------------------

Next Geometry in Ang
	Fragment 1 (Ang)

	    P   0.0000000000   0.0000000000   1.9998652631
	   Cl   0.0000000000   0.0000000000  -1.7713949575

    Final optimized geometry and variables:
    Molecular point group: c2v
    Full point group: C_inf_v

    Geometry (in Angstrom), charge = -1, multiplicity = 6:

    P            0.000000000000     0.000000000000     1.999790516349
    CL           0.000000000000     0.000000000000    -1.771320210685

    Psi4 stopped on: Thursday, 17 July 2025 12:03PM
    Psi4 wall time for execution: 0:00:49.88

*** Psi4 exiting successfully. Buy a developer a beer!
