                               Psi4 1.9.1 release

  ==> Input File <==

--------------------------------------------------------------------------
molecule {
-1 6
Li   0.00000        0.60000        0.00000
N   0.00000       -0.60000        0.00000
}

set {
basis              cc-pvdz
reference          uks
maxiter            500
geom_maxiter       500
DAMPING_PERCENTAGE 1
guess              SAP
}

optimize('b3lyp')
--------------------------------------------------------------------------

    Molecular point group: c2v
  Charge       = -1
  Multiplicity = 6
  Basis Set: CC-PVDZ
    Blend: CC-PVDZ
  Basis Set: (CC-PVDZ AUX)
    Blend: CC-PVDZ-JKFIT + DEF2-UNIVERSAL-JKFIT
  @DF-UKS Final Energy:   -61.82109204725059
    Total Energy =                        -61.8210920472505876
 Dipole X            :          0.0000000            0.0000000            0.0000000
 Dipole Y            :          0.0000000            0.0000000            0.0000000
 Dipole Z            :         -2.0224928           -0.7662953           -2.7887882
 Magnitude           :                                                    2.7887882
    Molecular point group: c2v
  Basis Set: CC-PVDZ
    Blend: CC-PVDZ
  Basis Set: (CC-PVDZ AUX)
    Blend: CC-PVDZ-JKFIT + DEF2-UNIVERSAL-JKFIT
  Basis Set: CC-PVDZ
    Blend: CC-PVDZ
  Basis Set: (CC-PVDZ AUX)
    Blend: CC-PVDZ-JKFIT + DEF2-UNIVERSAL-JKFIT
  @DF-UKS Final Energy:   -61.95844664351060
    Total Energy =                        -61.9584466435105981
  Basis Set: CC-PVDZ
    Blend: CC-PVDZ
  Basis Set: (CC-PVDZ AUX)
    Blend: CC-PVDZ-JKFIT + DEF2-UNIVERSAL-JKFIT
  Basis Set: CC-PVDZ
    Blend: CC-PVDZ
  @DF-UKS Final Energy:   -62.00288957574085
    Total Energy =                        -62.0028895757408520
  @DF-UKS Final Energy:   -62.02957118620668
    Total Energy =                        -62.0295711862066810
  @DF-UKS Final Energy:   -62.04306905677514
    Total Energy =                        -62.0430690567751384
  @DF-UKS Final Energy:   -62.05059787408639
    Total Energy =                        -62.0505978740863853
  @DF-UKS Final Energy:   -62.05501391642967
    Total Energy =                        -62.0550139164296723
  @DF-UKS Final Energy:   -62.05794834503986
    Total Energy =                        -62.0579483450398612
  @DF-UKS Final Energy:   -62.06032171487635
    Total Energy =                        -62.0603217148763520
  @DF-UKS Final Energy:   -62.06255544129496
    Total Energy =                        -62.0625554412949612
  @DF-UKS Final Energy:   -62.06261753345132
    Total Energy =                        -62.0626175334513164
  @DF-UKS Final Energy:   -62.06454613431996
    Total Energy =                        -62.0645461343199614
  @DF-UKS Final Energy:   -62.06457849678569
    Total Energy =                        -62.0645784967856926
  @DF-UKS Final Energy:   -62.06575105043547
    Total Energy =                        -62.0657510504354661
  @DF-UKS Final Energy:   -62.06576539996411
    Total Energy =                        -62.0657653999641141
  @DF-UKS Final Energy:   -62.06643866130663
    Total Energy =                        -62.0664386613066341
  @DF-UKS Final Energy:   -62.06644443802821
    Total Energy =                        -62.0664444380282063
  @DF-UKS Final Energy:   -62.06645015469732
    Total Energy =                        -62.0664501546973213
  @DF-UKS Final Energy:   -62.06683106977099
    Total Energy =                        -62.0668310697709913
  @DF-UKS Final Energy:   -62.06683328237861
    Total Energy =                        -62.0668332823786102
  @DF-UKS Final Energy:   -62.06683547997984
    Total Energy =                        -62.0668354799798365
  @DF-UKS Final Energy:   -62.06683766178227
    Total Energy =                        -62.0668376617822659
  @DF-UKS Final Energy:   -62.06683982796738
    Total Energy =                        -62.0668398279673781
  Basis Set: (CC-PVDZ AUX)
    Blend: CC-PVDZ-JKFIT + DEF2-UNIVERSAL-JKFIT
  Basis Set: CC-PVDZ
    Blend: CC-PVDZ
  Basis Set: (CC-PVDZ AUX)
    Blend: CC-PVDZ-JKFIT + DEF2-UNIVERSAL-JKFIT
  @DF-UKS Final Energy:   -62.06706132809925
    Total Energy =                        -62.0670613280992498
  Basis Set: CC-PVDZ
    Blend: CC-PVDZ
  Basis Set: (CC-PVDZ AUX)
    Blend: CC-PVDZ-JKFIT + DEF2-UNIVERSAL-JKFIT
  Charge       = -1
  Multiplicity = 6
  Basis Set: CC-PVDZ
    Blend: CC-PVDZ
  Basis Set: (CC-PVDZ AUX)
    Blend: CC-PVDZ-JKFIT + DEF2-UNIVERSAL-JKFIT

    Orbital Energies [Eh]
    ---------------------

    Alpha Occupied:

       1A1   -14.340841     2A1    -1.865664     3A1    -0.707676
       1B1    -0.250524     1B2    -0.250313     4A1    -0.249927
       5A1     0.011077     2B2     0.059559

    Alpha Virtual:

       2B1     0.098520     6A1     0.100579     3B2     0.194647
       3B1     0.207343     7A1     0.208301     8A1     0.212184
       1A2     0.364893     4B2     0.365022     9A1     0.367179
      10A1     0.373674     4B1     0.374406     5B1     0.753005
       5B2     0.753558    11A1     0.762471    12A1     0.903669
       2A2     1.772986    13A1     1.773141     6B1     1.773472
       6B2     1.773620    14A1     1.773967

    Beta Occupied:

       1A1   -14.284506     2A1    -1.859288     3A1    -0.510698

    Beta Virtual:

       4A1     0.001756     1B1     0.003221     1B2     0.003583
       5A1     0.096431     2B1     0.131627     6A1     0.131646
       2B2     0.136621     3B1     0.227482     7A1     0.228038
       3B2     0.238102     8A1     0.241254     9A1     0.413848
       4B1     0.414612     1A2     0.426086     4B2     0.426703
      10A1     0.430416     5B1     0.860530     5B2     0.861053
      11A1     0.868781    12A1     1.002460     2A2     1.920691
      13A1     1.920813     6B1     1.921075     6B2     1.921260
      14A1     1.921545

    Final Occupation by Irrep:
             A1    A2    B1    B2
    DOCC [     3,    0,    0,    0 ]
    SOCC [     2,    0,    1,    2 ]
    NA   [     5,    0,    1,    2 ]
    NB   [     3,    0,    0,    0 ]

  @DF-UKS Final Energy:   -62.06706210804480

   => Energetics <=

    Nuclear Repulsion Energy =              2.2456328570220028
    One-Electron Energy =                 -89.2994961804657237
    Two-Electron Energy =                  32.0378786268716951
    DFT Exchange-Correlation Energy =      -7.0510774114727743
    Empirical Dispersion Energy =           0.0000000000000000
    VV10 Nonlocal Energy =                  0.0000000000000000
    Total Energy =                        -62.0670621080448015

  UHF NO Occupations:
  HONO-2 :    1 B2 1.0000000
  HONO-1 :    1 B1 1.0000000
  HONO-0 :    2 B2 1.0000000
  LUNO+0 :    6 A1 0.0010864
  LUNO+1 :    7 A1 0.0000004
  LUNO+2 :    8 A1 0.0000001
  LUNO+3 :    9 A1 0.0000000

Computation Completed

Properties will be evaluated at   0.000000,   0.000000,   0.000000 [a0]

Properties computed using the SCF density matrix

 Multipole Moments:

 ------------------------------------------------------------------------------------
     Multipole            Electronic (a.u.)      Nuclear  (a.u.)        Total (a.u.)
 ------------------------------------------------------------------------------------

 L = 1.  Multiply by 2.5417464519 to convert [e a0] to [Debye]
 Dipole X            :          0.0000000            0.0000000            0.0000000
 Dipole Y            :          0.0000000            0.0000000            0.0000000
 Dipole Z            :         -3.1227618           -3.1600693           -6.2828311
 Magnitude           :                                                    6.2828311

 ------------------------------------------------------------------------------------

*** tstop() called on Joses-MacBook-Pro-2.local at Thu Jul 17 09:29:37 2025
Module time:
	user time   =       1.92 seconds =       0.03 minutes
	system time =       2.34 seconds =       0.04 minutes
	total time  =          1 seconds =       0.02 minutes
Total time:
	user time   =      81.26 seconds =       1.35 minutes
	system time =     107.38 seconds =       1.79 minutes
	total time  =         18 seconds =       0.30 minutes

*** tstart() called on Joses-MacBook-Pro-2.local
*** at Thu Jul 17 09:29:37 2025

         ------------------------------------------------------------
                                   SCF GRAD
                          Rob Parrish, Justin Turney,
                       Andy Simmonett, and Alex Sokolov
         ------------------------------------------------------------

  ==> Geometry <==

    Molecular point group: c2v
    Full point group: C_inf_v

    Geometry (in Angstrom), charge = -1, multiplicity = 6:

       Center              X                  Y                   Z               Mass
    ------------   -----------------  -----------------  -----------------  -----------------
         LI           0.000000000000     0.000000000000     3.296790933596     7.016003436600
         N            0.000000000000     0.000000000000    -1.651801348228    14.003074004430

  Nuclear repulsion =    2.245632857022003

  ==> Basis Set <==

  Basis Set: CC-PVDZ
    Blend: CC-PVDZ
    Number of shells: 12
    Number of basis functions: 28
    Number of Cartesian functions: 30
    Spherical Harmonics?: true
    Max angular momentum: 2

  ==> DFJKGrad: Density-Fitted SCF Gradients <==

    Gradient:                    1
    J tasked:                  Yes
    K tasked:                  Yes
    wK tasked:                  No
    OpenMP threads:              1
    Integrals threads:           1
    Memory [MiB]:              375
    Schwarz Cutoff:          1E-12
    Fitting Condition:       1E-10

   => Auxiliary Basis Set <=

  Basis Set: (CC-PVDZ AUX)
    Blend: CC-PVDZ-JKFIT + DEF2-UNIVERSAL-JKFIT
    Number of shells: 41
    Number of basis functions: 121
    Number of Cartesian functions: 141
    Spherical Harmonics?: true
    Max angular momentum: 3

  ==> DFT Potential <==

   => LibXC <=

    Version 6.2.2
    S. Lehtola, C. Steigemann, M. J.T. Oliveira, and M. A.L. Marques.,  SoftwareX 7, 1â€“5 (2018) (10.1016/j.softx.2017.11.002)

   => Composite Functional: B3LYP <=

    B3LYP Hyb-GGA Exchange-Correlation Functional

    P. J. Stephens, F. J. Devlin, C. F. Chabalowski, and M. J. Frisch.,  J. Phys. Chem. 98, 11623 (1994) (10.1021/j100096a001)

    Deriv               =              1
    GGA                 =           TRUE
    Meta                =          FALSE

    Exchange Hybrid     =           TRUE
    MP2 Hybrid          =          FALSE

   => Exchange Functionals <=

    0.0800   Slater exchange
    0.7200         Becke 88

   => Exact (HF) Exchange <=

    0.2000               HF

   => Correlation Functionals <=

    0.1900   Vosko, Wilk & Nusair (VWN5_RPA)
    0.8100   Lee, Yang & Parr

   => LibXC Density Thresholds  <==

    XC_HYB_GGA_XC_B3LYP:  1.00E-15

   => Molecular Quadrature <=

    Radial Scheme          =       TREUTLER
    Pruning Scheme         =           NONE
    Nuclear Scheme         =       TREUTLER

    Blocking Scheme        =         OCTREE
    BS radius alpha        =              1
    Pruning alpha          =              1
    Radial Points          =             75
    Spherical Points       =            302
    Total Points           =          44423
    Total Blocks           =            446
    Max Points             =            256
    Max Functions          =             28
    Weights Tolerance      =       1.00E-15

  -Total Gradient:
     Atom            X                  Y                   Z
    ------   -----------------  -----------------  -----------------
       1        0.000000000000     0.000000000000    -0.000239853555
       2        0.000000000000     0.000000000000     0.000224898434

*** tstop() called on Joses-MacBook-Pro-2.local at Thu Jul 17 09:29:37 2025
Module time:
	user time   =       0.56 seconds =       0.01 minutes
	system time =       1.13 seconds =       0.02 minutes
	total time  =          0 seconds =       0.00 minutes
Total time:
	user time   =      81.82 seconds =       1.36 minutes
	system time =     108.51 seconds =       1.81 minutes
	total time  =         18 seconds =       0.30 minutes

    			-----------------------------------------

    			 OPTKING 3.0: for geometry optimizations

    			     By R.A. King, Bethel University

    			        with contributions from

    			    A.V. Copan, J. Cayton, A. Heide

    			-----------------------------------------

	                            ===> Fragment 1 <==

	 Z (Atomic Numbers)          Masses                          Geom
	       3.000000             7.016003          0.00000000  0.00000000  6.23003196
	       7.000000            14.003074          0.00000000  0.00000000 -3.12145216

	 - Coordinate -           - BOHR/RAD -       - ANG/DEG -
	 R(1,2)           =         9.351484           4.948592

	        --- Internal Coordinate Step in ANG or DEG, aJ/ANG or AJ/DEG ---
	-------------------------------------------------------------------------------
	           Coordinate      Previous         Force          Change          New
	           ----------      --------        ------          ------        ------
	               R(1,2)       4.94859        0.00191        0.00172       4.95031
	-------------------------------------------------------------------------------

	                                 ==> Convergence Check <==

	Measures of convergence in internal coordinates in au.

	Criteria marked as inactive (o), active & met (*), and active & unmet ( ).

	----------------------------------------------------------------------------------------------
	   Step    Total Energy     Delta E     Max Force     RMS Force      Max Disp      RMS Disp
	----------------------------------------------------------------------------------------------
	  Convergence Criteria     1.00e-06 *    3.00e-04 *             o    1.20e-03 *             o
	----------------------------------------------------------------------------------------------
	    25     -62.06706211   -7.80e-07 *    2.32e-04 *    2.32e-04 o    3.25e-03      3.25e-03 o  ~
	----------------------------------------------------------------------------------------------

Next Geometry in Ang
	Fragment 1 (Ang)

	   Li   0.0000000000   0.0000000000   3.2976521310
	    N   0.0000000000   0.0000000000  -1.6526625456

    Final optimized geometry and variables:
    Molecular point group: c2v
    Full point group: C_inf_v

    Geometry (in Angstrom), charge = -1, multiplicity = 6:

    LI           0.000000000000     0.000000000000     3.296790933596
    N            0.000000000000     0.000000000000    -1.651801348228

    Psi4 stopped on: Thursday, 17 July 2025 09:29AM
    Psi4 wall time for execution: 0:00:18.45

*** Psi4 exiting successfully. Buy a developer a beer!
