                               Psi4 1.9.1 release

  ==> Input File <==

--------------------------------------------------------------------------
molecule {
-1 6
C   0.00000        0.60000        0.00000
Si   0.00000       -0.60000        0.00000
}

set {
basis              cc-pvdz
reference          uks
maxiter            500
geom_maxiter       500
DAMPING_PERCENTAGE 1
guess              SAP
}

optimize('b3lyp')
--------------------------------------------------------------------------

    Molecular point group: c2v
  Charge       = -1
  Multiplicity = 6
  Basis Set: CC-PVDZ
    Blend: CC-PVDZ
  Basis Set: (CC-PVDZ AUX)
    Blend: CC-PVDZ-JKFIT
  @DF-UKS Final Energy:  -326.74271157245516
    Total Energy =                       -326.7427115724551641
 Dipole X            :          0.0000000            0.0000000            0.0000000
 Dipole Y            :          0.0000000            0.0000000            0.0000000
 Dipole Z            :          0.5703532           -0.0078530            0.5625002
 Magnitude           :                                                    0.5625002
    Molecular point group: c2v
  Basis Set: CC-PVDZ
    Blend: CC-PVDZ
  Basis Set: (CC-PVDZ AUX)
    Blend: CC-PVDZ-JKFIT
  Basis Set: CC-PVDZ
    Blend: CC-PVDZ
  Basis Set: (CC-PVDZ AUX)
    Blend: CC-PVDZ-JKFIT
  @DF-UKS Final Energy:  -326.99475537688784
    Total Energy =                       -326.9947553768877810
  Basis Set: CC-PVDZ
    Blend: CC-PVDZ
  Basis Set: (CC-PVDZ AUX)
    Blend: CC-PVDZ-JKFIT
  Basis Set: CC-PVDZ
    Blend: CC-PVDZ
  @DF-UKS Final Energy:  -327.11955528310551
    Total Energy =                       -327.1195552831055124
  @DF-UKS Final Energy:  -327.25226305150125
    Total Energy =                       -327.2522630515012452
  @DF-UKS Final Energy:  -327.33243379945890
    Total Energy =                       -327.3324337994588973
  @DF-UKS Final Energy:  -327.33535644969913
    Total Energy =                       -327.3353564496991339
  @DF-UKS Final Energy:  -327.34294574278283
    Total Energy =                       -327.3429457427828311
  @DF-UKS Final Energy:  -327.34437075830169
    Total Energy =                       -327.3443707583016931
  @DF-UKS Final Energy:  -327.34469220243528
    Total Energy =                       -327.3446922024352830
  @DF-UKS Final Energy:  -327.34477884332193
    Total Energy =                       -327.3447788433219330
  @DF-UKS Final Energy:  -327.34480362507742
    Total Energy =                       -327.3448036250774749
  Basis Set: (CC-PVDZ AUX)
    Blend: CC-PVDZ-JKFIT
  Basis Set: CC-PVDZ
    Blend: CC-PVDZ
  Basis Set: (CC-PVDZ AUX)
    Blend: CC-PVDZ-JKFIT
  @DF-UKS Final Energy:  -327.34480560883378
    Total Energy =                       -327.3448056088337808
  Basis Set: CC-PVDZ
    Blend: CC-PVDZ
  Basis Set: (CC-PVDZ AUX)
    Blend: CC-PVDZ-JKFIT
  Charge       = -1
  Multiplicity = 6
  Basis Set: CC-PVDZ
    Blend: CC-PVDZ
  Basis Set: (CC-PVDZ AUX)
    Blend: CC-PVDZ-JKFIT

    Orbital Energies [Eh]
    ---------------------

    Alpha Occupied:

       1A1   -65.913777     2A1    -9.985230     3A1    -5.055521
       4A1    -3.415417     1B2    -3.414711     1B1    -3.414711
       5A1    -0.354165     6A1    -0.203385     7A1    -0.022162
       2B1    -0.016566     2B2    -0.016566     3B1     0.062664
       3B2     0.062664

    Alpha Virtual:

       8A1     0.215483     9A1     0.455168    10A1     0.508286
       4B2     0.514441     4B1     0.514441    11A1     0.570944
       1A2     0.570944     5B1     0.581510     5B2     0.581510
      12A1     0.659325     6B2     0.744991     6B1     0.744991
      13A1     0.805036    14A1     1.049250    15A1     1.382709
       2A2     1.382717     7B1     1.445906     7B2     1.445906
      16A1     1.690297

    Beta Occupied:

       1A1   -65.907670     2A1    -9.952602     3A1    -5.048705
       4A1    -3.408325     1B2    -3.403254     1B1    -3.403254
       5A1    -0.236212     6A1    -0.105086

    Beta Virtual:

       7A1     0.112088     2B1     0.127626     2B2     0.127626
       3B2     0.220226     3B1     0.220226     8A1     0.278187
       9A1     0.490749    10A1     0.544041     4B2     0.555863
       4B1     0.555863    11A1     0.647687     1A2     0.647687
       5B1     0.652309     5B2     0.652309    12A1     0.722128
       6B2     0.822805     6B1     0.822805    13A1     0.867168
      14A1     1.114819    15A1     1.498776     2A2     1.498787
       7B1     1.544247     7B2     1.544247    16A1     1.775487

    Final Occupation by Irrep:
             A1    A2    B1    B2
    DOCC [     6,    0,    1,    1 ]
    SOCC [     1,    0,    2,    2 ]
    NA   [     7,    0,    3,    3 ]
    NB   [     6,    0,    1,    1 ]

  @DF-UKS Final Energy:  -327.34480577606905

   => Energetics <=

    Nuclear Repulsion Energy =             19.6456573602358446
    One-Electron Energy =                -495.6487268441751439
    Two-Electron Energy =                 169.9173053107479632
    DFT Exchange-Correlation Energy =     -21.2590416028777511
    Empirical Dispersion Energy =           0.0000000000000000
    VV10 Nonlocal Energy =                  0.0000000000000000
    Total Energy =                       -327.3448057760690517

  UHF NO Occupations:
  HONO-2 :    2 B2 1.0000000
  HONO-1 :    3 B1 1.0000000
  HONO-0 :    3 B2 1.0000000
  LUNO+0 :    8 A1 0.0010401
  LUNO+1 :    9 A1 0.0003632
  LUNO+2 :   10 A1 0.0000002
  LUNO+3 :   11 A1 0.0000000

Computation Completed

Properties will be evaluated at   0.000000,   0.000000,   0.000000 [a0]

Properties computed using the SCF density matrix

 Multipole Moments:

 ------------------------------------------------------------------------------------
     Multipole            Electronic (a.u.)      Nuclear  (a.u.)        Total (a.u.)
 ------------------------------------------------------------------------------------

 L = 1.  Multiply by 2.5417464519 to convert [e a0] to [Debye]
 Dipole X            :          0.0000000            0.0000000            0.0000000
 Dipole Y            :          0.0000000            0.0000000            0.0000000
 Dipole Z            :         -0.4538948           -0.0148070           -0.4687018
 Magnitude           :                                                    0.4687018

 ------------------------------------------------------------------------------------

*** tstop() called on Joses-MacBook-Pro-2.local at Thu Jul 17 10:20:58 2025
Module time:
	user time   =       4.32 seconds =       0.07 minutes
	system time =       1.63 seconds =       0.03 minutes
	total time  =          1 seconds =       0.02 minutes
Total time:
	user time   =      82.80 seconds =       1.38 minutes
	system time =      53.78 seconds =       0.90 minutes
	total time  =         15 seconds =       0.25 minutes

*** tstart() called on Joses-MacBook-Pro-2.local
*** at Thu Jul 17 10:20:58 2025

         ------------------------------------------------------------
                                   SCF GRAD
                          Rob Parrish, Justin Turney,
                       Andy Simmonett, and Alex Sokolov
         ------------------------------------------------------------

  ==> Geometry <==

    Molecular point group: c2v
    Full point group: C_inf_v

    Geometry (in Angstrom), charge = -1, multiplicity = 6:

       Center              X                  Y                   Z               Mass
    ------------   -----------------  -----------------  -----------------  -----------------
         C            0.000000000000     0.000000000000     1.583450362971    12.000000000000
         SI           0.000000000000     0.000000000000    -0.679181265037    27.976926534650

  Nuclear repulsion =   19.645657360235845

  ==> Basis Set <==

  Basis Set: CC-PVDZ
    Blend: CC-PVDZ
    Number of shells: 14
    Number of basis functions: 32
    Number of Cartesian functions: 34
    Spherical Harmonics?: true
    Max angular momentum: 2

  ==> DFJKGrad: Density-Fitted SCF Gradients <==

    Gradient:                    1
    J tasked:                  Yes
    K tasked:                  Yes
    wK tasked:                  No
    OpenMP threads:              1
    Integrals threads:           1
    Memory [MiB]:              375
    Schwarz Cutoff:          1E-12
    Fitting Condition:       1E-10

   => Auxiliary Basis Set <=

  Basis Set: (CC-PVDZ AUX)
    Blend: CC-PVDZ-JKFIT
    Number of shells: 60
    Number of basis functions: 182
    Number of Cartesian functions: 211
    Spherical Harmonics?: true
    Max angular momentum: 3

  ==> DFT Potential <==

   => LibXC <=

    Version 6.2.2
    S. Lehtola, C. Steigemann, M. J.T. Oliveira, and M. A.L. Marques.,  SoftwareX 7, 1â€“5 (2018) (10.1016/j.softx.2017.11.002)

   => Composite Functional: B3LYP <=

    B3LYP Hyb-GGA Exchange-Correlation Functional

    P. J. Stephens, F. J. Devlin, C. F. Chabalowski, and M. J. Frisch.,  J. Phys. Chem. 98, 11623 (1994) (10.1021/j100096a001)

    Deriv               =              1
    GGA                 =           TRUE
    Meta                =          FALSE

    Exchange Hybrid     =           TRUE
    MP2 Hybrid          =          FALSE

   => Exchange Functionals <=

    0.0800   Slater exchange
    0.7200         Becke 88

   => Exact (HF) Exchange <=

    0.2000               HF

   => Correlation Functionals <=

    0.1900   Vosko, Wilk & Nusair (VWN5_RPA)
    0.8100   Lee, Yang & Parr

   => LibXC Density Thresholds  <==

    XC_HYB_GGA_XC_B3LYP:  1.00E-15

   => Molecular Quadrature <=

    Radial Scheme          =       TREUTLER
    Pruning Scheme         =           NONE
    Nuclear Scheme         =       TREUTLER

    Blocking Scheme        =         OCTREE
    BS radius alpha        =              1
    Pruning alpha          =              1
    Radial Points          =             75
    Spherical Points       =            302
    Total Points           =          42491
    Total Blocks           =            391
    Max Points             =            254
    Max Functions          =             32
    Weights Tolerance      =       1.00E-15

  -Total Gradient:
     Atom            X                  Y                   Z
    ------   -----------------  -----------------  -----------------
       1        0.000000000000     0.000000000000    -0.000022850813
       2        0.000000000000     0.000000000000     0.000015863772

*** tstop() called on Joses-MacBook-Pro-2.local at Thu Jul 17 10:20:58 2025
Module time:
	user time   =       1.46 seconds =       0.02 minutes
	system time =       0.83 seconds =       0.01 minutes
	total time  =          0 seconds =       0.00 minutes
Total time:
	user time   =      84.26 seconds =       1.40 minutes
	system time =      54.61 seconds =       0.91 minutes
	total time  =         15 seconds =       0.25 minutes

    			-----------------------------------------

    			 OPTKING 3.0: for geometry optimizations

    			     By R.A. King, Bethel University

    			        with contributions from

    			    A.V. Copan, J. Cayton, A. Heide

    			-----------------------------------------

	                            ===> Fragment 1 <==

	 Z (Atomic Numbers)          Masses                          Geom
	       6.000000            12.000000          0.00000000  0.00000000  2.99228752
	      14.000000            27.976927          0.00000000  0.00000000 -1.28346658

	 - Coordinate -           - BOHR/RAD -       - ANG/DEG -
	 R(1,2)           =         4.275754           2.262632

	        --- Internal Coordinate Step in ANG or DEG, aJ/ANG or AJ/DEG ---
	-------------------------------------------------------------------------------
	           Coordinate      Previous         Force          Change          New
	           ----------      --------        ------          ------        ------
	               R(1,2)       2.26263        0.00016        0.00024       2.26287
	-------------------------------------------------------------------------------

	                                 ==> Convergence Check <==

	Measures of convergence in internal coordinates in au.

	Criteria marked as inactive (o), active & met (*), and active & unmet ( ).

	----------------------------------------------------------------------------------------------
	   Step    Total Energy     Delta E     Max Force     RMS Force      Max Disp      RMS Disp
	----------------------------------------------------------------------------------------------
	  Convergence Criteria     1.00e-06 *    3.00e-04 *             o    1.20e-03 *             o
	----------------------------------------------------------------------------------------------
	    13    -327.34480578   -1.67e-07 *    1.94e-05 *    1.94e-05 o    4.51e-04 *    4.51e-04 o  ~
	----------------------------------------------------------------------------------------------

Next Geometry in Ang
	Fragment 1 (Ang)

	    C   0.0000000000   0.0000000000   1.5835696590
	   Si   0.0000000000   0.0000000000  -0.6793005611

    Final optimized geometry and variables:
    Molecular point group: c2v
    Full point group: C_inf_v

    Geometry (in Angstrom), charge = -1, multiplicity = 6:

    C            0.000000000000     0.000000000000     1.583450362971
    SI           0.000000000000     0.000000000000    -0.679181265037

    Psi4 stopped on: Thursday, 17 July 2025 10:20AM
    Psi4 wall time for execution: 0:00:15.18

*** Psi4 exiting successfully. Buy a developer a beer!
