                               Psi4 1.9.1 release

  ==> Input File <==

--------------------------------------------------------------------------
molecule {
-1 6
F   0.00000        0.60000        0.00000
Al   0.00000       -0.60000        0.00000
}

set {
basis              cc-pvdz
reference          uks
maxiter            500
geom_maxiter       500
DAMPING_PERCENTAGE 1
guess              SAP
}

optimize('b3lyp')
--------------------------------------------------------------------------

    Molecular point group: c2v
  Charge       = -1
  Multiplicity = 6
  Basis Set: CC-PVDZ
    Blend: CC-PVDZ
  Basis Set: (CC-PVDZ AUX)
    Blend: CC-PVDZ-JKFIT
  @DF-UKS Final Energy:  -341.41627237803203
    Total Energy =                       -341.4162723780320334
 Dipole X            :          0.0000000            0.0000000            0.0000000
 Dipole Y            :          0.0000000            0.0000000            0.0000000
 Dipole Z            :          1.7016310           -0.2044455            1.4971855
 Magnitude           :                                                    1.4971855
    Molecular point group: c2v
  Basis Set: CC-PVDZ
    Blend: CC-PVDZ
  Basis Set: (CC-PVDZ AUX)
    Blend: CC-PVDZ-JKFIT
  Basis Set: CC-PVDZ
    Blend: CC-PVDZ
  Basis Set: (CC-PVDZ AUX)
    Blend: CC-PVDZ-JKFIT
  @DF-UKS Final Energy:  -341.61845199334061
    Total Energy =                       -341.6184519933406136
  Basis Set: CC-PVDZ
    Blend: CC-PVDZ
  Basis Set: (CC-PVDZ AUX)
    Blend: CC-PVDZ-JKFIT
  Basis Set: CC-PVDZ
    Blend: CC-PVDZ
  @DF-UKS Final Energy:  -341.74095898458978
    Total Energy =                       -341.7409589845897813
  @DF-UKS Final Energy:  -341.81836907295582
    Total Energy =                       -341.8183690729558180
  @DF-UKS Final Energy:  -341.87557384163921
    Total Energy =                       -341.8755738416392091
  @DF-UKS Final Energy:  -341.92141701663701
    Total Energy =                       -341.9214170166370650
  @DF-UKS Final Energy:  -341.95685631256146
    Total Energy =                       -341.9568563125615128
  @DF-UKS Final Energy:  -341.96127012927974
    Total Energy =                       -341.9612701292797965
  @DF-UKS Final Energy:  -341.98056546861193
    Total Energy =                       -341.9805654686119283
  @DF-UKS Final Energy:  -341.98190111018715
    Total Energy =                       -341.9819011101872093
  @DF-UKS Final Energy:  -341.99096715550451
    Total Energy =                       -341.9909671555044497
  @DF-UKS Final Energy:  -341.99135527303281
    Total Energy =                       -341.9913552730328092
  @DF-UKS Final Energy:  -341.99578913857033
    Total Energy =                       -341.9957891385703874
  @DF-UKS Final Energy:  -341.99589883305993
    Total Energy =                       -341.9958988330599254
  @DF-UKS Final Energy:  -341.99802713959070
    Total Energy =                       -341.9980271395907039
  @DF-UKS Final Energy:  -341.99805627869824
    Total Energy =                       -341.9980562786982432
  @DF-UKS Final Energy:  -341.99903471312291
    Total Energy =                       -341.9990347131229100
  @DF-UKS Final Energy:  -341.99904159848433
    Total Energy =                       -341.9990415984842684
  @DF-UKS Final Energy:  -341.99904837395127
    Total Energy =                       -341.9990483739512683
  @DF-UKS Final Energy:  -341.99944625310252
    Total Energy =                       -341.9994462531025192
  @DF-UKS Final Energy:  -341.99956094572252
    Total Energy =                       -341.9995609457224646
  @DF-UKS Final Energy:  -341.99960237702066
    Total Energy =                       -341.9996023770206648
  Basis Set: (CC-PVDZ AUX)
    Blend: CC-PVDZ-JKFIT
  Basis Set: CC-PVDZ
    Blend: CC-PVDZ
  Basis Set: (CC-PVDZ AUX)
    Blend: CC-PVDZ-JKFIT
  @DF-UKS Final Energy:  -341.99961180702070
    Total Energy =                       -341.9996118070206990
  Basis Set: CC-PVDZ
    Blend: CC-PVDZ
  Basis Set: (CC-PVDZ AUX)
    Blend: CC-PVDZ-JKFIT
  Charge       = -1
  Multiplicity = 6
  Basis Set: CC-PVDZ
    Blend: CC-PVDZ
  Basis Set: (CC-PVDZ AUX)
    Blend: CC-PVDZ-JKFIT

    Orbital Energies [Eh]
    ---------------------

    Alpha Occupied:

       1A1   -55.869921     2A1   -24.668366     3A1    -3.950016
       4A1    -2.503227     1B2    -2.503216     1B1    -2.503216
       5A1    -1.098243     6A1    -0.424911     2B1    -0.336635
       2B2    -0.336635     7A1    -0.147424     8A1     0.048843
       3B1     0.049130     3B2     0.049130

    Alpha Virtual:

       9A1     0.331086    10A1     0.386973     4B1     0.387087
       4B2     0.387087    11A1     0.441383     5B1     0.441634
       5B2     0.441634    12A1     0.441881     1A2     0.441881
      13A1     1.157830     6B2     1.203535     6B1     1.203535
      14A1     1.541614    15A1     3.552776     7B2     3.574393
       7B1     3.574393     2A2     3.643166    16A1     3.643272

    Beta Occupied:

       1A1   -55.860932     2A1   -24.637631     3A1    -3.937124
       4A1    -2.490471     1B2    -2.490471     1B1    -2.490471
       5A1    -1.007366     2B1    -0.305262     2B2    -0.305262

    Beta Virtual:

       6A1    -0.131097     7A1     0.027953     8A1     0.190040
       3B1     0.190876     3B2     0.190876     9A1     0.398435
      10A1     0.453816     4B1     0.454709     4B2     0.454709
       5B1     0.554103     5B2     0.554103    11A1     0.554135
      12A1     0.554499     1A2     0.554508     6B2     1.221396
       6B1     1.221396    13A1     1.268165    14A1     1.589087
       2A2     3.658360    15A1     3.658458     7B2     3.669529
       7B1     3.669529    16A1     3.689355

    Final Occupation by Irrep:
             A1    A2    B1    B2
    DOCC [     5,    0,    2,    2 ]
    SOCC [     3,    0,    1,    1 ]
    NA   [     8,    0,    3,    3 ]
    NB   [     5,    0,    2,    2 ]

  @DF-UKS Final Energy:  -341.99961213143922

   => Energetics <=

    Nuclear Repulsion Energy =             13.2248054344915502
    One-Electron Energy =                -505.9326279381238578
    Two-Electron Energy =                 174.2146949273158612
    DFT Exchange-Correlation Energy =     -23.5064845551227748
    Empirical Dispersion Energy =           0.0000000000000000
    VV10 Nonlocal Energy =                  0.0000000000000000
    Total Energy =                       -341.9996121314392212

  UHF NO Occupations:
  HONO-2 :    3 B1 1.0000000
  HONO-1 :    8 A1 1.0000000
  HONO-0 :    3 B2 1.0000000
  LUNO+0 :    9 A1 0.0003076
  LUNO+1 :    4 B1 0.0000559
  LUNO+2 :    4 B2 0.0000559
  LUNO+3 :    5 B1 0.0000002

Computation Completed

Properties will be evaluated at   0.000000,   0.000000,   0.000000 [a0]

Properties computed using the SCF density matrix

 Multipole Moments:

 ------------------------------------------------------------------------------------
     Multipole            Electronic (a.u.)      Nuclear  (a.u.)        Total (a.u.)
 ------------------------------------------------------------------------------------

 L = 1.  Multiply by 2.5417464519 to convert [e a0] to [Debye]
 Dipole X            :          0.0000000            0.0000000            0.0000000
 Dipole Y            :          0.0000000            0.0000000            0.0000000
 Dipole Z            :          4.4327924           -0.7976163            3.6351761
 Magnitude           :                                                    3.6351761

 ------------------------------------------------------------------------------------

*** tstop() called on Joses-MacBook-Pro-2.local at Thu Jul 17 10:53:11 2025
Module time:
	user time   =       2.99 seconds =       0.05 minutes
	system time =       3.19 seconds =       0.05 minutes
	total time  =          1 seconds =       0.02 minutes
Total time:
	user time   =      93.98 seconds =       1.57 minutes
	system time =     144.68 seconds =       2.41 minutes
	total time  =         26 seconds =       0.43 minutes

*** tstart() called on Joses-MacBook-Pro-2.local
*** at Thu Jul 17 10:53:11 2025

         ------------------------------------------------------------
                                   SCF GRAD
                          Rob Parrish, Justin Turney,
                       Andy Simmonett, and Alex Sokolov
         ------------------------------------------------------------

  ==> Geometry <==

    Molecular point group: c2v
    Full point group: C_inf_v

    Geometry (in Angstrom), charge = -1, multiplicity = 6:

       Center              X                  Y                   Z               Mass
    ------------   -----------------  -----------------  -----------------  -----------------
         F            0.000000000000     0.000000000000     2.747236178926    18.998403162730
         AL           0.000000000000     0.000000000000    -1.934400458760    26.981538530000

  Nuclear repulsion =   13.224805434491550

  ==> Basis Set <==

  Basis Set: CC-PVDZ
    Blend: CC-PVDZ
    Number of shells: 14
    Number of basis functions: 32
    Number of Cartesian functions: 34
    Spherical Harmonics?: true
    Max angular momentum: 2

  ==> DFJKGrad: Density-Fitted SCF Gradients <==

    Gradient:                    1
    J tasked:                  Yes
    K tasked:                  Yes
    wK tasked:                  No
    OpenMP threads:              1
    Integrals threads:           1
    Memory [MiB]:              375
    Schwarz Cutoff:          1E-12
    Fitting Condition:       1E-10

   => Auxiliary Basis Set <=

  Basis Set: (CC-PVDZ AUX)
    Blend: CC-PVDZ-JKFIT
    Number of shells: 60
    Number of basis functions: 182
    Number of Cartesian functions: 211
    Spherical Harmonics?: true
    Max angular momentum: 3

  ==> DFT Potential <==

   => LibXC <=

    Version 6.2.2
    S. Lehtola, C. Steigemann, M. J.T. Oliveira, and M. A.L. Marques.,  SoftwareX 7, 1â€“5 (2018) (10.1016/j.softx.2017.11.002)

   => Composite Functional: B3LYP <=

    B3LYP Hyb-GGA Exchange-Correlation Functional

    P. J. Stephens, F. J. Devlin, C. F. Chabalowski, and M. J. Frisch.,  J. Phys. Chem. 98, 11623 (1994) (10.1021/j100096a001)

    Deriv               =              1
    GGA                 =           TRUE
    Meta                =          FALSE

    Exchange Hybrid     =           TRUE
    MP2 Hybrid          =          FALSE

   => Exchange Functionals <=

    0.0800   Slater exchange
    0.7200         Becke 88

   => Exact (HF) Exchange <=

    0.2000               HF

   => Correlation Functionals <=

    0.1900   Vosko, Wilk & Nusair (VWN5_RPA)
    0.8100   Lee, Yang & Parr

   => LibXC Density Thresholds  <==

    XC_HYB_GGA_XC_B3LYP:  1.00E-15

   => Molecular Quadrature <=

    Radial Scheme          =       TREUTLER
    Pruning Scheme         =           NONE
    Nuclear Scheme         =       TREUTLER

    Blocking Scheme        =         OCTREE
    BS radius alpha        =              1
    Pruning alpha          =              1
    Radial Points          =             75
    Spherical Points       =            302
    Total Points           =          43607
    Total Blocks           =            436
    Max Points             =            254
    Max Functions          =             32
    Weights Tolerance      =       1.00E-15

  -Total Gradient:
     Atom            X                  Y                   Z
    ------   -----------------  -----------------  -----------------
       1       -0.000000000000     0.000000000000     0.000011602200
       2        0.000000000000    -0.000000000000     0.000026737271

*** tstop() called on Joses-MacBook-Pro-2.local at Thu Jul 17 10:53:11 2025
Module time:
	user time   =       0.88 seconds =       0.01 minutes
	system time =       1.71 seconds =       0.03 minutes
	total time  =          0 seconds =       0.00 minutes
Total time:
	user time   =      94.86 seconds =       1.58 minutes
	system time =     146.39 seconds =       2.44 minutes
	total time  =         26 seconds =       0.43 minutes

    			-----------------------------------------

    			 OPTKING 3.0: for geometry optimizations

    			     By R.A. King, Bethel University

    			        with contributions from

    			    A.V. Copan, J. Cayton, A. Heide

    			-----------------------------------------

	                            ===> Fragment 1 <==

	 Z (Atomic Numbers)          Masses                          Geom
	       9.000000            18.998403          0.00000000  0.00000000  5.19152398
	      13.000000            26.981539          0.00000000  0.00000000 -3.65548708

	 - Coordinate -           - BOHR/RAD -       - ANG/DEG -
	 R(1,2)           =         8.847011           4.681637

	        --- Internal Coordinate Step in ANG or DEG, aJ/ANG or AJ/DEG ---
	-------------------------------------------------------------------------------
	           Coordinate      Previous         Force          Change          New
	           ----------      --------        ------          ------        ------
	               R(1,2)       4.68164        0.00006        0.00870       4.69033
	-------------------------------------------------------------------------------

	                                 ==> Convergence Check <==

	Measures of convergence in internal coordinates in au.

	Criteria marked as inactive (o), active & met (*), and active & unmet ( ).

	----------------------------------------------------------------------------------------------
	   Step    Total Energy     Delta E     Max Force     RMS Force      Max Disp      RMS Disp
	----------------------------------------------------------------------------------------------
	  Convergence Criteria     1.00e-06 *    3.00e-04 *             o    1.20e-03 *             o
	----------------------------------------------------------------------------------------------
	    24    -341.99961213   -3.24e-07 *    7.57e-06 *    7.57e-06 o    1.64e-02      1.64e-02 o  ~
	----------------------------------------------------------------------------------------------

Next Geometry in Ang
	Fragment 1 (Ang)

	    F   0.0000000000   0.0000000000   2.7515842606
	   Al   0.0000000000   0.0000000000  -1.9387485405

    Final optimized geometry and variables:
    Molecular point group: c2v
    Full point group: C_inf_v

    Geometry (in Angstrom), charge = -1, multiplicity = 6:

    F            0.000000000000     0.000000000000     2.747236178926
    AL           0.000000000000     0.000000000000    -1.934400458760

    Psi4 stopped on: Thursday, 17 July 2025 10:53AM
    Psi4 wall time for execution: 0:00:26.81

*** Psi4 exiting successfully. Buy a developer a beer!
