                               Psi4 1.9.1 release

  ==> Input File <==

--------------------------------------------------------------------------
molecule {
-1 6
C   0.00000        0.60000        0.00000
Ne   0.00000       -0.60000        0.00000
}

set {
basis              cc-pvdz
reference          uks
maxiter            500
geom_maxiter       500
DAMPING_PERCENTAGE 1
guess              SAP
}

optimize('b3lyp')
--------------------------------------------------------------------------

    Molecular point group: c2v
  Charge       = -1
  Multiplicity = 6
  Basis Set: CC-PVDZ
    Blend: CC-PVDZ
  Basis Set: (CC-PVDZ AUX)
    Blend: CC-PVDZ-JKFIT
  @DF-UKS Final Energy:  -165.70168317940789
    Total Energy =                       -165.7016831794078939
 Dipole X            :          0.0000000            0.0000000            0.0000000
 Dipole Y            :          0.0000000            0.0000000            0.0000000
 Dipole Z            :         -2.2283862           -0.0032151           -2.2316013
 Magnitude           :                                                    2.2316013
    Molecular point group: c2v
  Basis Set: CC-PVDZ
    Blend: CC-PVDZ
  Basis Set: (CC-PVDZ AUX)
    Blend: CC-PVDZ-JKFIT
  Basis Set: CC-PVDZ
    Blend: CC-PVDZ
  Basis Set: (CC-PVDZ AUX)
    Blend: CC-PVDZ-JKFIT
  @DF-UKS Final Energy:  -165.84870146476317
    Total Energy =                       -165.8487014647631668
  Basis Set: CC-PVDZ
    Blend: CC-PVDZ
  Basis Set: (CC-PVDZ AUX)
    Blend: CC-PVDZ-JKFIT
  Basis Set: CC-PVDZ
    Blend: CC-PVDZ
  @DF-UKS Final Energy:  -165.95885061798228
    Total Energy =                       -165.9588506179822502
  @DF-UKS Final Energy:  -165.99462969534019
    Total Energy =                       -165.9946296953401941
  @DF-UKS Final Energy:  -166.01901705773980
    Total Energy =                       -166.0190170577398021
  @DF-UKS Final Energy:  -166.03146707224201
    Total Energy =                       -166.0314670722419805
  @DF-UKS Final Energy:  -166.03775466972141
    Total Energy =                       -166.0377546697214086
  @DF-UKS Final Energy:  -166.04062409951993
    Total Energy =                       -166.0406240995199312
  @DF-UKS Final Energy:  -166.04185404395551
    Total Energy =                       -166.0418540439555102
  @DF-UKS Final Energy:  -166.04234748179016
    Total Energy =                       -166.0423474817901877
  @DF-UKS Final Energy:  -166.04252161695820
    Total Energy =                       -166.0425216169581972
  @DF-UKS Final Energy:  -166.04256157818313
    Total Energy =                       -166.0425615781831254
  @DF-UKS Final Energy:  -166.04257551866394
    Total Energy =                       -166.0425755186639378
  Basis Set: (CC-PVDZ AUX)
    Blend: CC-PVDZ-JKFIT
  Basis Set: CC-PVDZ
    Blend: CC-PVDZ
  Basis Set: (CC-PVDZ AUX)
    Blend: CC-PVDZ-JKFIT
  @DF-UKS Final Energy:  -166.04257812847229
    Total Energy =                       -166.0425781284722859
  Basis Set: CC-PVDZ
    Blend: CC-PVDZ
  Basis Set: (CC-PVDZ AUX)
    Blend: CC-PVDZ-JKFIT
  Charge       = -1
  Multiplicity = 6
  Basis Set: CC-PVDZ
    Blend: CC-PVDZ
  Basis Set: (CC-PVDZ AUX)
    Blend: CC-PVDZ-JKFIT

    Orbital Energies [Eh]
    ---------------------

    Alpha Occupied:

       1A1   -30.799525     2A1    -9.836146     3A1    -1.265060
       1B1    -0.374150     1B2    -0.373943     4A1    -0.372430
       5A1    -0.265532     2B2     0.059740     2B1     0.068034
       6A1     0.068630     3B2     0.663011

    Alpha Virtual:

       7A1     0.752443     3B1     0.754094     8A1     0.821029
       9A1     1.428345     4B1     1.430711     4B2     1.446741
       1A2     1.446857    10A1     1.452852     5B1     1.524487
       5B2     1.524923    11A1     1.559739    12A1     1.998777
       2A2     4.891525    13A1     4.891610     6B1     4.892530
       6B2     4.892667    14A1     4.893480

    Beta Occupied:

       1A1   -30.799318     2A1    -9.758540     3A1    -1.264760
       1B1    -0.374040     1B2    -0.373777     4A1    -0.371819

    Beta Virtual:

       5A1     0.096582     6A1     0.349551     2B1     0.354410
       2B2     0.386943     7A1     0.901911     3B1     0.914089
       3B2     0.959106     8A1     1.009668     4B1     1.524291
       4B2     1.524836     9A1     1.556855     5B1     1.662585
      10A1     1.665421     5B2     1.683913     1A2     1.683930
      11A1     1.692561    12A1     2.000393     2A2     4.891648
      13A1     4.891733     6B1     4.892815     6B2     4.892973
      14A1     4.893840

    Final Occupation by Irrep:
             A1    A2    B1    B2
    DOCC [     4,    0,    1,    1 ]
    SOCC [     2,    0,    1,    2 ]
    NA   [     6,    0,    2,    3 ]
    NB   [     4,    0,    1,    1 ]

  @DF-UKS Final Energy:  -166.04257874121947

   => Energetics <=

    Nuclear Repulsion Energy =              9.9958801772515979
    One-Electron Energy =                -256.2019791057863358
    Two-Electron Energy =                  94.8312530105829126
    DFT Exchange-Correlation Energy =     -14.6677328232676398
    Empirical Dispersion Energy =           0.0000000000000000
    VV10 Nonlocal Energy =                  0.0000000000000000
    Total Energy =                       -166.0425787412194722

  UHF NO Occupations:
  HONO-2 :    2 B2 1.0000000
  HONO-1 :    2 B1 1.0000000
  HONO-0 :    3 B2 1.0000000
  LUNO+0 :    7 A1 0.0000025
  LUNO+1 :    8 A1 0.0000005
  LUNO+2 :    4 B2 0.0000000
  LUNO+3 :    3 B1 0.0000000

Computation Completed

Properties will be evaluated at   0.000000,   0.000000,   0.000000 [a0]

Properties computed using the SCF density matrix

 Multipole Moments:

 ------------------------------------------------------------------------------------
     Multipole            Electronic (a.u.)      Nuclear  (a.u.)        Total (a.u.)
 ------------------------------------------------------------------------------------

 L = 1.  Multiply by 2.5417464519 to convert [e a0] to [Debye]
 Dipole X            :          0.0000000            0.0000000            0.0000000
 Dipole Y            :          0.0000000            0.0000000            0.0000000
 Dipole Z            :         -3.7384709           -0.0085103           -3.7469812
 Magnitude           :                                                    3.7469812

 ------------------------------------------------------------------------------------

*** tstop() called on Joses-MacBook-Pro-2.local at Thu Jul 17 10:00:09 2025
Module time:
	user time   =       2.33 seconds =       0.04 minutes
	system time =       2.63 seconds =       0.04 minutes
	total time  =          0 seconds =       0.00 minutes
Total time:
	user time   =      56.52 seconds =       0.94 minutes
	system time =      60.93 seconds =       1.02 minutes
	total time  =         11 seconds =       0.18 minutes

*** tstart() called on Joses-MacBook-Pro-2.local
*** at Thu Jul 17 10:00:09 2025

         ------------------------------------------------------------
                                   SCF GRAD
                          Rob Parrish, Justin Turney,
                       Andy Simmonett, and Alex Sokolov
         ------------------------------------------------------------

  ==> Geometry <==

    Molecular point group: c2v
    Full point group: C_inf_v

    Geometry (in Angstrom), charge = -1, multiplicity = 6:

       Center              X                  Y                   Z               Mass
    ------------   -----------------  -----------------  -----------------  -----------------
         C            0.000000000000     0.000000000000     1.984950953949    12.000000000000
         NE           0.000000000000     0.000000000000    -1.191420918981    19.992440176200

  Nuclear repulsion =    9.995880177251598

  ==> Basis Set <==

  Basis Set: CC-PVDZ
    Blend: CC-PVDZ
    Number of shells: 12
    Number of basis functions: 28
    Number of Cartesian functions: 30
    Spherical Harmonics?: true
    Max angular momentum: 2

  ==> DFJKGrad: Density-Fitted SCF Gradients <==

    Gradient:                    1
    J tasked:                  Yes
    K tasked:                  Yes
    wK tasked:                  No
    OpenMP threads:              1
    Integrals threads:           1
    Memory [MiB]:              375
    Schwarz Cutoff:          1E-12
    Fitting Condition:       1E-10

   => Auxiliary Basis Set <=

  Basis Set: (CC-PVDZ AUX)
    Blend: CC-PVDZ-JKFIT
    Number of shells: 48
    Number of basis functions: 140
    Number of Cartesian functions: 162
    Spherical Harmonics?: true
    Max angular momentum: 3

  ==> DFT Potential <==

   => LibXC <=

    Version 6.2.2
    S. Lehtola, C. Steigemann, M. J.T. Oliveira, and M. A.L. Marques.,  SoftwareX 7, 1â€“5 (2018) (10.1016/j.softx.2017.11.002)

   => Composite Functional: B3LYP <=

    B3LYP Hyb-GGA Exchange-Correlation Functional

    P. J. Stephens, F. J. Devlin, C. F. Chabalowski, and M. J. Frisch.,  J. Phys. Chem. 98, 11623 (1994) (10.1021/j100096a001)

    Deriv               =              1
    GGA                 =           TRUE
    Meta                =          FALSE

    Exchange Hybrid     =           TRUE
    MP2 Hybrid          =          FALSE

   => Exchange Functionals <=

    0.0800   Slater exchange
    0.7200         Becke 88

   => Exact (HF) Exchange <=

    0.2000               HF

   => Correlation Functionals <=

    0.1900   Vosko, Wilk & Nusair (VWN5_RPA)
    0.8100   Lee, Yang & Parr

   => LibXC Density Thresholds  <==

    XC_HYB_GGA_XC_B3LYP:  1.00E-15

   => Molecular Quadrature <=

    Radial Scheme          =       TREUTLER
    Pruning Scheme         =           NONE
    Nuclear Scheme         =       TREUTLER

    Blocking Scheme        =         OCTREE
    BS radius alpha        =              1
    Pruning alpha          =              1
    Radial Points          =             75
    Spherical Points       =            302
    Total Points           =          43433
    Total Blocks           =            385
    Max Points             =            256
    Max Functions          =             28
    Weights Tolerance      =       1.00E-15

  -Total Gradient:
     Atom            X                  Y                   Z
    ------   -----------------  -----------------  -----------------
       1        0.000000000000     0.000000000000    -0.000012141873
       2        0.000000000000    -0.000000000000     0.000023125518

*** tstop() called on Joses-MacBook-Pro-2.local at Thu Jul 17 10:00:09 2025
Module time:
	user time   =       0.54 seconds =       0.01 minutes
	system time =       0.92 seconds =       0.02 minutes
	total time  =          0 seconds =       0.00 minutes
Total time:
	user time   =      57.07 seconds =       0.95 minutes
	system time =      61.85 seconds =       1.03 minutes
	total time  =         11 seconds =       0.18 minutes

    			-----------------------------------------

    			 OPTKING 3.0: for geometry optimizations

    			     By R.A. King, Bethel University

    			        with contributions from

    			    A.V. Copan, J. Cayton, A. Heide

    			-----------------------------------------

	                            ===> Fragment 1 <==

	 Z (Atomic Numbers)          Masses                          Geom
	       6.000000            12.000000          0.00000000  0.00000000  3.75101368
	      10.000000            19.992440          0.00000000  0.00000000 -2.25145924

	 - Coordinate -           - BOHR/RAD -       - ANG/DEG -
	 R(1,2)           =         6.002473           3.176372

	        --- Internal Coordinate Step in ANG or DEG, aJ/ANG or AJ/DEG ---
	-------------------------------------------------------------------------------
	           Coordinate      Previous         Force          Change          New
	           ----------      --------        ------          ------        ------
	               R(1,2)       3.17637        0.00015        0.00433       3.18070
	-------------------------------------------------------------------------------

	                                 ==> Convergence Check <==

	Measures of convergence in internal coordinates in au.

	Criteria marked as inactive (o), active & met (*), and active & unmet ( ).

	----------------------------------------------------------------------------------------------
	   Step    Total Energy     Delta E     Max Force     RMS Force      Max Disp      RMS Disp
	----------------------------------------------------------------------------------------------
	  Convergence Criteria     1.00e-06 *    3.00e-04 *             o    1.20e-03 *             o
	----------------------------------------------------------------------------------------------
	    15    -166.04257874   -6.13e-07 *    1.76e-05 *    1.76e-05 o    8.18e-03      8.18e-03 o  ~
	----------------------------------------------------------------------------------------------

Next Geometry in Ang
	Fragment 1 (Ang)

	    C   0.0000000000   0.0000000000   1.9871156209
	   Ne   0.0000000000   0.0000000000  -1.1935855859

    Final optimized geometry and variables:
    Molecular point group: c2v
    Full point group: C_inf_v

    Geometry (in Angstrom), charge = -1, multiplicity = 6:

    C            0.000000000000     0.000000000000     1.984950953949
    NE           0.000000000000     0.000000000000    -1.191420918981

    Psi4 stopped on: Thursday, 17 July 2025 10:00AM
    Psi4 wall time for execution: 0:00:11.81

*** Psi4 exiting successfully. Buy a developer a beer!
