                               Psi4 1.9.1 release

  ==> Input File <==

--------------------------------------------------------------------------
molecule {
-1 6
Li   0.00000        0.60000        0.00000
P   0.00000       -0.60000        0.00000
}

set {
basis              cc-pvdz
reference          uks
maxiter            500
geom_maxiter       500
DAMPING_PERCENTAGE 1
guess              SAP
}

optimize('b3lyp')
--------------------------------------------------------------------------

    Molecular point group: c2v
  Charge       = -1
  Multiplicity = 6
  Basis Set: CC-PVDZ
    Blend: CC-PVDZ
  Basis Set: (CC-PVDZ AUX)
    Blend: CC-PVDZ-JKFIT + DEF2-UNIVERSAL-JKFIT
  @DF-UKS Final Energy:  -348.21166648419302
    Total Energy =                       -348.2116664841930742
 Dipole X            :          0.0000000            0.0000000            0.0000000
 Dipole Y            :          0.0000000            0.0000000            0.0000000
 Dipole Z            :         -2.5565091           -0.7353273           -3.2918364
 Magnitude           :                                                    3.2918364
    Molecular point group: c2v
  Basis Set: CC-PVDZ
    Blend: CC-PVDZ
  Basis Set: (CC-PVDZ AUX)
    Blend: CC-PVDZ-JKFIT + DEF2-UNIVERSAL-JKFIT
  Basis Set: CC-PVDZ
    Blend: CC-PVDZ
  Basis Set: (CC-PVDZ AUX)
    Blend: CC-PVDZ-JKFIT + DEF2-UNIVERSAL-JKFIT
  @DF-UKS Final Energy:  -348.34996155854543
    Total Energy =                       -348.3499615585453739
  Basis Set: CC-PVDZ
    Blend: CC-PVDZ
  Basis Set: (CC-PVDZ AUX)
    Blend: CC-PVDZ-JKFIT + DEF2-UNIVERSAL-JKFIT
  Basis Set: CC-PVDZ
    Blend: CC-PVDZ
  @DF-UKS Final Energy:  -348.48997439870635
    Total Energy =                       -348.4899743987063516
  @DF-UKS Final Energy:  -348.60622186758775
    Total Energy =                       -348.6062218675877489
  @DF-UKS Final Energy:  -348.66817583197428
    Total Energy =                       -348.6681758319742812
  @DF-UKS Final Energy:  -348.70087369975465
    Total Energy =                       -348.7008736997546521
  @DF-UKS Final Energy:  -348.71923869526586
    Total Energy =                       -348.7192386952658580
  @DF-UKS Final Energy:  -348.73002971811445
    Total Energy =                       -348.7300297181144515
  @DF-UKS Final Energy:  -348.73694080470545
    Total Energy =                       -348.7369408047053980
  @DF-UKS Final Energy:  -348.74191705931139
    Total Energy =                       -348.7419170593113904
  @DF-UKS Final Energy:  -348.74217324152761
    Total Energy =                       -348.7421732415276097
  @DF-UKS Final Energy:  -348.74658637858602
    Total Energy =                       -348.7465863785860165
  @DF-UKS Final Energy:  -348.74671349144973
    Total Energy =                       -348.7467134914497251
  @DF-UKS Final Energy:  -348.74979042828915
    Total Energy =                       -348.7497904282891454
  @DF-UKS Final Energy:  -348.74985230857419
    Total Energy =                       -348.7498523085741908
  @DF-UKS Final Energy:  -348.75175560772942
    Total Energy =                       -348.7517556077294216
  @DF-UKS Final Energy:  -348.75178267471841
    Total Energy =                       -348.7517826747184131
  @DF-UKS Final Energy:  -348.75291656543675
    Total Energy =                       -348.7529165654367489
  @DF-UKS Final Energy:  -348.75292784391416
    Total Energy =                       -348.7529278439141081
  @DF-UKS Final Energy:  -348.75293898726636
    Total Energy =                       -348.7529389872663046
  @DF-UKS Final Energy:  -348.75360892524589
    Total Energy =                       -348.7536089252459419
  @DF-UKS Final Energy:  -348.75361348352493
    Total Energy =                       -348.7536134835249300
  @DF-UKS Final Energy:  -348.75361800505158
    Total Energy =                       -348.7536180050515782
  @DF-UKS Final Energy:  -348.75362249029376
    Total Energy =                       -348.7536224902937647
  @DF-UKS Final Energy:  -348.75402296085741
    Total Energy =                       -348.7540229608573554
  @DF-UKS Final Energy:  -348.75402474050924
    Total Energy =                       -348.7540247405091804
  @DF-UKS Final Energy:  -348.75402651054935
    Total Energy =                       -348.7540265105493518
  @DF-UKS Final Energy:  -348.75402827103665
    Total Energy =                       -348.7540282710366455
  @DF-UKS Final Energy:  -348.75403002206485
    Total Energy =                       -348.7540300220648533
  @DF-UKS Final Energy:  -348.75403176373567
    Total Energy =                       -348.7540317637356111
  Basis Set: (CC-PVDZ AUX)
    Blend: CC-PVDZ-JKFIT + DEF2-UNIVERSAL-JKFIT
  Basis Set: CC-PVDZ
    Blend: CC-PVDZ
  Basis Set: (CC-PVDZ AUX)
    Blend: CC-PVDZ-JKFIT + DEF2-UNIVERSAL-JKFIT
  @DF-UKS Final Energy:  -348.75426732799434
    Total Energy =                       -348.7542673279943415
  Basis Set: CC-PVDZ
    Blend: CC-PVDZ
  Basis Set: (CC-PVDZ AUX)
    Blend: CC-PVDZ-JKFIT + DEF2-UNIVERSAL-JKFIT
  Charge       = -1
  Multiplicity = 6
  Basis Set: CC-PVDZ
    Blend: CC-PVDZ
  Basis Set: (CC-PVDZ AUX)
    Blend: CC-PVDZ-JKFIT + DEF2-UNIVERSAL-JKFIT

    Orbital Energies [Eh]
    ---------------------

    Alpha Occupied:

       1A1   -77.031662     2A1    -6.499760     1B2    -4.663193
       1B1    -4.663178     3A1    -4.663152     4A1    -1.866163
       5A1    -0.510487     2B2    -0.171724     2B1    -0.171402
       6A1    -0.170270     7A1     0.010566     3B1     0.059169

    Alpha Virtual:

       3B2     0.098143     8A1     0.099558     4B1     0.194240
       4B2     0.206948     9A1     0.207915    10A1     0.210531
       5B1     0.364442     1A2     0.364512    11A1     0.365776
      12A1     0.371760     5B2     0.373846    13A1     0.431240
       6B2     0.486513     6B1     0.487010    14A1     0.511065
      15A1     0.517512     2A2     0.517519     7B2     0.518559
       7B1     0.518730    16A1     0.526108

    Beta Occupied:

       1A1   -77.019425     2A1    -6.486814     1B2    -4.644095
       1B1    -4.644051     3A1    -4.643993     4A1    -1.859790
       5A1    -0.393742

    Beta Virtual:

       2B2    -0.025010     2B1    -0.024581     6A1    -0.024184
       7A1     0.095262     8A1     0.130997     3B2     0.131221
       3B1     0.136222     4B2     0.226527     9A1     0.227526
       4B1     0.237066    10A1     0.240480    11A1     0.410620
       5B2     0.412848     1A2     0.424389     5B1     0.424877
      12A1     0.428100    13A1     0.475567     6B2     0.536187
       6B1     0.536723    14A1     0.564841    15A1     0.614491
       2A2     0.614500     7B2     0.615405     7B1     0.615642
      16A1     0.617348

    Final Occupation by Irrep:
             A1    A2    B1    B2
    DOCC [     5,    0,    1,    1 ]
    SOCC [     2,    0,    2,    1 ]
    NA   [     7,    0,    3,    2 ]
    NB   [     5,    0,    1,    1 ]

  @DF-UKS Final Energy:  -348.75426798215597

   => Energetics <=

    Nuclear Repulsion Energy =              4.1743312053911961
    One-Electron Energy =                -491.3963840232927396
    Two-Electron Energy =                 158.7113118104970511
    DFT Exchange-Correlation Energy =     -20.2435269747515143
    Empirical Dispersion Energy =           0.0000000000000000
    VV10 Nonlocal Energy =                  0.0000000000000000
    Total Energy =                       -348.7542679821559659

  UHF NO Occupations:
  HONO-2 :    2 B1 1.0000000
  HONO-1 :    7 A1 1.0000000
  HONO-0 :    3 B1 1.0000000
  LUNO+0 :    8 A1 0.0001096
  LUNO+1 :    9 A1 0.0000004
  LUNO+2 :   10 A1 0.0000000
  LUNO+3 :    3 B2 0.0000000

Computation Completed

Properties will be evaluated at   0.000000,   0.000000,   0.000000 [a0]

Properties computed using the SCF density matrix

 Multipole Moments:

 ------------------------------------------------------------------------------------
     Multipole            Electronic (a.u.)      Nuclear  (a.u.)        Total (a.u.)
 ------------------------------------------------------------------------------------

 L = 1.  Multiply by 2.5417464519 to convert [e a0] to [Debye]
 Dipole X            :          0.0000000            0.0000000            0.0000000
 Dipole Y            :          0.0000000            0.0000000            0.0000000
 Dipole Z            :         -5.2620724           -3.4956359           -8.7577082
 Magnitude           :                                                    8.7577082

 ------------------------------------------------------------------------------------

*** tstop() called on Joses-MacBook-Pro-2.local at Thu Jul 17 09:35:35 2025
Module time:
	user time   =       2.06 seconds =       0.03 minutes
	system time =       2.76 seconds =       0.05 minutes
	total time  =          0 seconds =       0.00 minutes
Total time:
	user time   =     139.84 seconds =       2.33 minutes
	system time =     151.74 seconds =       2.53 minutes
	total time  =         28 seconds =       0.47 minutes

*** tstart() called on Joses-MacBook-Pro-2.local
*** at Thu Jul 17 09:35:35 2025

         ------------------------------------------------------------
                                   SCF GRAD
                          Rob Parrish, Justin Turney,
                       Andy Simmonett, and Alex Sokolov
         ------------------------------------------------------------

  ==> Geometry <==

    Molecular point group: c2v
    Full point group: C_inf_v

    Geometry (in Angstrom), charge = -1, multiplicity = 6:

       Center              X                  Y                   Z               Mass
    ------------   -----------------  -----------------  -----------------  -----------------
         LI           0.000000000000     0.000000000000     4.651082970548     7.016003436600
         P            0.000000000000     0.000000000000    -1.053537316744    30.973761998420

  Nuclear repulsion =    4.174331205391196

  ==> Basis Set <==

  Basis Set: CC-PVDZ
    Blend: CC-PVDZ
    Number of shells: 14
    Number of basis functions: 32
    Number of Cartesian functions: 34
    Spherical Harmonics?: true
    Max angular momentum: 2

  ==> DFJKGrad: Density-Fitted SCF Gradients <==

    Gradient:                    1
    J tasked:                  Yes
    K tasked:                  Yes
    wK tasked:                  No
    OpenMP threads:              1
    Integrals threads:           1
    Memory [MiB]:              375
    Schwarz Cutoff:          1E-12
    Fitting Condition:       1E-10

   => Auxiliary Basis Set <=

  Basis Set: (CC-PVDZ AUX)
    Blend: CC-PVDZ-JKFIT + DEF2-UNIVERSAL-JKFIT
    Number of shells: 53
    Number of basis functions: 163
    Number of Cartesian functions: 190
    Spherical Harmonics?: true
    Max angular momentum: 3

  ==> DFT Potential <==

   => LibXC <=

    Version 6.2.2
    S. Lehtola, C. Steigemann, M. J.T. Oliveira, and M. A.L. Marques.,  SoftwareX 7, 1â€“5 (2018) (10.1016/j.softx.2017.11.002)

   => Composite Functional: B3LYP <=

    B3LYP Hyb-GGA Exchange-Correlation Functional

    P. J. Stephens, F. J. Devlin, C. F. Chabalowski, and M. J. Frisch.,  J. Phys. Chem. 98, 11623 (1994) (10.1021/j100096a001)

    Deriv               =              1
    GGA                 =           TRUE
    Meta                =          FALSE

    Exchange Hybrid     =           TRUE
    MP2 Hybrid          =          FALSE

   => Exchange Functionals <=

    0.0800   Slater exchange
    0.7200         Becke 88

   => Exact (HF) Exchange <=

    0.2000               HF

   => Correlation Functionals <=

    0.1900   Vosko, Wilk & Nusair (VWN5_RPA)
    0.8100   Lee, Yang & Parr

   => LibXC Density Thresholds  <==

    XC_HYB_GGA_XC_B3LYP:  1.00E-15

   => Molecular Quadrature <=

    Radial Scheme          =       TREUTLER
    Pruning Scheme         =           NONE
    Nuclear Scheme         =       TREUTLER

    Blocking Scheme        =         OCTREE
    BS radius alpha        =              1
    Pruning alpha          =              1
    Radial Points          =             75
    Spherical Points       =            302
    Total Points           =          44424
    Total Blocks           =            467
    Max Points             =            256
    Max Functions          =             32
    Weights Tolerance      =       1.00E-15

  -Total Gradient:
     Atom            X                  Y                   Z
    ------   -----------------  -----------------  -----------------
       1        0.000000000000     0.000000000000    -0.000251434453
       2        0.000000000000     0.000000000000     0.000252514521

*** tstop() called on Joses-MacBook-Pro-2.local at Thu Jul 17 09:35:35 2025
Module time:
	user time   =       0.76 seconds =       0.01 minutes
	system time =       1.63 seconds =       0.03 minutes
	total time  =          0 seconds =       0.00 minutes
Total time:
	user time   =     140.61 seconds =       2.34 minutes
	system time =     153.37 seconds =       2.56 minutes
	total time  =         28 seconds =       0.47 minutes

    			-----------------------------------------

    			 OPTKING 3.0: for geometry optimizations

    			     By R.A. King, Bethel University

    			        with contributions from

    			    A.V. Copan, J. Cayton, A. Heide

    			-----------------------------------------

	                            ===> Fragment 1 <==

	 Z (Atomic Numbers)          Masses                          Geom
	       3.000000             7.016003          0.00000000  0.00000000  8.78927300
	      15.000000            30.973762          0.00000000  0.00000000 -1.99089699

	 - Coordinate -           - BOHR/RAD -       - ANG/DEG -
	 R(1,2)           =        10.780170           5.704620

	        --- Internal Coordinate Step in ANG or DEG, aJ/ANG or AJ/DEG ---
	-------------------------------------------------------------------------------
	           Coordinate      Previous         Force          Change          New
	           ----------      --------        ------          ------        ------
	               R(1,2)       5.70462        0.00208        0.00137       5.70599
	-------------------------------------------------------------------------------

	                                 ==> Convergence Check <==

	Measures of convergence in internal coordinates in au.

	Criteria marked as inactive (o), active & met (*), and active & unmet ( ).

	----------------------------------------------------------------------------------------------
	   Step    Total Energy     Delta E     Max Force     RMS Force      Max Disp      RMS Disp
	----------------------------------------------------------------------------------------------
	  Convergence Criteria     1.00e-06 *    3.00e-04 *             o    1.20e-03 *             o
	----------------------------------------------------------------------------------------------
	    32    -348.75426798   -6.54e-07 *    2.52e-04 *    2.52e-04 o    2.58e-03      2.58e-03 o  ~
	----------------------------------------------------------------------------------------------

Next Geometry in Ang
	Fragment 1 (Ang)

	   Li   0.0000000000   0.0000000000   4.6517660901
	    P   0.0000000000   0.0000000000  -1.0542204363

    Final optimized geometry and variables:
    Molecular point group: c2v
    Full point group: C_inf_v

    Geometry (in Angstrom), charge = -1, multiplicity = 6:

    LI           0.000000000000     0.000000000000     4.651082970548
    P            0.000000000000     0.000000000000    -1.053537316744

    Psi4 stopped on: Thursday, 17 July 2025 09:35AM
    Psi4 wall time for execution: 0:00:28.91

*** Psi4 exiting successfully. Buy a developer a beer!
