                               Psi4 1.9.1 release

  ==> Input File <==

--------------------------------------------------------------------------
molecule {
-1 6
Be   0.00000        0.60000        0.00000
Mg   0.00000       -0.60000        0.00000
}

set {
basis              cc-pvdz
reference          uks
maxiter            500
geom_maxiter       500
DAMPING_PERCENTAGE 1
guess              SAP
}

optimize('b3lyp')
--------------------------------------------------------------------------

    Molecular point group: c2v
  Charge       = -1
  Multiplicity = 6
  Basis Set: CC-PVDZ
    Blend: CC-PVDZ
  Basis Set: (CC-PVDZ AUX)
    Blend: DEF2-UNIVERSAL-JKFIT
  @DF-UKS Final Energy:  -214.17771218937719
    Total Energy =                       -214.1777121893771891
 Dipole X            :          0.0000000            0.0000000            0.0000000
 Dipole Y            :          0.0000000            0.0000000            0.0000000
 Dipole Z            :          0.7344884           -0.8388361           -0.1043477
 Magnitude           :                                                    0.1043477
    Molecular point group: c2v
  Basis Set: CC-PVDZ
    Blend: CC-PVDZ
  Basis Set: (CC-PVDZ AUX)
    Blend: DEF2-UNIVERSAL-JKFIT
  Basis Set: CC-PVDZ
    Blend: CC-PVDZ
  Basis Set: (CC-PVDZ AUX)
    Blend: DEF2-UNIVERSAL-JKFIT
  @DF-UKS Final Energy:  -214.27294151746443
    Total Energy =                       -214.2729415174644316
  Basis Set: CC-PVDZ
    Blend: CC-PVDZ
  Basis Set: (CC-PVDZ AUX)
    Blend: DEF2-UNIVERSAL-JKFIT
  Basis Set: CC-PVDZ
    Blend: CC-PVDZ
  @DF-UKS Final Energy:  -214.38765690087823
    Total Energy =                       -214.3876569008782269
  @DF-UKS Final Energy:  -214.52677611131148
    Total Energy =                       -214.5267761113114773
  @DF-UKS Final Energy:  -214.59418879256444
    Total Energy =                       -214.5941887925644380
  @DF-UKS Final Energy:  -214.62286541224523
    Total Energy =                       -214.6228654122452326
  @DF-UKS Final Energy:  -214.63517979419302
    Total Energy =                       -214.6351797941930215
  @DF-UKS Final Energy:  -214.63956038595211
    Total Energy =                       -214.6395603859520804
  @DF-UKS Final Energy:  -214.64058909033812
    Total Energy =                       -214.6405890903381248
  @DF-UKS Final Energy:  -214.64069470515577
    Total Energy =                       -214.6406947051557665
  @DF-UKS Final Energy:  -214.64070590928856
    Total Energy =                       -214.6407059092885845
  Basis Set: (CC-PVDZ AUX)
    Blend: DEF2-UNIVERSAL-JKFIT
  Basis Set: CC-PVDZ
    Blend: CC-PVDZ
  Basis Set: (CC-PVDZ AUX)
    Blend: DEF2-UNIVERSAL-JKFIT
  @DF-UKS Final Energy:  -214.64070724280458
    Total Energy =                       -214.6407072428045808
  Basis Set: CC-PVDZ
    Blend: CC-PVDZ
  Basis Set: (CC-PVDZ AUX)
    Blend: DEF2-UNIVERSAL-JKFIT
  Charge       = -1
  Multiplicity = 6
  Basis Set: CC-PVDZ
    Blend: CC-PVDZ
  Basis Set: (CC-PVDZ AUX)
    Blend: DEF2-UNIVERSAL-JKFIT

    Orbital Energies [Eh]
    ---------------------

    Alpha Occupied:

       1A1   -46.687129     2A1    -3.895085     3A1    -2.968773
       1B2    -1.712561     1B1    -1.712561     4A1    -1.712183
       5A1    -0.147917     6A1    -0.043115     7A1     0.026232
       2B1     0.026678     2B2     0.026678

    Alpha Virtual:

       3B1     0.123901     3B2     0.123901     8A1     0.162545
       9A1     0.226242     4B2     0.280003     4B1     0.280003
      10A1     0.299224    11A1     0.350320     5B1     0.359942
       5B2     0.359942    12A1     0.442867     1A2     0.442868
       6B1     0.446426     6B2     0.446426    13A1     0.463543
      14A1     0.635309     2A2     0.645586    15A1     0.645586
       7B1     0.760788     7B2     0.760788    16A1     0.930810

    Beta Occupied:

       1A1   -46.682611     2A1    -3.876832     3A1    -2.961530
       1B2    -1.706643     1B1    -1.706643     4A1    -1.704660

    Beta Virtual:

       5A1     0.012537     6A1     0.091797     2B1     0.137784
       2B2     0.137784     7A1     0.167167     3B2     0.205741
       3B1     0.205741     8A1     0.217565     9A1     0.272377
       4B2     0.322000     4B1     0.322000    10A1     0.359991
       5B1     0.410871     5B2     0.410871    11A1     0.422000
      12A1     0.502614     1A2     0.502622     6B2     0.526483
       6B1     0.526483    13A1     0.530805    14A1     0.703173
       2A2     0.747270    15A1     0.747290     7B1     0.862610
       7B2     0.862610    16A1     1.016990

    Final Occupation by Irrep:
             A1    A2    B1    B2
    DOCC [     4,    0,    1,    1 ]
    SOCC [     3,    0,    1,    1 ]
    NA   [     7,    0,    2,    2 ]
    NB   [     4,    0,    1,    1 ]

  @DF-UKS Final Energy:  -214.64070728090513

   => Energetics <=

    Nuclear Repulsion Energy =             10.0494061731785695
    One-Electron Energy =                -320.7439695943322704
    Two-Electron Energy =                 111.7195465541401234
    DFT Exchange-Correlation Energy =     -15.6656904138915447
    Empirical Dispersion Energy =           0.0000000000000000
    VV10 Nonlocal Energy =                  0.0000000000000000
    Total Energy =                       -214.6407072809051328

  UHF NO Occupations:
  HONO-2 :    2 B2 1.0000000
  HONO-1 :    2 B1 1.0000000
  HONO-0 :    7 A1 1.0000000
  LUNO+0 :    8 A1 0.0000004
  LUNO+1 :    3 B1 0.0000002
  LUNO+2 :    3 B2 0.0000002
  LUNO+3 :    9 A1 0.0000001

Computation Completed

Properties will be evaluated at   0.000000,   0.000000,   0.000000 [a0]

Properties computed using the SCF density matrix

 Multipole Moments:

 ------------------------------------------------------------------------------------
     Multipole            Electronic (a.u.)      Nuclear  (a.u.)        Total (a.u.)
 ------------------------------------------------------------------------------------

 L = 1.  Multiply by 2.5417464519 to convert [e a0] to [Debye]
 Dipole X            :          0.0000000            0.0000000            0.0000000
 Dipole Y            :          0.0000000            0.0000000            0.0000000
 Dipole Z            :          0.6873110           -1.7668426           -1.0795316
 Magnitude           :                                                    1.0795316

 ------------------------------------------------------------------------------------

*** tstop() called on Joses-MacBook-Pro-2.local at Thu Jul 17 09:43:40 2025
Module time:
	user time   =       2.53 seconds =       0.04 minutes
	system time =       3.07 seconds =       0.05 minutes
	total time  =          0 seconds =       0.00 minutes
Total time:
	user time   =      59.76 seconds =       1.00 minutes
	system time =      68.65 seconds =       1.14 minutes
	total time  =         12 seconds =       0.20 minutes

*** tstart() called on Joses-MacBook-Pro-2.local
*** at Thu Jul 17 09:43:40 2025

         ------------------------------------------------------------
                                   SCF GRAD
                          Rob Parrish, Justin Turney,
                       Andy Simmonett, and Alex Sokolov
         ------------------------------------------------------------

  ==> Geometry <==

    Molecular point group: c2v
    Full point group: C_inf_v

    Geometry (in Angstrom), charge = -1, multiplicity = 6:

       Center              X                  Y                   Z               Mass
    ------------   -----------------  -----------------  -----------------  -----------------
         BE           0.000000000000     0.000000000000     1.837236366124     9.012183065000
         MG           0.000000000000     0.000000000000    -0.690326524104    23.985041697000

  Nuclear repulsion =   10.049406173178570

  ==> Basis Set <==

  Basis Set: CC-PVDZ
    Blend: CC-PVDZ
    Number of shells: 14
    Number of basis functions: 32
    Number of Cartesian functions: 34
    Spherical Harmonics?: true
    Max angular momentum: 2

  ==> DFJKGrad: Density-Fitted SCF Gradients <==

    Gradient:                    1
    J tasked:                  Yes
    K tasked:                  Yes
    wK tasked:                  No
    OpenMP threads:              1
    Integrals threads:           1
    Memory [MiB]:              375
    Schwarz Cutoff:          1E-12
    Fitting Condition:       1E-10

   => Auxiliary Basis Set <=

  Basis Set: (CC-PVDZ AUX)
    Blend: DEF2-UNIVERSAL-JKFIT
    Number of shells: 51
    Number of basis functions: 163
    Number of Cartesian functions: 197
    Spherical Harmonics?: true
    Max angular momentum: 4

  ==> DFT Potential <==

   => LibXC <=

    Version 6.2.2
    S. Lehtola, C. Steigemann, M. J.T. Oliveira, and M. A.L. Marques.,  SoftwareX 7, 1â€“5 (2018) (10.1016/j.softx.2017.11.002)

   => Composite Functional: B3LYP <=

    B3LYP Hyb-GGA Exchange-Correlation Functional

    P. J. Stephens, F. J. Devlin, C. F. Chabalowski, and M. J. Frisch.,  J. Phys. Chem. 98, 11623 (1994) (10.1021/j100096a001)

    Deriv               =              1
    GGA                 =           TRUE
    Meta                =          FALSE

    Exchange Hybrid     =           TRUE
    MP2 Hybrid          =          FALSE

   => Exchange Functionals <=

    0.0800   Slater exchange
    0.7200         Becke 88

   => Exact (HF) Exchange <=

    0.2000               HF

   => Correlation Functionals <=

    0.1900   Vosko, Wilk & Nusair (VWN5_RPA)
    0.8100   Lee, Yang & Parr

   => LibXC Density Thresholds  <==

    XC_HYB_GGA_XC_B3LYP:  1.00E-15

   => Molecular Quadrature <=

    Radial Scheme          =       TREUTLER
    Pruning Scheme         =           NONE
    Nuclear Scheme         =       TREUTLER

    Blocking Scheme        =         OCTREE
    BS radius alpha        =              1
    Pruning alpha          =              1
    Radial Points          =             75
    Spherical Points       =            302
    Total Points           =          42980
    Total Blocks           =            416
    Max Points             =            256
    Max Functions          =             32
    Weights Tolerance      =       1.00E-15

  -Total Gradient:
     Atom            X                  Y                   Z
    ------   -----------------  -----------------  -----------------
       1       -0.000000000000     0.000000000000    -0.000013320912
       2        0.000000000000    -0.000000000000     0.000005719555

*** tstop() called on Joses-MacBook-Pro-2.local at Thu Jul 17 09:43:41 2025
Module time:
	user time   =       1.19 seconds =       0.02 minutes
	system time =       1.70 seconds =       0.03 minutes
	total time  =          1 seconds =       0.02 minutes
Total time:
	user time   =      60.95 seconds =       1.02 minutes
	system time =      70.35 seconds =       1.17 minutes
	total time  =         13 seconds =       0.22 minutes

    			-----------------------------------------

    			 OPTKING 3.0: for geometry optimizations

    			     By R.A. King, Bethel University

    			        with contributions from

    			    A.V. Copan, J. Cayton, A. Heide

    			-----------------------------------------

	                            ===> Fragment 1 <==

	 Z (Atomic Numbers)          Masses                          Geom
	       4.000000             9.012183          0.00000000  0.00000000  3.47187356
	      12.000000            23.985042          0.00000000  0.00000000 -1.30452807

	 - Coordinate -           - BOHR/RAD -       - ANG/DEG -
	 R(1,2)           =         4.776402           2.527563

	        --- Internal Coordinate Step in ANG or DEG, aJ/ANG or AJ/DEG ---
	-------------------------------------------------------------------------------
	           Coordinate      Previous         Force          Change          New
	           ----------      --------        ------          ------        ------
	               R(1,2)       2.52756        0.00008        0.00013       2.52769
	-------------------------------------------------------------------------------

	                                 ==> Convergence Check <==

	Measures of convergence in internal coordinates in au.

	Criteria marked as inactive (o), active & met (*), and active & unmet ( ).

	----------------------------------------------------------------------------------------------
	   Step    Total Energy     Delta E     Max Force     RMS Force      Max Disp      RMS Disp
	----------------------------------------------------------------------------------------------
	  Convergence Criteria     1.00e-06 *    3.00e-04 *             o    1.20e-03 *             o
	----------------------------------------------------------------------------------------------
	    13    -214.64070728   -3.81e-08 *    9.52e-06 *    9.52e-06 o    2.46e-04 *    2.46e-04 o  ~
	----------------------------------------------------------------------------------------------

Next Geometry in Ang
	Fragment 1 (Ang)

	   Be   0.0000000000   0.0000000000   1.8373015762
	   Mg   0.0000000000   0.0000000000  -0.6903917342

    Final optimized geometry and variables:
    Molecular point group: c2v
    Full point group: C_inf_v

    Geometry (in Angstrom), charge = -1, multiplicity = 6:

    BE           0.000000000000     0.000000000000     1.837236366124
    MG           0.000000000000     0.000000000000    -0.690326524104

    Psi4 stopped on: Thursday, 17 July 2025 09:43AM
    Psi4 wall time for execution: 0:00:13.50

*** Psi4 exiting successfully. Buy a developer a beer!
