                               Psi4 1.9.1 release

  ==> Input File <==

--------------------------------------------------------------------------
molecule {
-1 6
Si   0.00000        0.60000        0.00000
S   0.00000       -0.60000        0.00000
}

set {
basis              cc-pvdz
reference          uks
maxiter            500
geom_maxiter       500
DAMPING_PERCENTAGE 1
guess              SAP
}

optimize('b3lyp')
--------------------------------------------------------------------------

    Molecular point group: c2v
  Charge       = -1
  Multiplicity = 6
  Basis Set: CC-PVDZ
    Blend: CC-PVDZ
  Basis Set: (CC-PVDZ AUX)
    Blend: CC-PVDZ-JKFIT
  @DF-UKS Final Energy:  -686.02000819496163
    Total Energy =                       -686.0200081949615196
 Dipole X            :          0.0000000            0.0000000            0.0000000
 Dipole Y            :          0.0000000            0.0000000            0.0000000
 Dipole Z            :         -1.7003405           -0.0008257           -1.7011662
 Magnitude           :                                                    1.7011662
    Molecular point group: c2v
  Basis Set: CC-PVDZ
    Blend: CC-PVDZ
  Basis Set: (CC-PVDZ AUX)
    Blend: CC-PVDZ-JKFIT
  Basis Set: CC-PVDZ
    Blend: CC-PVDZ
  Basis Set: (CC-PVDZ AUX)
    Blend: CC-PVDZ-JKFIT
  @DF-UKS Final Energy:  -686.05295743984402
    Total Energy =                       -686.0529574398440218
  Basis Set: CC-PVDZ
    Blend: CC-PVDZ
  Basis Set: (CC-PVDZ AUX)
    Blend: CC-PVDZ-JKFIT
  Basis Set: CC-PVDZ
    Blend: CC-PVDZ
  @DF-UKS Final Energy:  -686.11514279050152
    Total Energy =                       -686.1151427905015225
  @DF-UKS Final Energy:  -686.32641016965533
    Total Energy =                       -686.3264101696554462
  @DF-UKS Final Energy:  -686.89260583072530
    Total Energy =                       -686.8926058307254152
  @DF-UKS Final Energy:  -687.16695371691992
    Total Energy =                       -687.1669537169199202
  @DF-UKS Final Energy:  -687.31754164344920
    Total Energy =                       -687.3175416434493172
  @DF-UKS Final Energy:  -687.39664860530991
    Total Energy =                       -687.3966486053097924
  @DF-UKS Final Energy:  -687.45298413635521
    Total Energy =                       -687.4529841363553260
  @DF-UKS Final Energy:  -687.49237412220145
    Total Energy =                       -687.4923741222014542
  @DF-UKS Final Energy:  -687.51741942225328
    Total Energy =                       -687.5174194222532833
  @DF-UKS Final Energy:  -687.53162269278050
    Total Energy =                       -687.5316226927805019
  @DF-UKS Final Energy:  -687.53915135220655
    Total Energy =                       -687.5391513522065452
  @DF-UKS Final Energy:  -687.54300007606457
    Total Energy =                       -687.5430000760645726
  @DF-UKS Final Energy:  -687.54490930138377
    Total Energy =                       -687.5449093013837683
  @DF-UKS Final Energy:  -687.54580859278769
    Total Energy =                       -687.5458085927878074
  @DF-UKS Final Energy:  -687.54618575993254
    Total Energy =                       -687.5461857599326549
  @DF-UKS Final Energy:  -687.54630954740878
    Total Energy =                       -687.5463095474087822
  @DF-UKS Final Energy:  -687.54633469510168
    Total Energy =                       -687.5463346951017911
  Basis Set: (CC-PVDZ AUX)
    Blend: CC-PVDZ-JKFIT
  Basis Set: CC-PVDZ
    Blend: CC-PVDZ
  Basis Set: (CC-PVDZ AUX)
    Blend: CC-PVDZ-JKFIT
  @DF-UKS Final Energy:  -687.54633656569376
    Total Energy =                       -687.5463365656937640
  Basis Set: CC-PVDZ
    Blend: CC-PVDZ
  Basis Set: (CC-PVDZ AUX)
    Blend: CC-PVDZ-JKFIT
  Charge       = -1
  Multiplicity = 6
  Basis Set: CC-PVDZ
    Blend: CC-PVDZ
  Basis Set: (CC-PVDZ AUX)
    Blend: CC-PVDZ-JKFIT

    Orbital Energies [Eh]
    ---------------------

    Alpha Occupied:

       1A1   -88.800472     2A1   -65.871767     3A1    -7.858629
       1B1    -5.827970     4A1    -5.827430     1B2    -5.808369
       5A1    -5.014555     2B1    -3.374160     2B2    -3.374153
       6A1    -3.374137     7A1    -0.590378     3B1    -0.201491
       8A1    -0.199600     9A1    -0.188774     3B2    -0.153144
       4B1     0.058906     4B2     0.059224    10A1     0.059530

    Alpha Virtual:

      11A1     0.454689    12A1     0.511981     5B1     0.532937
       5B2     0.535153    13A1     0.563643     6B1     0.582061
      14A1     0.593485     6B2     0.598993     1A2     0.602460
      15A1     0.602466     7B1     0.604500     7B2     0.617151
      16A1     0.647444     8B1     0.653853     2A2     0.688284
       8B2     0.692207    17A1     0.693787    18A1     0.725306

    Beta Occupied:

       1A1   -88.789712     2A1   -65.864836     3A1    -7.847635
       1B1    -5.806723     4A1    -5.806193     1B2    -5.801833
       5A1    -5.006727     2B1    -3.362939     2B2    -3.362919
       6A1    -3.362880     7A1    -0.498518     3B2    -0.126619
       8A1    -0.104733

    Beta Virtual:

       3B1    -0.044852     9A1    -0.040902     4B1     0.171705
       4B2     0.172080    10A1     0.172613    11A1     0.494464
      12A1     0.555941     5B2     0.577073     5B1     0.577296
      13A1     0.606361     6B2     0.627332     6B1     0.632812
      14A1     0.660726     1A2     0.677170    15A1     0.677177
       7B1     0.677660     7B2     0.677782    16A1     0.730987
       2A2     0.745438     8B2     0.748429    17A1     0.750703
       8B1     0.760319    18A1     0.783338

    Final Occupation by Irrep:
             A1    A2    B1    B2
    DOCC [     8,    0,    2,    3 ]
    SOCC [     2,    0,    2,    1 ]
    NA   [    10,    0,    4,    4 ]
    NB   [     8,    0,    2,    3 ]

  @DF-UKS Final Energy:  -687.54633667971075

   => Energetics <=

    Nuclear Repulsion Energy =             27.6166800673546540
    One-Electron Energy =               -1011.5279018649612226
    Two-Electron Energy =                 333.9692975813350699
    DFT Exchange-Correlation Energy =     -37.6044124634392318
    Empirical Dispersion Energy =           0.0000000000000000
    VV10 Nonlocal Energy =                  0.0000000000000000
    Total Energy =                       -687.5463366797106346

  UHF NO Occupations:
  HONO-2 :   10 A1 1.0000000
  HONO-1 :    3 B1 1.0000000
  HONO-0 :    4 B1 1.0000000
  LUNO+0 :   11 A1 0.0010003
  LUNO+1 :    5 B2 0.0001096
  LUNO+2 :   12 A1 0.0000553
  LUNO+3 :   13 A1 0.0000000

Computation Completed

Properties will be evaluated at   0.000000,   0.000000,   0.000000 [a0]

Properties computed using the SCF density matrix

 Multipole Moments:

 ------------------------------------------------------------------------------------
     Multipole            Electronic (a.u.)      Nuclear  (a.u.)        Total (a.u.)
 ------------------------------------------------------------------------------------

 L = 1.  Multiply by 2.5417464519 to convert [e a0] to [Debye]
 Dipole X            :          0.0000000            0.0000000            0.0000000
 Dipole Y            :          0.0000000            0.0000000            0.0000000
 Dipole Z            :         -3.9619808           -0.0029533           -3.9649341
 Magnitude           :                                                    3.9649341

 ------------------------------------------------------------------------------------

*** tstop() called on Joses-MacBook-Pro-2.local at Thu Jul 17 11:50:28 2025
Module time:
	user time   =       5.42 seconds =       0.09 minutes
	system time =       2.33 seconds =       0.04 minutes
	total time  =          1 seconds =       0.02 minutes
Total time:
	user time   =     249.48 seconds =       4.16 minutes
	system time =      60.14 seconds =       1.00 minutes
	total time  =         29 seconds =       0.48 minutes

*** tstart() called on Joses-MacBook-Pro-2.local
*** at Thu Jul 17 11:50:28 2025

         ------------------------------------------------------------
                                   SCF GRAD
                          Rob Parrish, Justin Turney,
                       Andy Simmonett, and Alex Sokolov
         ------------------------------------------------------------

  ==> Geometry <==

    Molecular point group: c2v
    Full point group: C_inf_v

    Geometry (in Angstrom), charge = -1, multiplicity = 6:

       Center              X                  Y                   Z               Mass
    ------------   -----------------  -----------------  -----------------  -----------------
         SI           0.000000000000     0.000000000000     2.289109284943    27.976926534650
         S            0.000000000000     0.000000000000    -2.003068301247    31.972071174400

  Nuclear repulsion =   27.616680067354654

  ==> Basis Set <==

  Basis Set: CC-PVDZ
    Blend: CC-PVDZ
    Number of shells: 16
    Number of basis functions: 36
    Number of Cartesian functions: 38
    Spherical Harmonics?: true
    Max angular momentum: 2

  ==> DFJKGrad: Density-Fitted SCF Gradients <==

    Gradient:                    1
    J tasked:                  Yes
    K tasked:                  Yes
    wK tasked:                  No
    OpenMP threads:              1
    Integrals threads:           1
    Memory [MiB]:              375
    Schwarz Cutoff:          1E-12
    Fitting Condition:       1E-10

   => Auxiliary Basis Set <=

  Basis Set: (CC-PVDZ AUX)
    Blend: CC-PVDZ-JKFIT
    Number of shells: 72
    Number of basis functions: 224
    Number of Cartesian functions: 260
    Spherical Harmonics?: true
    Max angular momentum: 3

  ==> DFT Potential <==

   => LibXC <=

    Version 6.2.2
    S. Lehtola, C. Steigemann, M. J.T. Oliveira, and M. A.L. Marques.,  SoftwareX 7, 1â€“5 (2018) (10.1016/j.softx.2017.11.002)

   => Composite Functional: B3LYP <=

    B3LYP Hyb-GGA Exchange-Correlation Functional

    P. J. Stephens, F. J. Devlin, C. F. Chabalowski, and M. J. Frisch.,  J. Phys. Chem. 98, 11623 (1994) (10.1021/j100096a001)

    Deriv               =              1
    GGA                 =           TRUE
    Meta                =          FALSE

    Exchange Hybrid     =           TRUE
    MP2 Hybrid          =          FALSE

   => Exchange Functionals <=

    0.0800   Slater exchange
    0.7200         Becke 88

   => Exact (HF) Exchange <=

    0.2000               HF

   => Correlation Functionals <=

    0.1900   Vosko, Wilk & Nusair (VWN5_RPA)
    0.8100   Lee, Yang & Parr

   => LibXC Density Thresholds  <==

    XC_HYB_GGA_XC_B3LYP:  1.00E-15

   => Molecular Quadrature <=

    Radial Scheme          =       TREUTLER
    Pruning Scheme         =           NONE
    Nuclear Scheme         =       TREUTLER

    Blocking Scheme        =         OCTREE
    BS radius alpha        =              1
    Pruning alpha          =              1
    Radial Points          =             75
    Spherical Points       =            302
    Total Points           =          41786
    Total Blocks           =            431
    Max Points             =            256
    Max Functions          =             36
    Weights Tolerance      =       1.00E-15

  -Total Gradient:
     Atom            X                  Y                   Z
    ------   -----------------  -----------------  -----------------
       1       -0.000000000000     0.000000000000    -0.000006687834
       2        0.000000000000    -0.000000000000     0.000005364699

*** tstop() called on Joses-MacBook-Pro-2.local at Thu Jul 17 11:50:28 2025
Module time:
	user time   =       2.38 seconds =       0.04 minutes
	system time =       1.16 seconds =       0.02 minutes
	total time  =          0 seconds =       0.00 minutes
Total time:
	user time   =     251.86 seconds =       4.20 minutes
	system time =      61.30 seconds =       1.02 minutes
	total time  =         29 seconds =       0.48 minutes

    			-----------------------------------------

    			 OPTKING 3.0: for geometry optimizations

    			     By R.A. King, Bethel University

    			        with contributions from

    			    A.V. Copan, J. Cayton, A. Heide

    			-----------------------------------------

	                            ===> Fragment 1 <==

	 Z (Atomic Numbers)          Masses                          Geom
	      14.000000            27.976927          0.00000000  0.00000000  4.32578962
	      16.000000            31.972071          0.00000000  0.00000000 -3.78525050

	 - Coordinate -           - BOHR/RAD -       - ANG/DEG -
	 R(1,2)           =         8.111040           4.292178

	        --- Internal Coordinate Step in ANG or DEG, aJ/ANG or AJ/DEG ---
	-------------------------------------------------------------------------------
	           Coordinate      Previous         Force          Change          New
	           ----------      --------        ------          ------        ------
	               R(1,2)       4.29218        0.00005        0.00216       4.29434
	-------------------------------------------------------------------------------

	                                 ==> Convergence Check <==

	Measures of convergence in internal coordinates in au.

	Criteria marked as inactive (o), active & met (*), and active & unmet ( ).

	----------------------------------------------------------------------------------------------
	   Step    Total Energy     Delta E     Max Force     RMS Force      Max Disp      RMS Disp
	----------------------------------------------------------------------------------------------
	  Convergence Criteria     1.00e-06 *    3.00e-04 *             o    1.20e-03 *             o
	----------------------------------------------------------------------------------------------
	    21    -687.54633668   -1.14e-07 *    6.03e-06 *    6.03e-06 o    4.08e-03      4.08e-03 o  ~
	----------------------------------------------------------------------------------------------

Next Geometry in Ang
	Fragment 1 (Ang)

	   Si   0.0000000000   0.0000000000   2.2901895786
	    S   0.0000000000   0.0000000000  -2.0041485949

    Final optimized geometry and variables:
    Molecular point group: c2v
    Full point group: C_inf_v

    Geometry (in Angstrom), charge = -1, multiplicity = 6:

    SI           0.000000000000     0.000000000000     2.289109284943
    S            0.000000000000     0.000000000000    -2.003068301247

    Psi4 stopped on: Thursday, 17 July 2025 11:50AM
    Psi4 wall time for execution: 0:00:30.49

*** Psi4 exiting successfully. Buy a developer a beer!
