                               Psi4 1.9.1 release

  ==> Input File <==

--------------------------------------------------------------------------
molecule {
-1 6
Na   0.00000        0.60000        0.00000
P   0.00000       -0.60000        0.00000
}

set {
basis              cc-pvdz
reference          uks
maxiter            500
geom_maxiter       500
DAMPING_PERCENTAGE 1
guess              SAP
}

optimize('b3lyp')
--------------------------------------------------------------------------

    Molecular point group: c2v
  Charge       = -1
  Multiplicity = 6
  Basis Set: CC-PVDZ
    Blend: CC-PVDZ
  Basis Set: (CC-PVDZ AUX)
    Blend: CC-PVDZ-JKFIT + DEF2-UNIVERSAL-JKFIT
  @DF-UKS Final Energy:  -502.54764156223916
    Total Energy =                       -502.5476415622391642
 Dipole X            :          0.0000000            0.0000000            0.0000000
 Dipole Y            :          0.0000000            0.0000000            0.0000000
 Dipole Z            :         -1.8070532           -0.1737688           -1.9808220
 Magnitude           :                                                    1.9808220
    Molecular point group: c2v
  Basis Set: CC-PVDZ
    Blend: CC-PVDZ
  Basis Set: (CC-PVDZ AUX)
    Blend: CC-PVDZ-JKFIT + DEF2-UNIVERSAL-JKFIT
  Basis Set: CC-PVDZ
    Blend: CC-PVDZ
  Basis Set: (CC-PVDZ AUX)
    Blend: CC-PVDZ-JKFIT + DEF2-UNIVERSAL-JKFIT
  @DF-UKS Final Energy:  -502.55894195805996
    Total Energy =                       -502.5589419580599611
  Basis Set: CC-PVDZ
    Blend: CC-PVDZ
  Basis Set: (CC-PVDZ AUX)
    Blend: CC-PVDZ-JKFIT + DEF2-UNIVERSAL-JKFIT
  Basis Set: CC-PVDZ
    Blend: CC-PVDZ
  @DF-UKS Final Energy:  -502.58080151314306
    Total Energy =                       -502.5808015131430579
  @DF-UKS Final Energy:  -502.66056808778870
    Total Energy =                       -502.6605680877887039
  @DF-UKS Final Energy:  -503.02690121861502
    Total Energy =                       -503.0269012186150235
  @DF-UKS Final Energy:  -503.24710230429008
    Total Energy =                       -503.2471023042900811
  @DF-UKS Final Energy:  -503.38799369820515
    Total Energy =                       -503.3879936982051504
  @DF-UKS Final Energy:  -503.45826805606362
    Total Energy =                       -503.4582680560636163
  @DF-UKS Final Energy:  -503.49527369707329
    Total Energy =                       -503.4952736970732872
  @DF-UKS Final Energy:  -503.51565869768950
    Total Energy =                       -503.5156586976895028
  @DF-UKS Final Energy:  -503.52791080992802
    Total Energy =                       -503.5279108099280165
  @DF-UKS Final Energy:  -503.53564192374648
    Total Energy =                       -503.5356419237464820
  @DF-UKS Final Energy:  -503.54077400174259
    Total Energy =                       -503.5407740017425908
  @DF-UKS Final Energy:  -503.54440844006507
    Total Energy =                       -503.5444084400650695
  @DF-UKS Final Energy:  -503.54448403174172
    Total Energy =                       -503.5444840317417174
  @DF-UKS Final Energy:  -503.54738709007518
    Total Energy =                       -503.5473870900751763
  @DF-UKS Final Energy:  -503.54742034385112
    Total Energy =                       -503.5474203438511154
  @DF-UKS Final Energy:  -503.54925113772043
    Total Energy =                       -503.5492511377204323
  @DF-UKS Final Energy:  -503.54926573992998
    Total Energy =                       -503.5492657399299787
  @DF-UKS Final Energy:  -503.54928022146152
    Total Energy =                       -503.5492802214614585
  @DF-UKS Final Energy:  -503.55043047479131
    Total Energy =                       -503.5504304747913125
  @DF-UKS Final Energy:  -503.55043661817615
    Total Energy =                       -503.5504366181761498
  @DF-UKS Final Energy:  -503.55044272559883
    Total Energy =                       -503.5504427255988276
  @DF-UKS Final Energy:  -503.55112431913847
    Total Energy =                       -503.5511243191384096
  @DF-UKS Final Energy:  -503.55112685635623
    Total Energy =                       -503.5511268563561771
  @DF-UKS Final Energy:  -503.55112937855813
    Total Energy =                       -503.5511293785581302
  @DF-UKS Final Energy:  -503.55113188952026
    Total Energy =                       -503.5511318895202066
  @DF-UKS Final Energy:  -503.55113438933927
    Total Energy =                       -503.5511343893392677
  @DF-UKS Final Energy:  -503.55113687804601
    Total Energy =                       -503.5511368780460089
  @DF-UKS Final Energy:  -503.55154284632448
    Total Energy =                       -503.5515428463245371
  @DF-UKS Final Energy:  -503.55154385906053
    Total Energy =                       -503.5515438590605299
  @DF-UKS Final Energy:  -503.55154486641175
    Total Energy =                       -503.5515448664117457
  @DF-UKS Final Energy:  -503.55154587060093
    Total Energy =                       -503.5515458706008758
  @DF-UKS Final Energy:  -503.55154687181687
    Total Energy =                       -503.5515468718168108
  @DF-UKS Final Energy:  -503.55154787000919
    Total Energy =                       -503.5515478700092444
  @DF-UKS Final Energy:  -503.55154886505971
    Total Energy =                       -503.5515488650597149
  @DF-UKS Final Energy:  -503.55154985716149
    Total Energy =                       -503.5515498571614330
  @DF-UKS Final Energy:  -503.55155084619827
    Total Energy =                       -503.5515508461982677
  Basis Set: (CC-PVDZ AUX)
    Blend: CC-PVDZ-JKFIT + DEF2-UNIVERSAL-JKFIT
  Basis Set: CC-PVDZ
    Blend: CC-PVDZ
  Basis Set: (CC-PVDZ AUX)
    Blend: CC-PVDZ-JKFIT + DEF2-UNIVERSAL-JKFIT
  @DF-UKS Final Energy:  -503.55179707951027
    Total Energy =                       -503.5517970795103224
  Basis Set: CC-PVDZ
    Blend: CC-PVDZ
  Basis Set: (CC-PVDZ AUX)
    Blend: CC-PVDZ-JKFIT + DEF2-UNIVERSAL-JKFIT
  Charge       = -1
  Multiplicity = 6
  Basis Set: CC-PVDZ
    Blend: CC-PVDZ
  Basis Set: (CC-PVDZ AUX)
    Blend: CC-PVDZ-JKFIT + DEF2-UNIVERSAL-JKFIT

    Orbital Energies [Eh]
    ---------------------

    Alpha Occupied:

       1A1   -77.034944     2A1   -38.341788     3A1    -6.503033
       1B2    -4.666463     1B1    -4.666445     4A1    -4.666432
       5A1    -2.086610     6A1    -1.017958     2B2    -1.017936
       2B1    -1.016775     7A1    -0.513735     3B2    -0.174884
       3B1    -0.174518     8A1    -0.173788     9A1    -0.000770
       4B1     0.053844

    Alpha Virtual:

       4B2     0.088357    10A1     0.089633    11A1     0.158691
       5B1     0.185235     5B2     0.192699    12A1     0.193391
       1A2     0.287778     6B1     0.287793    13A1     0.288295
      14A1     0.291106     6B2     0.292470    15A1     0.431337
       7B2     0.483668     7B1     0.484226    16A1     0.507307
      17A1     0.514411     2A2     0.514416     8B2     0.515232
       8B1     0.515433    18A1     0.520309

    Beta Occupied:

       1A1   -77.022707     2A1   -38.340399     3A1    -6.490086
       1B2    -4.647363     1B1    -4.647308     4A1    -4.647286
       5A1    -2.083916     6A1    -1.016309     2B2    -1.016286
       2B1    -1.014473     7A1    -0.396988

    Beta Virtual:

       3B2    -0.028194     8A1    -0.027891     3B1    -0.027698
       9A1     0.067119     4B2     0.114233    10A1     0.114342
       4B1     0.118076    11A1     0.181991     5B2     0.212107
      12A1     0.212528     5B1     0.220259    13A1     0.315699
       6B2     0.317100     1A2     0.325688     6B1     0.326127
      14A1     0.329078    15A1     0.475591     7B2     0.533296
       7B1     0.533889    16A1     0.559111    17A1     0.611406
       2A2     0.611415     8B2     0.612071     8B1     0.612353
      18A1     0.613345

    Final Occupation by Irrep:
             A1    A2    B1    B2
    DOCC [     7,    0,    2,    2 ]
    SOCC [     2,    0,    2,    1 ]
    NA   [     9,    0,    4,    3 ]
    NB   [     7,    0,    2,    2 ]

  @DF-UKS Final Energy:  -503.55179747370460

   => Energetics <=

    Nuclear Repulsion Energy =             15.1168036147321061
    One-Electron Energy =                -732.3473555433595266
    Two-Electron Energy =                 244.0636601596007438
    DFT Exchange-Correlation Energy =     -30.3849057046779478
    Empirical Dispersion Energy =           0.0000000000000000
    VV10 Nonlocal Energy =                  0.0000000000000000
    Total Energy =                       -503.5517974737045961

  UHF NO Occupations:
  HONO-2 :    8 A1 1.0000000
  HONO-1 :    3 B2 1.0000000
  HONO-0 :    9 A1 1.0000000
  LUNO+0 :   10 A1 0.0001158
  LUNO+1 :    4 B2 0.0000004
  LUNO+2 :   11 A1 0.0000004
  LUNO+3 :    5 B1 0.0000003

Computation Completed

Properties will be evaluated at   0.000000,   0.000000,   0.000000 [a0]

Properties computed using the SCF density matrix

 Multipole Moments:

 ------------------------------------------------------------------------------------
     Multipole            Electronic (a.u.)      Nuclear  (a.u.)        Total (a.u.)
 ------------------------------------------------------------------------------------

 L = 1.  Multiply by 2.5417464519 to convert [e a0] to [Debye]
 Dipole X            :          0.0000000            0.0000000            0.0000000
 Dipole Y            :          0.0000000            0.0000000            0.0000000
 Dipole Z            :         -5.4155110           -0.8364031           -6.2519141
 Magnitude           :                                                    6.2519141

 ------------------------------------------------------------------------------------

*** tstop() called on Joses-MacBook-Pro-2.local at Thu Jul 17 11:14:24 2025
Module time:
	user time   =       3.44 seconds =       0.06 minutes
	system time =       3.48 seconds =       0.06 minutes
	total time  =          1 seconds =       0.02 minutes
Total time:
	user time   =     481.16 seconds =       8.02 minutes
	system time =     256.13 seconds =       4.27 minutes
	total time  =         74 seconds =       1.23 minutes

*** tstart() called on Joses-MacBook-Pro-2.local
*** at Thu Jul 17 11:14:24 2025

         ------------------------------------------------------------
                                   SCF GRAD
                          Rob Parrish, Justin Turney,
                       Andy Simmonett, and Alex Sokolov
         ------------------------------------------------------------

  ==> Geometry <==

    Molecular point group: c2v
    Full point group: C_inf_v

    Geometry (in Angstrom), charge = -1, multiplicity = 6:

       Center              X                  Y                   Z               Mass
    ------------   -----------------  -----------------  -----------------  -----------------
         NA           0.000000000000     0.000000000000     3.315268455555    22.989769282000
         P            0.000000000000     0.000000000000    -2.460703898512    30.973761998420

  Nuclear repulsion =   15.116803614732106

  ==> Basis Set <==

  Basis Set: CC-PVDZ
    Blend: CC-PVDZ
    Number of shells: 16
    Number of basis functions: 36
    Number of Cartesian functions: 38
    Spherical Harmonics?: true
    Max angular momentum: 2

  ==> DFJKGrad: Density-Fitted SCF Gradients <==

    Gradient:                    1
    J tasked:                  Yes
    K tasked:                  Yes
    wK tasked:                  No
    OpenMP threads:              1
    Integrals threads:           1
    Memory [MiB]:              375
    Schwarz Cutoff:          1E-12
    Fitting Condition:       1E-10

   => Auxiliary Basis Set <=

  Basis Set: (CC-PVDZ AUX)
    Blend: CC-PVDZ-JKFIT + DEF2-UNIVERSAL-JKFIT
    Number of shells: 70
    Number of basis functions: 224
    Number of Cartesian functions: 267
    Spherical Harmonics?: true
    Max angular momentum: 4

  ==> DFT Potential <==

   => LibXC <=

    Version 6.2.2
    S. Lehtola, C. Steigemann, M. J.T. Oliveira, and M. A.L. Marques.,  SoftwareX 7, 1â€“5 (2018) (10.1016/j.softx.2017.11.002)

   => Composite Functional: B3LYP <=

    B3LYP Hyb-GGA Exchange-Correlation Functional

    P. J. Stephens, F. J. Devlin, C. F. Chabalowski, and M. J. Frisch.,  J. Phys. Chem. 98, 11623 (1994) (10.1021/j100096a001)

    Deriv               =              1
    GGA                 =           TRUE
    Meta                =          FALSE

    Exchange Hybrid     =           TRUE
    MP2 Hybrid          =          FALSE

   => Exchange Functionals <=

    0.0800   Slater exchange
    0.7200         Becke 88

   => Exact (HF) Exchange <=

    0.2000               HF

   => Correlation Functionals <=

    0.1900   Vosko, Wilk & Nusair (VWN5_RPA)
    0.8100   Lee, Yang & Parr

   => LibXC Density Thresholds  <==

    XC_HYB_GGA_XC_B3LYP:  1.00E-15

   => Molecular Quadrature <=

    Radial Scheme          =       TREUTLER
    Pruning Scheme         =           NONE
    Nuclear Scheme         =       TREUTLER

    Blocking Scheme        =         OCTREE
    BS radius alpha        =              1
    Pruning alpha          =              1
    Radial Points          =             75
    Spherical Points       =            302
    Total Points           =          43924
    Total Blocks           =            466
    Max Points             =            254
    Max Functions          =             36
    Weights Tolerance      =       1.00E-15

  -Total Gradient:
     Atom            X                  Y                   Z
    ------   -----------------  -----------------  -----------------
       1        0.000000000000     0.000000000000    -0.000268899710
       2        0.000000000000     0.000000000000     0.000263217594

*** tstop() called on Joses-MacBook-Pro-2.local at Thu Jul 17 11:14:24 2025
Module time:
	user time   =       1.12 seconds =       0.02 minutes
	system time =       2.91 seconds =       0.05 minutes
	total time  =          0 seconds =       0.00 minutes
Total time:
	user time   =     482.29 seconds =       8.04 minutes
	system time =     259.04 seconds =       4.32 minutes
	total time  =         74 seconds =       1.23 minutes

    			-----------------------------------------

    			 OPTKING 3.0: for geometry optimizations

    			     By R.A. King, Bethel University

    			        with contributions from

    			    A.V. Copan, J. Cayton, A. Heide

    			-----------------------------------------

	                            ===> Fragment 1 <==

	 Z (Atomic Numbers)          Masses                          Geom
	      11.000000            22.989769          0.00000000  0.00000000  6.26494941
	      15.000000            30.973762          0.00000000  0.00000000 -4.65005644

	 - Coordinate -           - BOHR/RAD -       - ANG/DEG -
	 R(1,2)           =        10.915006           5.775972

	        --- Internal Coordinate Step in ANG or DEG, aJ/ANG or AJ/DEG ---
	-------------------------------------------------------------------------------
	           Coordinate      Previous         Force          Change          New
	           ----------      --------        ------          ------        ------
	               R(1,2)       5.77597        0.00219        0.00077       5.77675
	-------------------------------------------------------------------------------

	                                 ==> Convergence Check <==

	Measures of convergence in internal coordinates in au.

	Criteria marked as inactive (o), active & met (*), and active & unmet ( ).

	----------------------------------------------------------------------------------------------
	   Step    Total Energy     Delta E     Max Force     RMS Force      Max Disp      RMS Disp
	----------------------------------------------------------------------------------------------
	  Convergence Criteria     1.00e-06 *    3.00e-04 *             o    1.20e-03 *             o
	----------------------------------------------------------------------------------------------
	    41    -503.55179747   -3.94e-07 *    2.66e-04 *    2.66e-04 o    1.46e-03      1.46e-03 o  ~
	----------------------------------------------------------------------------------------------

Next Geometry in Ang
	Fragment 1 (Ang)

	   Na   0.0000000000   0.0000000000   3.3156552092
	    P   0.0000000000   0.0000000000  -2.4610906522

    Final optimized geometry and variables:
    Molecular point group: c2v
    Full point group: C_inf_v

    Geometry (in Angstrom), charge = -1, multiplicity = 6:

    NA           0.000000000000     0.000000000000     3.315268455555
    P            0.000000000000     0.000000000000    -2.460703898512

    Psi4 stopped on: Thursday, 17 July 2025 11:14AM
    Psi4 wall time for execution: 0:01:14.47

*** Psi4 exiting successfully. Buy a developer a beer!
