                               Psi4 1.9.1 release

  ==> Input File <==

--------------------------------------------------------------------------
molecule {
-1 6
Cl   0.00000        0.60000        0.00000
Cl   0.00000       -0.60000        0.00000
}

set {
basis              cc-pvdz
reference          uks
maxiter            500
geom_maxiter       500
DAMPING_PERCENTAGE 1
guess              SAP
}

optimize('b3lyp')
--------------------------------------------------------------------------

    Molecular point group: d2h
  Charge       = -1
  Multiplicity = 6
  Basis Set: CC-PVDZ
    Blend: CC-PVDZ
  Basis Set: (CC-PVDZ AUX)
    Blend: CC-PVDZ-JKFIT
  @DF-UKS Final Energy:  -918.15821402957840
    Total Energy =                       -918.1582140295784029
 Dipole X            :          0.0000000            0.0000000            0.0000000
 Dipole Y            :          0.0000000            0.0000000            0.0000000
 Dipole Z            :          0.0000000            0.0000000            0.0000000
 Magnitude           :                                                    0.0000000
    Molecular point group: d2h
  Basis Set: CC-PVDZ
    Blend: CC-PVDZ
  Basis Set: (CC-PVDZ AUX)
    Blend: CC-PVDZ-JKFIT
  Basis Set: CC-PVDZ
    Blend: CC-PVDZ
  Basis Set: (CC-PVDZ AUX)
    Blend: CC-PVDZ-JKFIT
  @DF-UKS Final Energy:  -918.19928036566182
    Total Energy =                       -918.1992803656618207
  Basis Set: CC-PVDZ
    Blend: CC-PVDZ
  Basis Set: (CC-PVDZ AUX)
    Blend: CC-PVDZ-JKFIT
  Basis Set: CC-PVDZ
    Blend: CC-PVDZ
  @DF-UKS Final Energy:  -918.27415471074426
    Total Energy =                       -918.2741547107442557
  @DF-UKS Final Energy:  -918.50734620107926
    Total Energy =                       -918.5073462010792582
  @DF-UKS Final Energy:  -918.89737235337464
    Total Energy =                       -918.8973723533746352
  @DF-UKS Final Energy:  -919.01390047774555
    Total Energy =                       -919.0139004777455511
  @DF-UKS Final Energy:  -919.06519308349357
    Total Energy =                       -919.0651930834935683
  @DF-UKS Final Energy:  -919.08940144935696
    Total Energy =                       -919.0894014493570694
  @DF-UKS Final Energy:  -919.09520267025709
    Total Energy =                       -919.0952026702570947
  @DF-UKS Final Energy:  -919.09725729163551
    Total Energy =                       -919.0972572916355148
  @DF-UKS Final Energy:  -919.09777175805573
    Total Energy =                       -919.0977717580556146
  @DF-UKS Final Energy:  -919.09796851880515
    Total Energy =                       -919.0979685188051462
  @DF-UKS Final Energy:  -919.09803713164001
    Total Energy =                       -919.0980371316400124
  @DF-UKS Final Energy:  -919.09805567115347
    Total Energy =                       -919.0980556711534746
  Basis Set: (CC-PVDZ AUX)
    Blend: CC-PVDZ-JKFIT
  Basis Set: CC-PVDZ
    Blend: CC-PVDZ
  Basis Set: (CC-PVDZ AUX)
    Blend: CC-PVDZ-JKFIT
  @DF-UKS Final Energy:  -919.09805980758335
    Total Energy =                       -919.0980598075833541
  Basis Set: CC-PVDZ
    Blend: CC-PVDZ
  Basis Set: (CC-PVDZ AUX)
    Blend: CC-PVDZ-JKFIT
  Charge       = -1
  Multiplicity = 6
  Basis Set: CC-PVDZ
    Blend: CC-PVDZ
  Basis Set: (CC-PVDZ AUX)
    Blend: CC-PVDZ-JKFIT

    Orbital Energies [Eh]
    ---------------------

    Alpha Occupied:

       1Ag  -101.328625     1B2u -101.328625     2Ag    -9.237733
       2B2u   -9.237641     1B1u   -6.999991     1B3g   -6.999941
       1B3u   -6.997813     1B1g   -6.997753     3Ag    -6.994635
       3B2u   -6.993685     4Ag    -0.746029     4B2u   -0.515742
       5Ag    -0.252529     2B1u   -0.210648     2B3u   -0.208041
       2B3g   -0.063466     2B1g   -0.056937     5B2u    0.150382
       6Ag     0.518917     3B3u    0.654964

    Alpha Virtual:

       6B2u    0.695470     3B1u    0.719229     7Ag     0.769101
       4B1u    0.769413     3B1g    0.770739     4B3u    0.771428
       3B3g    0.781024     1B2g    0.867038     8Ag     0.867607
       7B2u    0.978128     1Au     0.978497     8B2u    1.077180
       9Ag     1.183778     4B1g    1.260992     4B3g    1.261283
       9B2u    1.701252

    Beta Occupied:

       1Ag  -101.315026     1B2u -101.315025     2Ag    -9.223716
       2B2u   -9.223631     1B1u   -6.982200     1B3g   -6.982130
       3Ag    -6.977495     3B2u   -6.976674     1B3u   -6.973723
       1B1g   -6.973653     4Ag    -0.650091     4B2u   -0.421547
       5Ag    -0.166586     2B1u   -0.128652     2B3u   -0.108767

    Beta Virtual:

       2B3g    0.073269     2B1g    0.090275     5B2u    0.299453
       6Ag     0.660124     6B2u    0.747151     3B1u    0.766873
       3B3u    0.784591     7Ag     0.816540     4B1u    0.822576
       3B3g    0.829053     4B3u    0.834874     3B1g    0.845147
       1B2g    0.946299     8Ag     0.946475     1Au     1.064210
       7B2u    1.064336     8B2u    1.149405     9Ag     1.256759
       4B3g    1.324223     4B1g    1.338659     9B2u    1.781030

    Final Occupation by Irrep:
             Ag   B1g   B2g   B3g    Au   B1u   B2u   B3u
    DOCC [     5,    1,    0,    1,    0,    2,    4,    2 ]
    SOCC [     1,    1,    0,    1,    0,    0,    1,    1 ]
    NA   [     6,    2,    0,    2,    0,    2,    5,    3 ]
    NB   [     5,    1,    0,    1,    0,    2,    4,    2 ]

  @DF-UKS Final Energy:  -919.09806039493299

   => Energetics <=

    Nuclear Repulsion Energy =             87.7169205099753668
    One-Electron Energy =               -1452.8187385047885982
    Two-Electron Energy =                 491.8274026072664356
    DFT Exchange-Correlation Energy =     -45.8236450073860695
    Empirical Dispersion Energy =           0.0000000000000000
    VV10 Nonlocal Energy =                  0.0000000000000000
    Total Energy =                       -919.0980603949328724

  UHF NO Occupations:
  HONO-2 :    6 Ag 1.0000000
  HONO-1 :    3B3u 1.0000000
  HONO-0 :    2B1g 1.0000000
  LUNO+0 :    3B1u 0.0005263
  LUNO+1 :    7 Ag 0.0002513
  LUNO+2 :    4B3u 0.0001714
  LUNO+3 :    6B2u 0.0000730

Computation Completed

Properties will be evaluated at   0.000000,   0.000000,   0.000000 [a0]

Properties computed using the SCF density matrix

 Multipole Moments:

 ------------------------------------------------------------------------------------
     Multipole            Electronic (a.u.)      Nuclear  (a.u.)        Total (a.u.)
 ------------------------------------------------------------------------------------

 L = 1.  Multiply by 2.5417464519 to convert [e a0] to [Debye]
 Dipole X            :          0.0000000            0.0000000            0.0000000
 Dipole Y            :          0.0000000            0.0000000            0.0000000
 Dipole Z            :          0.0000000            0.0000000            0.0000000
 Magnitude           :                                                    0.0000000

 ------------------------------------------------------------------------------------

*** tstop() called on Joses-MacBook-Pro-2.local at Thu Jul 17 12:10:41 2025
Module time:
	user time   =       7.09 seconds =       0.12 minutes
	system time =       1.58 seconds =       0.03 minutes
	total time  =          1 seconds =       0.02 minutes
Total time:
	user time   =     182.99 seconds =       3.05 minutes
	system time =      43.07 seconds =       0.72 minutes
	total time  =         21 seconds =       0.35 minutes

*** tstart() called on Joses-MacBook-Pro-2.local
*** at Thu Jul 17 12:10:41 2025

         ------------------------------------------------------------
                                   SCF GRAD
                          Rob Parrish, Justin Turney,
                       Andy Simmonett, and Alex Sokolov
         ------------------------------------------------------------

  ==> Geometry <==

    Molecular point group: d2h
    Full point group: D_inf_h

    Geometry (in Angstrom), charge = -1, multiplicity = 6:

       Center              X                  Y                   Z               Mass
    ------------   -----------------  -----------------  -----------------  -----------------
         CL          -0.000000000000     0.871737248609     0.000000000000    34.968852682000
         CL           0.000000000000    -0.871737248609     0.000000000000    34.968852682000

  Nuclear repulsion =   87.716920509975367

  ==> Basis Set <==

  Basis Set: CC-PVDZ
    Blend: CC-PVDZ
    Number of shells: 16
    Number of basis functions: 36
    Number of Cartesian functions: 38
    Spherical Harmonics?: true
    Max angular momentum: 2

  ==> DFJKGrad: Density-Fitted SCF Gradients <==

    Gradient:                    1
    J tasked:                  Yes
    K tasked:                  Yes
    wK tasked:                  No
    OpenMP threads:              1
    Integrals threads:           1
    Memory [MiB]:              375
    Schwarz Cutoff:          1E-12
    Fitting Condition:       1E-10

   => Auxiliary Basis Set <=

  Basis Set: (CC-PVDZ AUX)
    Blend: CC-PVDZ-JKFIT
    Number of shells: 72
    Number of basis functions: 224
    Number of Cartesian functions: 260
    Spherical Harmonics?: true
    Max angular momentum: 3

  ==> DFT Potential <==

   => LibXC <=

    Version 6.2.2
    S. Lehtola, C. Steigemann, M. J.T. Oliveira, and M. A.L. Marques.,  SoftwareX 7, 1â€“5 (2018) (10.1016/j.softx.2017.11.002)

   => Composite Functional: B3LYP <=

    B3LYP Hyb-GGA Exchange-Correlation Functional

    P. J. Stephens, F. J. Devlin, C. F. Chabalowski, and M. J. Frisch.,  J. Phys. Chem. 98, 11623 (1994) (10.1021/j100096a001)

    Deriv               =              1
    GGA                 =           TRUE
    Meta                =          FALSE

    Exchange Hybrid     =           TRUE
    MP2 Hybrid          =          FALSE

   => Exchange Functionals <=

    0.0800   Slater exchange
    0.7200         Becke 88

   => Exact (HF) Exchange <=

    0.2000               HF

   => Correlation Functionals <=

    0.1900   Vosko, Wilk & Nusair (VWN5_RPA)
    0.8100   Lee, Yang & Parr

   => LibXC Density Thresholds  <==

    XC_HYB_GGA_XC_B3LYP:  1.00E-15

   => Molecular Quadrature <=

    Radial Scheme          =       TREUTLER
    Pruning Scheme         =           NONE
    Nuclear Scheme         =       TREUTLER

    Blocking Scheme        =         OCTREE
    BS radius alpha        =              1
    Pruning alpha          =              1
    Radial Points          =             75
    Spherical Points       =            302
    Total Points           =          39618
    Total Blocks           =            370
    Max Points             =            247
    Max Functions          =             36
    Weights Tolerance      =       1.00E-15

  -Total Gradient:
     Atom            X                  Y                   Z
    ------   -----------------  -----------------  -----------------
       1        0.000000000000    -0.000178853792     0.000000000000
       2       -0.000000000000     0.000178853792     0.000000000000

*** tstop() called on Joses-MacBook-Pro-2.local at Thu Jul 17 12:10:42 2025
Module time:
	user time   =       1.99 seconds =       0.03 minutes
	system time =       1.83 seconds =       0.03 minutes
	total time  =          1 seconds =       0.02 minutes
Total time:
	user time   =     184.98 seconds =       3.08 minutes
	system time =      44.90 seconds =       0.75 minutes
	total time  =         22 seconds =       0.37 minutes

    			-----------------------------------------

    			 OPTKING 3.0: for geometry optimizations

    			     By R.A. King, Bethel University

    			        with contributions from

    			    A.V. Copan, J. Cayton, A. Heide

    			-----------------------------------------

	                            ===> Fragment 1 <==

	 Z (Atomic Numbers)          Masses                          Geom
	      17.000000            34.968853         -0.00000000  1.64734465  0.00000000
	      17.000000            34.968853          0.00000000 -1.64734465  0.00000000

	 - Coordinate -           - BOHR/RAD -       - ANG/DEG -
	 R(1,2)           =         3.294689           1.743474

	        --- Internal Coordinate Step in ANG or DEG, aJ/ANG or AJ/DEG ---
	-------------------------------------------------------------------------------
	           Coordinate      Previous         Force          Change          New
	           ----------      --------        ------          ------        ------
	               R(1,2)       1.74347        0.00147        0.00027       1.74375
	-------------------------------------------------------------------------------

	                                 ==> Convergence Check <==

	Measures of convergence in internal coordinates in au.

	Criteria marked as inactive (o), active & met (*), and active & unmet ( ).

	----------------------------------------------------------------------------------------------
	   Step    Total Energy     Delta E     Max Force     RMS Force      Max Disp      RMS Disp
	----------------------------------------------------------------------------------------------
	  Convergence Criteria     1.00e-06 *    3.00e-04 *             o    1.20e-03 *             o
	----------------------------------------------------------------------------------------------
	    16    -919.09806039   -5.87e-07 *    1.79e-04 *    1.79e-04 o    5.18e-04 *    5.18e-04 o  ~
	----------------------------------------------------------------------------------------------

Next Geometry in Ang
	Fragment 1 (Ang)

	   Cl  -0.0000000000   0.8718741801   0.0000000000
	   Cl   0.0000000000  -0.8718741801   0.0000000000

    Final optimized geometry and variables:
    Molecular point group: d2h
    Full point group: D_inf_h

    Geometry (in Angstrom), charge = -1, multiplicity = 6:

    CL          -0.000000000000     0.871737248609     0.000000000000
    CL           0.000000000000    -0.871737248609     0.000000000000

    Psi4 stopped on: Thursday, 17 July 2025 12:10PM
    Psi4 wall time for execution: 0:00:22.28

*** Psi4 exiting successfully. Buy a developer a beer!
