                               Psi4 1.9.1 release

  ==> Input File <==

--------------------------------------------------------------------------
molecule {
-1 6
H   0.00000        0.60000        0.00000
B   0.00000       -0.60000        0.00000
}

set {
basis              cc-pvdz
reference          uks
maxiter            500
geom_maxiter       500
DAMPING_PERCENTAGE 1
guess              SAP
}

optimize('b3lyp')
--------------------------------------------------------------------------

    Molecular point group: c2v
  Charge       = -1
  Multiplicity = 6
  Basis Set: CC-PVDZ
    Blend: CC-PVDZ
  Basis Set: (CC-PVDZ AUX)
    Blend: CC-PVDZ-JKFIT
  @DF-UKS Final Energy:   -24.83578151679355
    Total Energy =                        -24.8357815167935421
 Dipole X            :          0.0000000            0.0000000            0.0000000
 Dipole Y            :          0.0000000            0.0000000            0.0000000
 Dipole Z            :         -0.9716785            1.1265923            0.1549138
 Magnitude           :                                                    0.1549138
    Molecular point group: c2v
  Basis Set: CC-PVDZ
    Blend: CC-PVDZ
  Basis Set: (CC-PVDZ AUX)
    Blend: CC-PVDZ-JKFIT
  Basis Set: CC-PVDZ
    Blend: CC-PVDZ
  Basis Set: (CC-PVDZ AUX)
    Blend: CC-PVDZ-JKFIT
  @DF-UKS Final Energy:   -24.91999789600990
    Total Energy =                        -24.9199978960098996
  Basis Set: CC-PVDZ
    Blend: CC-PVDZ
  Basis Set: (CC-PVDZ AUX)
    Blend: CC-PVDZ-JKFIT
  Basis Set: CC-PVDZ
    Blend: CC-PVDZ
  @DF-UKS Final Energy:   -24.96991826048218
    Total Energy =                        -24.9699182604821814
  @DF-UKS Final Energy:   -24.99652588700142
    Total Energy =                        -24.9965258870014218
  @DF-UKS Final Energy:   -25.01667233997067
    Total Energy =                        -25.0166723399706683
  @DF-UKS Final Energy:   -25.02289130423686
    Total Energy =                        -25.0228913042368575
  @DF-UKS Final Energy:   -25.03165302302088
    Total Energy =                        -25.0316530230208798
  @DF-UKS Final Energy:   -25.03325662989258
    Total Energy =                        -25.0332566298925840
  @DF-UKS Final Energy:   -25.03761915519594
    Total Energy =                        -25.0376191551959373
  @DF-UKS Final Energy:   -25.03807424575623
    Total Energy =                        -25.0380742457562349
  @DF-UKS Final Energy:   -25.04030688810339
    Total Energy =                        -25.0403068881033946
  @DF-UKS Final Energy:   -25.04044253822941
    Total Energy =                        -25.0404425382294100
  @DF-UKS Final Energy:   -25.04159590410968
    Total Energy =                        -25.0415959041096770
  @DF-UKS Final Energy:   -25.04163631621309
    Total Energy =                        -25.0416363162130864
  @DF-UKS Final Energy:   -25.04221560968374
    Total Energy =                        -25.0422156096837369
  @DF-UKS Final Energy:   -25.04222702603971
    Total Energy =                        -25.0422270260397148
  @DF-UKS Final Energy:   -25.04250352790522
    Total Energy =                        -25.0425035279052217
  @DF-UKS Final Energy:   -25.04250651092706
    Total Energy =                        -25.0425065109270619
  @DF-UKS Final Energy:   -25.04250942917164
    Total Energy =                        -25.0425094291716377
  Basis Set: (CC-PVDZ AUX)
    Blend: CC-PVDZ-JKFIT
  Basis Set: CC-PVDZ
    Blend: CC-PVDZ
  Basis Set: (CC-PVDZ AUX)
    Blend: CC-PVDZ-JKFIT
  @DF-UKS Final Energy:   -25.04263401896192
    Total Energy =                        -25.0426340189619161
  Basis Set: CC-PVDZ
    Blend: CC-PVDZ
  Basis Set: (CC-PVDZ AUX)
    Blend: CC-PVDZ-JKFIT
  Charge       = -1
  Multiplicity = 6
  Basis Set: CC-PVDZ
    Blend: CC-PVDZ
  Basis Set: (CC-PVDZ AUX)
    Blend: CC-PVDZ-JKFIT

    Orbital Energies [Eh]
    ---------------------

    Alpha Occupied:

       1A1    -6.526340     2A1    -0.207037     3A1    -0.137878
       1B2     0.091729     1B1     0.091729     4A1     0.091785

    Alpha Virtual:

       5A1     0.506239     2B2     0.531800     2B1     0.531800
       6A1     0.556384     7A1     0.596421     3B2     0.955540
       3B1     0.955540     1A2     0.955543     8A1     0.955543
       9A1     0.955621     4B1     1.321972     4B2     1.321972
      10A1     1.323678

    Beta Occupied:

       1A1    -6.488539

    Beta Virtual:

       2A1     0.083526     3A1     0.127737     1B2     0.299203
       1B1     0.299203     4A1     0.299362     5A1     0.637022
       2B2     0.640957     2B1     0.640957     6A1     0.706240
       7A1     0.754398     3B2     1.130842     3B1     1.130842
       8A1     1.130869     1A2     1.130870     9A1     1.130910
       4B2     1.568738     4B1     1.568740    10A1     1.571357

    Final Occupation by Irrep:
             A1    A2    B1    B2
    DOCC [     1,    0,    0,    0 ]
    SOCC [     3,    0,    1,    1 ]
    NA   [     4,    0,    1,    1 ]
    NB   [     1,    0,    0,    0 ]

  @DF-UKS Final Energy:   -25.04263473167897

   => Energetics <=

    Nuclear Repulsion Energy =              0.5610464840625348
    One-Electron Energy =                 -35.5198029789601435
    Two-Electron Energy =                  13.5301981964629867
    DFT Exchange-Correlation Energy =      -3.6140764332443522
    Empirical Dispersion Energy =           0.0000000000000000
    VV10 Nonlocal Energy =                  0.0000000000000000
    Total Energy =                        -25.0426347316789730

  UHF NO Occupations:
  HONO-2 :    1 B2 1.0000000
  HONO-1 :    3 A1 1.0000000
  HONO-0 :    4 A1 1.0000000
  LUNO+0 :    5 A1 0.0000005
  LUNO+1 :    6 A1 0.0000000
  LUNO+2 :    7 A1 0.0000000
  LUNO+3 :    2 B1 0.0000000

Computation Completed

Properties will be evaluated at   0.000000,   0.000000,   0.000000 [a0]

Properties computed using the SCF density matrix

 Multipole Moments:

 ------------------------------------------------------------------------------------
     Multipole            Electronic (a.u.)      Nuclear  (a.u.)        Total (a.u.)
 ------------------------------------------------------------------------------------

 L = 1.  Multiply by 2.5417464519 to convert [e a0] to [Debye]
 Dipole X            :          0.0000000            0.0000000            0.0000000
 Dipole Y            :          0.0000000            0.0000000            0.0000000
 Dipole Z            :         -3.6933731            4.4274924            0.7341193
 Magnitude           :                                                    0.7341193

 ------------------------------------------------------------------------------------

*** tstop() called on Joses-MacBook-Pro-2.local at Thu Jul 17 09:11:15 2025
Module time:
	user time   =       0.44 seconds =       0.01 minutes
	system time =       2.23 seconds =       0.04 minutes
	total time  =          0 seconds =       0.00 minutes
Total time:
	user time   =      23.74 seconds =       0.40 minutes
	system time =      82.19 seconds =       1.37 minutes
	total time  =         11 seconds =       0.18 minutes

*** tstart() called on Joses-MacBook-Pro-2.local
*** at Thu Jul 17 09:11:15 2025

         ------------------------------------------------------------
                                   SCF GRAD
                          Rob Parrish, Justin Turney,
                       Andy Simmonett, and Alex Sokolov
         ------------------------------------------------------------

  ==> Geometry <==

    Molecular point group: c2v
    Full point group: C_inf_v

    Geometry (in Angstrom), charge = -1, multiplicity = 6:

       Center              X                  Y                   Z               Mass
    ------------   -----------------  -----------------  -----------------  -----------------
         H            0.000000000000     0.000000000000     4.320474400339     1.007825032230
         B            0.000000000000     0.000000000000    -0.395509263245    11.009305360000

  Nuclear repulsion =    0.561046484062535

  ==> Basis Set <==

  Basis Set: CC-PVDZ
    Blend: CC-PVDZ
    Number of shells: 9
    Number of basis functions: 19
    Number of Cartesian functions: 20
    Spherical Harmonics?: true
    Max angular momentum: 2

  ==> DFJKGrad: Density-Fitted SCF Gradients <==

    Gradient:                    1
    J tasked:                  Yes
    K tasked:                  Yes
    wK tasked:                  No
    OpenMP threads:              1
    Integrals threads:           1
    Memory [MiB]:              375
    Schwarz Cutoff:          1E-12
    Fitting Condition:       1E-10

   => Auxiliary Basis Set <=

  Basis Set: (CC-PVDZ AUX)
    Blend: CC-PVDZ-JKFIT
    Number of shells: 33
    Number of basis functions: 93
    Number of Cartesian functions: 106
    Spherical Harmonics?: true
    Max angular momentum: 3

  ==> DFT Potential <==

   => LibXC <=

    Version 6.2.2
    S. Lehtola, C. Steigemann, M. J.T. Oliveira, and M. A.L. Marques.,  SoftwareX 7, 1â€“5 (2018) (10.1016/j.softx.2017.11.002)

   => Composite Functional: B3LYP <=

    B3LYP Hyb-GGA Exchange-Correlation Functional

    P. J. Stephens, F. J. Devlin, C. F. Chabalowski, and M. J. Frisch.,  J. Phys. Chem. 98, 11623 (1994) (10.1021/j100096a001)

    Deriv               =              1
    GGA                 =           TRUE
    Meta                =          FALSE

    Exchange Hybrid     =           TRUE
    MP2 Hybrid          =          FALSE

   => Exchange Functionals <=

    0.0800   Slater exchange
    0.7200         Becke 88

   => Exact (HF) Exchange <=

    0.2000               HF

   => Correlation Functionals <=

    0.1900   Vosko, Wilk & Nusair (VWN5_RPA)
    0.8100   Lee, Yang & Parr

   => LibXC Density Thresholds  <==

    XC_HYB_GGA_XC_B3LYP:  1.00E-15

   => Molecular Quadrature <=

    Radial Scheme          =       TREUTLER
    Pruning Scheme         =           NONE
    Nuclear Scheme         =       TREUTLER

    Blocking Scheme        =         OCTREE
    BS radius alpha        =              1
    Pruning alpha          =              1
    Radial Points          =             75
    Spherical Points       =            302
    Total Points           =          43689
    Total Blocks           =            432
    Max Points             =            254
    Max Functions          =             19
    Weights Tolerance      =       1.00E-15

  -Total Gradient:
     Atom            X                  Y                   Z
    ------   -----------------  -----------------  -----------------
       1       -0.000000000000     0.000000000000    -0.000154748467
       2        0.000000000000     0.000000000000     0.000155150689

*** tstop() called on Joses-MacBook-Pro-2.local at Thu Jul 17 09:11:15 2025
Module time:
	user time   =       0.18 seconds =       0.00 minutes
	system time =       0.96 seconds =       0.02 minutes
	total time  =          0 seconds =       0.00 minutes
Total time:
	user time   =      23.93 seconds =       0.40 minutes
	system time =      83.16 seconds =       1.39 minutes
	total time  =         11 seconds =       0.18 minutes

    			-----------------------------------------

    			 OPTKING 3.0: for geometry optimizations

    			     By R.A. King, Bethel University

    			        with contributions from

    			    A.V. Copan, J. Cayton, A. Heide

    			-----------------------------------------

	                            ===> Fragment 1 <==

	 Z (Atomic Numbers)          Masses                          Geom
	       1.000000             1.007825          0.00000000  0.00000000  8.16451335
	       5.000000            11.009305          0.00000000  0.00000000 -0.74740419

	 - Coordinate -           - BOHR/RAD -       - ANG/DEG -
	 R(1,2)           =         8.911918           4.715984

	        --- Internal Coordinate Step in ANG or DEG, aJ/ANG or AJ/DEG ---
	-------------------------------------------------------------------------------
	           Coordinate      Previous         Force          Change          New
	           ----------      --------        ------          ------        ------
	               R(1,2)       4.71598        0.00128        0.00245       4.71843
	-------------------------------------------------------------------------------

	                                 ==> Convergence Check <==

	Measures of convergence in internal coordinates in au.

	Criteria marked as inactive (o), active & met (*), and active & unmet ( ).

	----------------------------------------------------------------------------------------------
	   Step    Total Energy     Delta E     Max Force     RMS Force      Max Disp      RMS Disp
	----------------------------------------------------------------------------------------------
	  Convergence Criteria     1.00e-06 *    3.00e-04 *             o    1.20e-03 *             o
	----------------------------------------------------------------------------------------------
	    21     -25.04263473   -7.13e-07 *    1.55e-04 *    1.55e-04 o    4.63e-03      4.63e-03 o  ~
	----------------------------------------------------------------------------------------------

Next Geometry in Ang
	Fragment 1 (Ang)

	    H   0.0000000000   0.0000000000   4.3216998072
	    B   0.0000000000   0.0000000000  -0.3967346701

    Final optimized geometry and variables:
    Molecular point group: c2v
    Full point group: C_inf_v

    Geometry (in Angstrom), charge = -1, multiplicity = 6:

    H            0.000000000000     0.000000000000     4.320474400339
    B            0.000000000000     0.000000000000    -0.395509263245

    Psi4 stopped on: Thursday, 17 July 2025 09:11AM
    Psi4 wall time for execution: 0:00:11.78

*** Psi4 exiting successfully. Buy a developer a beer!
