                               Psi4 1.9.1 release

  ==> Input File <==

--------------------------------------------------------------------------
molecule {
-1 6
Ne   0.00000        0.60000        0.00000
Ar   0.00000       -0.60000        0.00000
}

set {
basis              cc-pvdz
reference          uks
maxiter            500
geom_maxiter       500
DAMPING_PERCENTAGE 1
guess              SAP
}

optimize('b3lyp')
--------------------------------------------------------------------------

    Molecular point group: c2v
  Charge       = -1
  Multiplicity = 6
  Basis Set: CC-PVDZ
    Blend: CC-PVDZ
  Basis Set: (CC-PVDZ AUX)
    Blend: CC-PVDZ-JKFIT
  @DF-UKS Final Energy:  -653.45630273695167
    Total Energy =                       -653.4563027369516703
 Dipole X            :          0.0000000            0.0000000            0.0000000
 Dipole Y            :          0.0000000            0.0000000            0.0000000
 Dipole Z            :          0.5153404            1.5038390            2.0191794
 Magnitude           :                                                    2.0191794
    Molecular point group: c2v
  Basis Set: CC-PVDZ
    Blend: CC-PVDZ
  Basis Set: (CC-PVDZ AUX)
    Blend: CC-PVDZ-JKFIT
  Basis Set: CC-PVDZ
    Blend: CC-PVDZ
  Basis Set: (CC-PVDZ AUX)
    Blend: CC-PVDZ-JKFIT
  @DF-UKS Final Energy:  -653.79456665979012
    Total Energy =                       -653.7945666597901209
  Basis Set: CC-PVDZ
    Blend: CC-PVDZ
  Basis Set: (CC-PVDZ AUX)
    Blend: CC-PVDZ-JKFIT
  Basis Set: CC-PVDZ
    Blend: CC-PVDZ
  @DF-UKS Final Energy:  -653.94309964023535
    Total Energy =                       -653.9430996402353458
  @DF-UKS Final Energy:  -654.01217235685658
    Total Energy =                       -654.0121723568564676
  @DF-UKS Final Energy:  -654.04111909749588
    Total Energy =                       -654.0411190974958799
  @DF-UKS Final Energy:  -654.04917726052599
    Total Energy =                       -654.0491772605259939
  @DF-UKS Final Energy:  -654.05294667900205
    Total Energy =                       -654.0529466790020479
  @DF-UKS Final Energy:  -654.05423801362508
    Total Energy =                       -654.0542380136250813
  @DF-UKS Final Energy:  -654.05508329584188
    Total Energy =                       -654.0550832958417686
  @DF-UKS Final Energy:  -654.05552987642523
    Total Energy =                       -654.0555298764253394
  @DF-UKS Final Energy:  -654.05602104752245
    Total Energy =                       -654.0560210475224494
  @DF-UKS Final Energy:  -654.05729411581240
    Total Energy =                       -654.0572941158123967
  @DF-UKS Final Energy:  -654.09119564989237
    Total Energy =                       -654.0911956498923701
  @DF-UKS Final Energy:  -654.09389658812358
    Total Energy =                       -654.0938965881235845
  @DF-UKS Final Energy:  -654.10568771685780
    Total Energy =                       -654.1056877168578012
  @DF-UKS Final Energy:  -654.10592276807472
    Total Energy =                       -654.1059227680748336
  @DF-UKS Final Energy:  -654.10734960223749
    Total Energy =                       -654.1073496022374911
  @DF-UKS Final Energy:  -654.10748500278714
    Total Energy =                       -654.1074850027871435
  @DF-UKS Final Energy:  -654.10750188713610
    Total Energy =                       -654.1075018871362090
  Basis Set: (CC-PVDZ AUX)
    Blend: CC-PVDZ-JKFIT
  Basis Set: CC-PVDZ
    Blend: CC-PVDZ
  Basis Set: (CC-PVDZ AUX)
    Blend: CC-PVDZ-JKFIT
  @DF-UKS Final Energy:  -654.10750442839424
    Total Energy =                       -654.1075044283942361
  Basis Set: CC-PVDZ
    Blend: CC-PVDZ
  Basis Set: (CC-PVDZ AUX)
    Blend: CC-PVDZ-JKFIT
  Charge       = -1
  Multiplicity = 6
  Basis Set: CC-PVDZ
    Blend: CC-PVDZ
  Basis Set: (CC-PVDZ AUX)
    Blend: CC-PVDZ-JKFIT

    Orbital Energies [Eh]
    ---------------------

    Alpha Occupied:

       1A1  -114.735480     2A1   -30.782738     3A1   -10.845104
       4A1    -8.405781     1B2    -8.405744     1B1    -8.378605
       5A1    -1.251053     6A1    -0.801846     2B2    -0.360174
       2B1    -0.360041     7A1    -0.359281     3B2    -0.270759
       8A1    -0.269806     3B1    -0.210665     9A1     0.673390
       4B2     0.675112     4B1     0.711193

    Alpha Virtual:

      10A1     0.883087    11A1     0.981374     5B2     0.981508
       5B1     1.028911     1A2     1.029030    12A1     1.046255
       6B2     1.536789     6B1     1.537085    13A1     1.564972
      14A1     2.007388     2A2     4.905584    15A1     4.905814
       7B2     4.907027     7B1     4.907102    16A1     4.908075

    Beta Occupied:

       1A1  -114.696385     2A1   -30.781677     3A1   -10.808579
       4A1    -8.344407     1B2    -8.344099     1B1    -8.336821
       5A1    -1.249751     6A1    -0.635022     2B2    -0.359525
       2B1    -0.359404     7A1    -0.355896     3B1    -0.126088

    Beta Virtual:

       3B2    -0.028817     8A1    -0.028574     4B1     0.868259
       9A1     0.868836     4B2     0.874570    10A1     1.014008
       5B1     1.128309     1A2     1.128559    11A1     1.132558
      12A1     1.138744     5B2     1.138932     6B2     1.536978
       6B1     1.537266    13A1     1.570259    14A1     2.009770
       2A2     4.905986    15A1     4.906216     7B2     4.908187
       7B1     4.908258    16A1     4.909489

    Final Occupation by Irrep:
             A1    A2    B1    B2
    DOCC [     7,    0,    3,    2 ]
    SOCC [     2,    0,    1,    2 ]
    NA   [     9,    0,    4,    4 ]
    NB   [     7,    0,    3,    2 ]

  @DF-UKS Final Energy:  -654.10750488046028

   => Energetics <=

    Nuclear Repulsion Energy =             30.6411268539135406
    One-Electron Energy =                -976.6176531995940877
    Two-Electron Energy =                 327.1574813689721850
    DFT Exchange-Correlation Energy =     -35.2884599037519706
    Empirical Dispersion Energy =           0.0000000000000000
    VV10 Nonlocal Energy =                  0.0000000000000000
    Total Energy =                       -654.1075048804602829

  UHF NO Occupations:
  HONO-2 :    4 B2 1.0000000
  HONO-1 :    4 B1 1.0000000
  HONO-0 :    9 A1 1.0000000
  LUNO+0 :   10 A1 0.0010818
  LUNO+1 :   11 A1 0.0000022
  LUNO+2 :    5 B1 0.0000002
  LUNO+3 :    5 B2 0.0000001

Computation Completed

Properties will be evaluated at   0.000000,   0.000000,   0.000000 [a0]

Properties computed using the SCF density matrix

 Multipole Moments:

 ------------------------------------------------------------------------------------
     Multipole            Electronic (a.u.)      Nuclear  (a.u.)        Total (a.u.)
 ------------------------------------------------------------------------------------

 L = 1.  Multiply by 2.5417464519 to convert [e a0] to [Debye]
 Dipole X            :          0.0000000            0.0000000            0.0000000
 Dipole Y            :          0.0000000            0.0000000            0.0000000
 Dipole Z            :         -2.0461038            3.8957315            1.8496277
 Magnitude           :                                                    1.8496277

 ------------------------------------------------------------------------------------

*** tstop() called on Joses-MacBook-Pro-2.local at Thu Jul 17 11:05:29 2025
Module time:
	user time   =       2.07 seconds =       0.03 minutes
	system time =       3.21 seconds =       0.05 minutes
	total time  =          0 seconds =       0.00 minutes
Total time:
	user time   =      95.23 seconds =       1.59 minutes
	system time =     110.25 seconds =       1.84 minutes
	total time  =         21 seconds =       0.35 minutes

*** tstart() called on Joses-MacBook-Pro-2.local
*** at Thu Jul 17 11:05:29 2025

         ------------------------------------------------------------
                                   SCF GRAD
                          Rob Parrish, Justin Turney,
                       Andy Simmonett, and Alex Sokolov
         ------------------------------------------------------------

  ==> Geometry <==

    Molecular point group: c2v
    Full point group: C_inf_v

    Geometry (in Angstrom), charge = -1, multiplicity = 6:

       Center              X                  Y                   Z               Mass
    ------------   -----------------  -----------------  -----------------  -----------------
         NE           0.000000000000     0.000000000000     2.072030561793    19.992440176200
         AR           0.000000000000     0.000000000000    -1.036598516202    39.962383123700

  Nuclear repulsion =   30.641126853913541

  ==> Basis Set <==

  Basis Set: CC-PVDZ
    Blend: CC-PVDZ
    Number of shells: 14
    Number of basis functions: 32
    Number of Cartesian functions: 34
    Spherical Harmonics?: true
    Max angular momentum: 2

  ==> DFJKGrad: Density-Fitted SCF Gradients <==

    Gradient:                    1
    J tasked:                  Yes
    K tasked:                  Yes
    wK tasked:                  No
    OpenMP threads:              1
    Integrals threads:           1
    Memory [MiB]:              375
    Schwarz Cutoff:          1E-12
    Fitting Condition:       1E-10

   => Auxiliary Basis Set <=

  Basis Set: (CC-PVDZ AUX)
    Blend: CC-PVDZ-JKFIT
    Number of shells: 60
    Number of basis functions: 182
    Number of Cartesian functions: 211
    Spherical Harmonics?: true
    Max angular momentum: 3

  ==> DFT Potential <==

   => LibXC <=

    Version 6.2.2
    S. Lehtola, C. Steigemann, M. J.T. Oliveira, and M. A.L. Marques.,  SoftwareX 7, 1â€“5 (2018) (10.1016/j.softx.2017.11.002)

   => Composite Functional: B3LYP <=

    B3LYP Hyb-GGA Exchange-Correlation Functional

    P. J. Stephens, F. J. Devlin, C. F. Chabalowski, and M. J. Frisch.,  J. Phys. Chem. 98, 11623 (1994) (10.1021/j100096a001)

    Deriv               =              1
    GGA                 =           TRUE
    Meta                =          FALSE

    Exchange Hybrid     =           TRUE
    MP2 Hybrid          =          FALSE

   => Exchange Functionals <=

    0.0800   Slater exchange
    0.7200         Becke 88

   => Exact (HF) Exchange <=

    0.2000               HF

   => Correlation Functionals <=

    0.1900   Vosko, Wilk & Nusair (VWN5_RPA)
    0.8100   Lee, Yang & Parr

   => LibXC Density Thresholds  <==

    XC_HYB_GGA_XC_B3LYP:  1.00E-15

   => Molecular Quadrature <=

    Radial Scheme          =       TREUTLER
    Pruning Scheme         =           NONE
    Nuclear Scheme         =       TREUTLER

    Blocking Scheme        =         OCTREE
    BS radius alpha        =              1
    Pruning alpha          =              1
    Radial Points          =             75
    Spherical Points       =            302
    Total Points           =          41520
    Total Blocks           =            375
    Max Points             =            255
    Max Functions          =             32
    Weights Tolerance      =       1.00E-15

  -Total Gradient:
     Atom            X                  Y                   Z
    ------   -----------------  -----------------  -----------------
       1       -0.000000000000     0.000000000000    -0.000049923222
       2       -0.000000000000     0.000000000000     0.000036669637

*** tstop() called on Joses-MacBook-Pro-2.local at Thu Jul 17 11:05:29 2025
Module time:
	user time   =       1.48 seconds =       0.02 minutes
	system time =       0.57 seconds =       0.01 minutes
	total time  =          0 seconds =       0.00 minutes
Total time:
	user time   =      96.72 seconds =       1.61 minutes
	system time =     110.82 seconds =       1.85 minutes
	total time  =         21 seconds =       0.35 minutes

    			-----------------------------------------

    			 OPTKING 3.0: for geometry optimizations

    			     By R.A. King, Bethel University

    			        with contributions from

    			    A.V. Copan, J. Cayton, A. Heide

    			-----------------------------------------

	                            ===> Fragment 1 <==

	 Z (Atomic Numbers)          Masses                          Geom
	      10.000000            19.992440          0.00000000  0.00000000  3.91557029
	      18.000000            39.962383          0.00000000  0.00000000 -1.95888730

	 - Coordinate -           - BOHR/RAD -       - ANG/DEG -
	 R(1,2)           =         5.874458           3.108629

	        --- Internal Coordinate Step in ANG or DEG, aJ/ANG or AJ/DEG ---
	-------------------------------------------------------------------------------
	           Coordinate      Previous         Force          Change          New
	           ----------      --------        ------          ------        ------
	               R(1,2)       3.10863        0.00036        0.00119       3.10981
	-------------------------------------------------------------------------------

	                                 ==> Convergence Check <==

	Measures of convergence in internal coordinates in au.

	Criteria marked as inactive (o), active & met (*), and active & unmet ( ).

	----------------------------------------------------------------------------------------------
	   Step    Total Energy     Delta E     Max Force     RMS Force      Max Disp      RMS Disp
	----------------------------------------------------------------------------------------------
	  Convergence Criteria     1.00e-06 *    3.00e-04 *             o    1.20e-03 *             o
	----------------------------------------------------------------------------------------------
	    21    -654.10750488   -4.52e-07 *    4.33e-05 *    4.33e-05 o    2.24e-03      2.24e-03 o  ~
	----------------------------------------------------------------------------------------------

Next Geometry in Ang
	Fragment 1 (Ang)

	   Ne   0.0000000000   0.0000000000   2.0726234016
	   Ar   0.0000000000   0.0000000000  -1.0371913560

    Final optimized geometry and variables:
    Molecular point group: c2v
    Full point group: C_inf_v

    Geometry (in Angstrom), charge = -1, multiplicity = 6:

    NE           0.000000000000     0.000000000000     2.072030561793
    AR           0.000000000000     0.000000000000    -1.036598516202

    Psi4 stopped on: Thursday, 17 July 2025 11:05AM
    Psi4 wall time for execution: 0:00:21.44

*** Psi4 exiting successfully. Buy a developer a beer!
