                               Psi4 1.9.1 release

  ==> Input File <==

--------------------------------------------------------------------------
molecule {
-1 6
B   0.00000        0.60000        0.00000
Na   0.00000       -0.60000        0.00000
}

set {
basis              cc-pvdz
reference          uks
maxiter            500
geom_maxiter       500
DAMPING_PERCENTAGE 1
guess              SAP
}

optimize('b3lyp')
--------------------------------------------------------------------------

    Molecular point group: c2v
  Charge       = -1
  Multiplicity = 6
  Basis Set: CC-PVDZ
    Blend: CC-PVDZ
  Basis Set: (CC-PVDZ AUX)
    Blend: CC-PVDZ-JKFIT + DEF2-UNIVERSAL-JKFIT
  @DF-UKS Final Energy:  -186.44302678438987
    Total Energy =                       -186.4430267843899003
 Dipole X            :          0.0000000            0.0000000            0.0000000
 Dipole Y            :          0.0000000            0.0000000            0.0000000
 Dipole Z            :          1.7141431           -0.4104272            1.3037159
 Magnitude           :                                                    1.3037159
    Molecular point group: c2v
  Basis Set: CC-PVDZ
    Blend: CC-PVDZ
  Basis Set: (CC-PVDZ AUX)
    Blend: CC-PVDZ-JKFIT + DEF2-UNIVERSAL-JKFIT
  Basis Set: CC-PVDZ
    Blend: CC-PVDZ
  Basis Set: (CC-PVDZ AUX)
    Blend: CC-PVDZ-JKFIT + DEF2-UNIVERSAL-JKFIT
  @DF-UKS Final Energy:  -186.51958643831580
    Total Energy =                       -186.5195864383157698
  Basis Set: CC-PVDZ
    Blend: CC-PVDZ
  Basis Set: (CC-PVDZ AUX)
    Blend: CC-PVDZ-JKFIT + DEF2-UNIVERSAL-JKFIT
  Basis Set: CC-PVDZ
    Blend: CC-PVDZ
  @DF-UKS Final Energy:  -186.60890108006782
    Total Energy =                       -186.6089010800678238
  @DF-UKS Final Energy:  -186.74899840112320
    Total Energy =                       -186.7489984011232309
  @DF-UKS Final Energy:  -186.83368400115796
    Total Energy =                       -186.8336840011579625
  @DF-UKS Final Energy:  -186.85134885787087
    Total Energy =                       -186.8513488578708746
  @DF-UKS Final Energy:  -186.86800477201069
    Total Energy =                       -186.8680047720106927
  @DF-UKS Final Energy:  -186.87405243759784
    Total Energy =                       -186.8740524375978396
  @DF-UKS Final Energy:  -186.87641881351959
    Total Energy =                       -186.8764188135195923
  @DF-UKS Final Energy:  -186.87705184464716
    Total Energy =                       -186.8770518446471272
  @DF-UKS Final Energy:  -186.87713295556597
    Total Energy =                       -186.8771329555659975
  @DF-UKS Final Energy:  -186.87714382768269
    Total Energy =                       -186.8771438276826871
  Basis Set: (CC-PVDZ AUX)
    Blend: CC-PVDZ-JKFIT + DEF2-UNIVERSAL-JKFIT
  Basis Set: CC-PVDZ
    Blend: CC-PVDZ
  Basis Set: (CC-PVDZ AUX)
    Blend: CC-PVDZ-JKFIT + DEF2-UNIVERSAL-JKFIT
  @DF-UKS Final Energy:  -186.87714551509956
    Total Energy =                       -186.8771455150995564
  Basis Set: CC-PVDZ
    Blend: CC-PVDZ
  Basis Set: (CC-PVDZ AUX)
    Blend: CC-PVDZ-JKFIT + DEF2-UNIVERSAL-JKFIT
  Charge       = -1
  Multiplicity = 6
  Basis Set: CC-PVDZ
    Blend: CC-PVDZ
  Basis Set: (CC-PVDZ AUX)
    Blend: CC-PVDZ-JKFIT + DEF2-UNIVERSAL-JKFIT

    Orbital Energies [Eh]
    ---------------------

    Alpha Occupied:

       1A1   -38.322582     2A1    -6.622176     3A1    -2.069214
       1B1    -1.000737     1B2    -1.000737     4A1    -0.999561
       5A1    -0.236043     6A1    -0.019448     2B2     0.002442
       2B1     0.002442     7A1     0.030628

    Alpha Virtual:

       3B2     0.103042     3B1     0.103042     8A1     0.122340
       9A1     0.171690     4B2     0.203602     4B1     0.203602
      10A1     0.255937     1A2     0.302842    11A1     0.302842
       5B2     0.328758     5B1     0.328758    12A1     0.396303
       6B2     0.489117     6B1     0.489117    13A1     0.520995
      14A1     0.733721    15A1     0.873586     2A2     0.873591
       7B1     0.932457     7B2     0.932457    16A1     1.069669

    Beta Occupied:

       1A1   -38.320978     2A1    -6.583047     3A1    -2.066297
       1B1    -0.998931     1B2    -0.998931     4A1    -0.996434

    Beta Virtual:

       5A1     0.016141     6A1     0.088238     2B1     0.115490
       2B2     0.115490     7A1     0.153569     8A1     0.171971
       3B2     0.207000     3B1     0.207000     9A1     0.214465
       4B2     0.238269     4B1     0.238269    10A1     0.314935
       1A2     0.325642    11A1     0.325643     5B2     0.377973
       5B1     0.377973    12A1     0.455967     6B2     0.588637
       6B1     0.588637    13A1     0.614921    14A1     0.864382
      15A1     1.047612     2A2     1.047619     7B1     1.100810
       7B2     1.100810    16A1     1.204654

    Final Occupation by Irrep:
             A1    A2    B1    B2
    DOCC [     4,    0,    1,    1 ]
    SOCC [     3,    0,    1,    1 ]
    NA   [     7,    0,    2,    2 ]
    NB   [     4,    0,    1,    1 ]

  @DF-UKS Final Energy:  -186.87714559318468

   => Energetics <=

    Nuclear Repulsion Energy =             10.9378989875296089
    One-Electron Energy =                -284.7097866814912663
    Two-Electron Energy =                 101.8711718110526050
    DFT Exchange-Correlation Energy =     -14.9764297102756299
    Empirical Dispersion Energy =           0.0000000000000000
    VV10 Nonlocal Energy =                  0.0000000000000000
    Total Energy =                       -186.8771455931847072

  UHF NO Occupations:
  HONO-2 :    2 B1 1.0000000
  HONO-1 :    2 B2 1.0000000
  HONO-0 :    7 A1 1.0000000
  LUNO+0 :    8 A1 0.0000017
  LUNO+1 :    9 A1 0.0000005
  LUNO+2 :    3 B2 0.0000002
  LUNO+3 :    3 B1 0.0000002

Computation Completed

Properties will be evaluated at   0.000000,   0.000000,   0.000000 [a0]

Properties computed using the SCF density matrix

 Multipole Moments:

 ------------------------------------------------------------------------------------
     Multipole            Electronic (a.u.)      Nuclear  (a.u.)        Total (a.u.)
 ------------------------------------------------------------------------------------

 L = 1.  Multiply by 2.5417464519 to convert [e a0] to [Debye]
 Dipole X            :          0.0000000            0.0000000            0.0000000
 Dipole Y            :          0.0000000            0.0000000            0.0000000
 Dipole Z            :          1.1240846           -0.9100909            0.2139937
 Magnitude           :                                                    0.2139937

 ------------------------------------------------------------------------------------

*** tstop() called on Joses-MacBook-Pro-2.local at Thu Jul 17 09:52:30 2025
Module time:
	user time   =       3.20 seconds =       0.05 minutes
	system time =       3.13 seconds =       0.05 minutes
	total time  =          0 seconds =       0.00 minutes
Total time:
	user time   =      71.94 seconds =       1.20 minutes
	system time =      98.80 seconds =       1.65 minutes
	total time  =         18 seconds =       0.30 minutes

*** tstart() called on Joses-MacBook-Pro-2.local
*** at Thu Jul 17 09:52:30 2025

         ------------------------------------------------------------
                                   SCF GRAD
                          Rob Parrish, Justin Turney,
                       Andy Simmonett, and Alex Sokolov
         ------------------------------------------------------------

  ==> Geometry <==

    Molecular point group: c2v
    Full point group: C_inf_v

    Geometry (in Angstrom), charge = -1, multiplicity = 6:

       Center              X                  Y                   Z               Mass
    ------------   -----------------  -----------------  -----------------  -----------------
         B            0.000000000000     0.000000000000     1.799274520080    11.009305360000
         NA           0.000000000000     0.000000000000    -0.861633815244    22.989769282000

  Nuclear repulsion =   10.937898987529609

  ==> Basis Set <==

  Basis Set: CC-PVDZ
    Blend: CC-PVDZ
    Number of shells: 14
    Number of basis functions: 32
    Number of Cartesian functions: 34
    Spherical Harmonics?: true
    Max angular momentum: 2

  ==> DFJKGrad: Density-Fitted SCF Gradients <==

    Gradient:                    1
    J tasked:                  Yes
    K tasked:                  Yes
    wK tasked:                  No
    OpenMP threads:              1
    Integrals threads:           1
    Memory [MiB]:              375
    Schwarz Cutoff:          1E-12
    Fitting Condition:       1E-10

   => Auxiliary Basis Set <=

  Basis Set: (CC-PVDZ AUX)
    Blend: CC-PVDZ-JKFIT + DEF2-UNIVERSAL-JKFIT
    Number of shells: 58
    Number of basis functions: 182
    Number of Cartesian functions: 218
    Spherical Harmonics?: true
    Max angular momentum: 4

  ==> DFT Potential <==

   => LibXC <=

    Version 6.2.2
    S. Lehtola, C. Steigemann, M. J.T. Oliveira, and M. A.L. Marques.,  SoftwareX 7, 1â€“5 (2018) (10.1016/j.softx.2017.11.002)

   => Composite Functional: B3LYP <=

    B3LYP Hyb-GGA Exchange-Correlation Functional

    P. J. Stephens, F. J. Devlin, C. F. Chabalowski, and M. J. Frisch.,  J. Phys. Chem. 98, 11623 (1994) (10.1021/j100096a001)

    Deriv               =              1
    GGA                 =           TRUE
    Meta                =          FALSE

    Exchange Hybrid     =           TRUE
    MP2 Hybrid          =          FALSE

   => Exchange Functionals <=

    0.0800   Slater exchange
    0.7200         Becke 88

   => Exact (HF) Exchange <=

    0.2000               HF

   => Correlation Functionals <=

    0.1900   Vosko, Wilk & Nusair (VWN5_RPA)
    0.8100   Lee, Yang & Parr

   => LibXC Density Thresholds  <==

    XC_HYB_GGA_XC_B3LYP:  1.00E-15

   => Molecular Quadrature <=

    Radial Scheme          =       TREUTLER
    Pruning Scheme         =           NONE
    Nuclear Scheme         =       TREUTLER

    Blocking Scheme        =         OCTREE
    BS radius alpha        =              1
    Pruning alpha          =              1
    Radial Points          =             75
    Spherical Points       =            302
    Total Points           =          43845
    Total Blocks           =            440
    Max Points             =            255
    Max Functions          =             32
    Weights Tolerance      =       1.00E-15

  -Total Gradient:
     Atom            X                  Y                   Z
    ------   -----------------  -----------------  -----------------
       1        0.000000000000     0.000000000000    -0.000021211093
       2        0.000000000000     0.000000000000     0.000000652225

*** tstop() called on Joses-MacBook-Pro-2.local at Thu Jul 17 09:52:31 2025
Module time:
	user time   =       1.07 seconds =       0.02 minutes
	system time =       1.99 seconds =       0.03 minutes
	total time  =          1 seconds =       0.02 minutes
Total time:
	user time   =      73.01 seconds =       1.22 minutes
	system time =     100.80 seconds =       1.68 minutes
	total time  =         19 seconds =       0.32 minutes

    			-----------------------------------------

    			 OPTKING 3.0: for geometry optimizations

    			     By R.A. King, Bethel University

    			        with contributions from

    			    A.V. Copan, J. Cayton, A. Heide

    			-----------------------------------------

	                            ===> Fragment 1 <==

	 Z (Atomic Numbers)          Masses                          Geom
	       5.000000            11.009305          0.00000000  0.00000000  3.40013607
	      11.000000            22.989769          0.00000000  0.00000000 -1.62825193

	 - Coordinate -           - BOHR/RAD -       - ANG/DEG -
	 R(1,2)           =         5.028388           2.660908

	        --- Internal Coordinate Step in ANG or DEG, aJ/ANG or AJ/DEG ---
	-------------------------------------------------------------------------------
	           Coordinate      Previous         Force          Change          New
	           ----------      --------        ------          ------        ------
	               R(1,2)       2.66091        0.00009        0.00033       2.66124
	-------------------------------------------------------------------------------

	                                 ==> Convergence Check <==

	Measures of convergence in internal coordinates in au.

	Criteria marked as inactive (o), active & met (*), and active & unmet ( ).

	----------------------------------------------------------------------------------------------
	   Step    Total Energy     Delta E     Max Force     RMS Force      Max Disp      RMS Disp
	----------------------------------------------------------------------------------------------
	  Convergence Criteria     1.00e-06 *    3.00e-04 *             o    1.20e-03 *             o
	----------------------------------------------------------------------------------------------
	    14    -186.87714559   -7.81e-08 *    1.09e-05 *    1.09e-05 o    6.30e-04 *    6.30e-04 o  ~
	----------------------------------------------------------------------------------------------

Next Geometry in Ang
	Fragment 1 (Ang)

	    B   0.0000000000   0.0000000000   1.7994413055
	   Na   0.0000000000   0.0000000000  -0.8618006007

    Final optimized geometry and variables:
    Molecular point group: c2v
    Full point group: C_inf_v

    Geometry (in Angstrom), charge = -1, multiplicity = 6:

    B            0.000000000000     0.000000000000     1.799274520080
    NA           0.000000000000     0.000000000000    -0.861633815244

    Psi4 stopped on: Thursday, 17 July 2025 09:52AM
    Psi4 wall time for execution: 0:00:19.65

*** Psi4 exiting successfully. Buy a developer a beer!
