                               Psi4 1.9.1 release

  ==> Input File <==

--------------------------------------------------------------------------
molecule {
-1 6
B   0.00000        0.60000        0.00000
P   0.00000       -0.60000        0.00000
}

set {
basis              cc-pvdz
reference          uks
maxiter            500
geom_maxiter       500
DAMPING_PERCENTAGE 1
guess              SAP
}

optimize('b3lyp')
--------------------------------------------------------------------------

    Molecular point group: c2v
  Charge       = -1
  Multiplicity = 6
  Basis Set: CC-PVDZ
    Blend: CC-PVDZ
  Basis Set: (CC-PVDZ AUX)
    Blend: CC-PVDZ-JKFIT
  @DF-UKS Final Energy:  -365.32282945127474
    Total Energy =                       -365.3228294512747425
 Dipole X            :          0.0000000            0.0000000            0.0000000
 Dipole Y            :          0.0000000            0.0000000            0.0000000
 Dipole Z            :         -0.8159038           -0.5547649           -1.3706687
 Magnitude           :                                                    1.3706687
    Molecular point group: c2v
  Basis Set: CC-PVDZ
    Blend: CC-PVDZ
  Basis Set: (CC-PVDZ AUX)
    Blend: CC-PVDZ-JKFIT
  Basis Set: CC-PVDZ
    Blend: CC-PVDZ
  Basis Set: (CC-PVDZ AUX)
    Blend: CC-PVDZ-JKFIT
  @DF-UKS Final Energy:  -365.59553541006818
    Total Energy =                       -365.5955354100681802
  Basis Set: CC-PVDZ
    Blend: CC-PVDZ
  Basis Set: (CC-PVDZ AUX)
    Blend: CC-PVDZ-JKFIT
  Basis Set: CC-PVDZ
    Blend: CC-PVDZ
  @DF-UKS Final Energy:  -365.74717484388901
    Total Energy =                       -365.7471748438890131
  @DF-UKS Final Energy:  -365.89699711299323
    Total Energy =                       -365.8969971129931764
  @DF-UKS Final Energy:  -365.95201614758565
    Total Energy =                       -365.9520161475857094
  @DF-UKS Final Energy:  -365.96080428996987
    Total Energy =                       -365.9608042899698717
  @DF-UKS Final Energy:  -365.96455198734282
    Total Energy =                       -365.9645519873428157
  @DF-UKS Final Energy:  -365.96514961984212
    Total Energy =                       -365.9651496198421228
  @DF-UKS Final Energy:  -365.96526376096097
    Total Energy =                       -365.9652637609609656
  @DF-UKS Final Energy:  -365.96528779095127
    Total Energy =                       -365.9652877909512654
  Basis Set: (CC-PVDZ AUX)
    Blend: CC-PVDZ-JKFIT
  Basis Set: CC-PVDZ
    Blend: CC-PVDZ
  Basis Set: (CC-PVDZ AUX)
    Blend: CC-PVDZ-JKFIT
  @DF-UKS Final Energy:  -365.96529386301188
    Total Energy =                       -365.9652938630118797
  Basis Set: CC-PVDZ
    Blend: CC-PVDZ
  Basis Set: (CC-PVDZ AUX)
    Blend: CC-PVDZ-JKFIT
  Charge       = -1
  Multiplicity = 6
  Basis Set: CC-PVDZ
    Blend: CC-PVDZ
  Basis Set: (CC-PVDZ AUX)
    Blend: CC-PVDZ-JKFIT

    Orbital Energies [Eh]
    ---------------------

    Alpha Occupied:

       1A1   -76.890363     2A1    -6.525182     3A1    -6.356732
       1B1    -4.521885     1B2    -4.521885     4A1    -4.514710
       5A1    -0.386903     6A1    -0.159857     2B1    -0.054340
       2B2    -0.054340     7A1    -0.014029     3B2     0.096166
       3B1     0.096166

    Alpha Virtual:

       8A1     0.269796     9A1     0.479546     4B1     0.526674
       4B2     0.526674    10A1     0.545702    11A1     0.591947
       5B1     0.602378     5B2     0.602378     1A2     0.643013
      12A1     0.643014     6B1     0.666279     6B2     0.666279
      13A1     0.753881     2A2     0.949309    14A1     0.949309
      15A1     0.972952     7B2     1.106969     7B1     1.106969
      16A1     1.354030

    Beta Occupied:

       1A1   -76.881309     2A1    -6.501970     3A1    -6.347036
       4A1    -4.506008     1B1    -4.504996     1B2    -4.504996
       5A1    -0.300584     6A1    -0.074662

    Beta Virtual:

       2B1     0.085750     2B2     0.085750     7A1     0.134881
       3B2     0.244755     3B1     0.244755     8A1     0.320546
       9A1     0.516321     4B1     0.596340     4B2     0.596340
      10A1     0.599256    11A1     0.643585     5B1     0.661330
       5B2     0.661330     6B1     0.731458     6B2     0.731458
      12A1     0.738841     1A2     0.738842    13A1     0.804461
      14A1     1.024899    15A1     1.051377     2A2     1.051377
       7B2     1.186846     7B1     1.186846    16A1     1.418493

    Final Occupation by Irrep:
             A1    A2    B1    B2
    DOCC [     6,    0,    1,    1 ]
    SOCC [     1,    0,    2,    2 ]
    NA   [     7,    0,    3,    3 ]
    NB   [     6,    0,    1,    1 ]

  @DF-UKS Final Energy:  -365.96529460608940

   => Energetics <=

    Nuclear Repulsion Energy =             18.6752215270450641
    One-Electron Energy =                -546.1028508523734217
    Two-Electron Energy =                 183.5471103475583732
    DFT Exchange-Correlation Energy =     -22.0847756283194201
    Empirical Dispersion Energy =           0.0000000000000000
    VV10 Nonlocal Energy =                  0.0000000000000000
    Total Energy =                       -365.9652946060894010

  UHF NO Occupations:
  HONO-2 :    2 B2 1.0000000
  HONO-1 :    3 B2 1.0000000
  HONO-0 :    3 B1 1.0000000
  LUNO+0 :    8 A1 0.0011532
  LUNO+1 :    9 A1 0.0006491
  LUNO+2 :   10 A1 0.0000003
  LUNO+3 :   11 A1 0.0000000

Computation Completed

Properties will be evaluated at   0.000000,   0.000000,   0.000000 [a0]

Properties computed using the SCF density matrix

 Multipole Moments:

 ------------------------------------------------------------------------------------
     Multipole            Electronic (a.u.)      Nuclear  (a.u.)        Total (a.u.)
 ------------------------------------------------------------------------------------

 L = 1.  Multiply by 2.5417464519 to convert [e a0] to [Debye]
 Dipole X            :          0.0000000            0.0000000            0.0000000
 Dipole Y            :          0.0000000            0.0000000            0.0000000
 Dipole Z            :         -0.9338366           -0.9824814           -1.9163180
 Magnitude           :                                                    1.9163180

 ------------------------------------------------------------------------------------

*** tstop() called on Joses-MacBook-Pro-2.local at Thu Jul 17 09:55:12 2025
Module time:
	user time   =       3.10 seconds =       0.05 minutes
	system time =       4.19 seconds =       0.07 minutes
	total time  =          1 seconds =       0.02 minutes
Total time:
	user time   =      54.01 seconds =       0.90 minutes
	system time =      73.34 seconds =       1.22 minutes
	total time  =         12 seconds =       0.20 minutes

*** tstart() called on Joses-MacBook-Pro-2.local
*** at Thu Jul 17 09:55:12 2025

         ------------------------------------------------------------
                                   SCF GRAD
                          Rob Parrish, Justin Turney,
                       Andy Simmonett, and Alex Sokolov
         ------------------------------------------------------------

  ==> Geometry <==

    Molecular point group: c2v
    Full point group: C_inf_v

    Geometry (in Angstrom), charge = -1, multiplicity = 6:

       Center              X                  Y                   Z               Mass
    ------------   -----------------  -----------------  -----------------  -----------------
         B            0.000000000000     0.000000000000     1.567893014491    11.009305360000
         P            0.000000000000     0.000000000000    -0.557291457499    30.973761998420

  Nuclear repulsion =   18.675221527045064

  ==> Basis Set <==

  Basis Set: CC-PVDZ
    Blend: CC-PVDZ
    Number of shells: 14
    Number of basis functions: 32
    Number of Cartesian functions: 34
    Spherical Harmonics?: true
    Max angular momentum: 2

  ==> DFJKGrad: Density-Fitted SCF Gradients <==

    Gradient:                    1
    J tasked:                  Yes
    K tasked:                  Yes
    wK tasked:                  No
    OpenMP threads:              1
    Integrals threads:           1
    Memory [MiB]:              375
    Schwarz Cutoff:          1E-12
    Fitting Condition:       1E-10

   => Auxiliary Basis Set <=

  Basis Set: (CC-PVDZ AUX)
    Blend: CC-PVDZ-JKFIT
    Number of shells: 60
    Number of basis functions: 182
    Number of Cartesian functions: 211
    Spherical Harmonics?: true
    Max angular momentum: 3

  ==> DFT Potential <==

   => LibXC <=

    Version 6.2.2
    S. Lehtola, C. Steigemann, M. J.T. Oliveira, and M. A.L. Marques.,  SoftwareX 7, 1â€“5 (2018) (10.1016/j.softx.2017.11.002)

   => Composite Functional: B3LYP <=

    B3LYP Hyb-GGA Exchange-Correlation Functional

    P. J. Stephens, F. J. Devlin, C. F. Chabalowski, and M. J. Frisch.,  J. Phys. Chem. 98, 11623 (1994) (10.1021/j100096a001)

    Deriv               =              1
    GGA                 =           TRUE
    Meta                =          FALSE

    Exchange Hybrid     =           TRUE
    MP2 Hybrid          =          FALSE

   => Exchange Functionals <=

    0.0800   Slater exchange
    0.7200         Becke 88

   => Exact (HF) Exchange <=

    0.2000               HF

   => Correlation Functionals <=

    0.1900   Vosko, Wilk & Nusair (VWN5_RPA)
    0.8100   Lee, Yang & Parr

   => LibXC Density Thresholds  <==

    XC_HYB_GGA_XC_B3LYP:  1.00E-15

   => Molecular Quadrature <=

    Radial Scheme          =       TREUTLER
    Pruning Scheme         =           NONE
    Nuclear Scheme         =       TREUTLER

    Blocking Scheme        =         OCTREE
    BS radius alpha        =              1
    Pruning alpha          =              1
    Radial Points          =             75
    Spherical Points       =            302
    Total Points           =          42025
    Total Blocks           =            387
    Max Points             =            254
    Max Functions          =             32
    Weights Tolerance      =       1.00E-15

  -Total Gradient:
     Atom            X                  Y                   Z
    ------   -----------------  -----------------  -----------------
       1        0.000000000000     0.000000000000    -0.000057570508
       2        0.000000000000     0.000000000000     0.000055249681

*** tstop() called on Joses-MacBook-Pro-2.local at Thu Jul 17 09:55:12 2025
Module time:
	user time   =       1.04 seconds =       0.02 minutes
	system time =       1.28 seconds =       0.02 minutes
	total time  =          0 seconds =       0.00 minutes
Total time:
	user time   =      55.05 seconds =       0.92 minutes
	system time =      74.62 seconds =       1.24 minutes
	total time  =         12 seconds =       0.20 minutes

    			-----------------------------------------

    			 OPTKING 3.0: for geometry optimizations

    			     By R.A. King, Bethel University

    			        with contributions from

    			    A.V. Copan, J. Cayton, A. Heide

    			-----------------------------------------

	                            ===> Fragment 1 <==

	 Z (Atomic Numbers)          Masses                          Geom
	       5.000000            11.009305          0.00000000  0.00000000  2.96288839
	      15.000000            30.973762          0.00000000  0.00000000 -1.05312823

	 - Coordinate -           - BOHR/RAD -       - ANG/DEG -
	 R(1,2)           =         4.016017           2.125184

	        --- Internal Coordinate Step in ANG or DEG, aJ/ANG or AJ/DEG ---
	-------------------------------------------------------------------------------
	           Coordinate      Previous         Force          Change          New
	           ----------      --------        ------          ------        ------
	               R(1,2)       2.12518        0.00046        0.00037       2.12556
	-------------------------------------------------------------------------------

	                                 ==> Convergence Check <==

	Measures of convergence in internal coordinates in au.

	Criteria marked as inactive (o), active & met (*), and active & unmet ( ).

	----------------------------------------------------------------------------------------------
	   Step    Total Energy     Delta E     Max Force     RMS Force      Max Disp      RMS Disp
	----------------------------------------------------------------------------------------------
	  Convergence Criteria     1.00e-06 *    3.00e-04 *             o    1.20e-03 *             o
	----------------------------------------------------------------------------------------------
	    12    -365.96529461   -7.43e-07 *    5.64e-05 *    5.64e-05 o    7.03e-04 *    7.03e-04 o  ~
	----------------------------------------------------------------------------------------------

Next Geometry in Ang
	Fragment 1 (Ang)

	    B   0.0000000000   0.0000000000   1.5680789631
	    P   0.0000000000   0.0000000000  -0.5574774061

    Final optimized geometry and variables:
    Molecular point group: c2v
    Full point group: C_inf_v

    Geometry (in Angstrom), charge = -1, multiplicity = 6:

    B            0.000000000000     0.000000000000     1.567893014491
    P            0.000000000000     0.000000000000    -0.557291457499

    Psi4 stopped on: Thursday, 17 July 2025 09:55AM
    Psi4 wall time for execution: 0:00:13.17

*** Psi4 exiting successfully. Buy a developer a beer!
