                               Psi4 1.9.1 release

  ==> Input File <==

--------------------------------------------------------------------------
molecule {
-1 6
Li   0.00000        0.60000        0.00000
Li   0.00000       -0.60000        0.00000
}

set {
basis              cc-pvdz
reference          uks
maxiter            500
geom_maxiter       500
DAMPING_PERCENTAGE 1
guess              SAP
}

optimize('b3lyp')
--------------------------------------------------------------------------

    Molecular point group: d2h
  Charge       = -1
  Multiplicity = 6
  Basis Set: CC-PVDZ
    Blend: CC-PVDZ
  Basis Set: (CC-PVDZ AUX)
    Blend: DEF2-UNIVERSAL-JKFIT
  @DF-UKS Final Energy:   -12.78692506554288
    Total Energy =                        -12.7869250655428814
 Dipole X            :          0.0000000            0.0000000            0.0000000
 Dipole Y            :          0.0000000            0.0000000            0.0000000
 Dipole Z            :          0.0000000            0.0000000            0.0000000
 Magnitude           :                                                    0.0000000
    Molecular point group: d2h
  Basis Set: CC-PVDZ
    Blend: CC-PVDZ
  Basis Set: (CC-PVDZ AUX)
    Blend: DEF2-UNIVERSAL-JKFIT
  Basis Set: CC-PVDZ
    Blend: CC-PVDZ
  Basis Set: (CC-PVDZ AUX)
    Blend: DEF2-UNIVERSAL-JKFIT
  @DF-UKS Final Energy:   -12.82141611814324
    Total Energy =                        -12.8214161181432402
  Basis Set: CC-PVDZ
    Blend: CC-PVDZ
  Basis Set: (CC-PVDZ AUX)
    Blend: DEF2-UNIVERSAL-JKFIT
  Basis Set: CC-PVDZ
    Blend: CC-PVDZ
  @DF-UKS Final Energy:   -12.90129041820880
    Total Energy =                        -12.9012904182087969
  @DF-UKS Final Energy:   -12.93027358107827
    Total Energy =                        -12.9302735810782714
  @DF-UKS Final Energy:   -12.93803703691913
    Total Energy =                        -12.9380370369191304
  @DF-UKS Final Energy:   -12.93942325742159
    Total Energy =                        -12.9394232574215859
  @DF-UKS Final Energy:   -12.93955437955406
    Total Energy =                        -12.9395543795540569
  Basis Set: (CC-PVDZ AUX)
    Blend: DEF2-UNIVERSAL-JKFIT
  Basis Set: CC-PVDZ
    Blend: CC-PVDZ
  Basis Set: (CC-PVDZ AUX)
    Blend: DEF2-UNIVERSAL-JKFIT
  @DF-UKS Final Energy:   -12.93957037396447
    Total Energy =                        -12.9395703739644681
  Basis Set: CC-PVDZ
    Blend: CC-PVDZ
  Basis Set: (CC-PVDZ AUX)
    Blend: DEF2-UNIVERSAL-JKFIT
  Charge       = -1
  Multiplicity = 6
  Basis Set: CC-PVDZ
    Blend: CC-PVDZ
  Basis Set: (CC-PVDZ AUX)
    Blend: DEF2-UNIVERSAL-JKFIT

    Orbital Energies [Eh]
    ---------------------

    Alpha Occupied:

       1B2u   -2.431787     1Ag    -2.430198     2Ag    -0.092573
       2B2u    0.009788     1B1u    0.024742     1B3u    0.024742

    Alpha Virtual:

       3Ag     0.066800     3B2u    0.117904     1B3g    0.120963
       1B1g    0.120963     4Ag     0.145753     2B1u    0.152145
       2B3u    0.152145     5Ag     0.193426     2B3g    0.198038
       2B1g    0.198038     4B2u    0.265204     6Ag     0.311127
       1B2g    0.311128     5B2u    0.333838     3B3u    0.370797
       3B1u    0.370797     6B2u    0.418991     1Au     0.418991
       7Ag     0.446994     3B3g    0.546396     3B1g    0.546396
       7B2u    1.445053

    Beta Occupied:

       1Ag    -2.138184

    Beta Virtual:

       1B2u   -2.088382     2Ag     0.059400     2B2u    0.094323
       1B3u    0.128117     1B1u    0.128117     3Ag     0.128130
       3B2u    0.148285     1B1g    0.153748     1B3g    0.153748
       4Ag     0.180330     2B3u    0.190815     2B1u    0.190815
       5Ag     0.234139     2B1g    0.252445     2B3g    0.252445
       4B2u    0.295305     6Ag     0.396898     1B2g    0.397054
       5B2u    0.398505     3B3u    0.452696     3B1u    0.452696
       1Au     0.486894     6B2u    0.487275     7Ag     0.506236
       3B1g    0.606434     3B3g    0.606434     7B2u    1.513415

    Final Occupation by Irrep:
             Ag   B1g   B2g   B3g    Au   B1u   B2u   B3u
    DOCC [     1,    0,    0,    0,    0,    0,    0,    0 ]
    SOCC [     1,    0,    0,    0,    0,    1,    2,    1 ]
    NA   [     2,    0,    0,    0,    0,    1,    2,    1 ]
    NB   [     1,    0,    0,    0,    0,    0,    0,    0 ]

  @DF-UKS Final Energy:   -12.93957096306724

   => Energetics <=

    Nuclear Repulsion Energy =              2.1824822763995209
    One-Electron Energy =                 -21.3714100114282388
    Two-Electron Energy =                   8.7958994940157975
    DFT Exchange-Correlation Energy =      -2.5465427220543213
    Empirical Dispersion Energy =           0.0000000000000000
    VV10 Nonlocal Energy =                  0.0000000000000000
    Total Energy =                        -12.9395709630672400

  UHF NO Occupations:
  HONO-2 :    1B2u 1.0000000
  HONO-1 :    2 Ag 1.0000000
  HONO-0 :    2B2u 1.0000000
  LUNO+0 :    3 Ag 0.0000624
  LUNO+1 :    3B2u 0.0000000
  LUNO+2 :    2B3u 0.0000000
  LUNO+3 :    2B1u 0.0000000

Computation Completed

Properties will be evaluated at   0.000000,   0.000000,   0.000000 [a0]

Properties computed using the SCF density matrix

 Multipole Moments:

 ------------------------------------------------------------------------------------
     Multipole            Electronic (a.u.)      Nuclear  (a.u.)        Total (a.u.)
 ------------------------------------------------------------------------------------

 L = 1.  Multiply by 2.5417464519 to convert [e a0] to [Debye]
 Dipole X            :          0.0000000            0.0000000            0.0000000
 Dipole Y            :          0.0000000            0.0000000            0.0000000
 Dipole Z            :          0.0000000            0.0000000            0.0000000
 Magnitude           :                                                    0.0000000

 ------------------------------------------------------------------------------------

*** tstop() called on Joses-MacBook-Pro-2.local at Thu Jul 17 09:27:19 2025
Module time:
	user time   =       2.54 seconds =       0.04 minutes
	system time =       3.17 seconds =       0.05 minutes
	total time  =          0 seconds =       0.00 minutes
Total time:
	user time   =      37.13 seconds =       0.62 minutes
	system time =      41.13 seconds =       0.69 minutes
	total time  =          7 seconds =       0.12 minutes

*** tstart() called on Joses-MacBook-Pro-2.local
*** at Thu Jul 17 09:27:19 2025

         ------------------------------------------------------------
                                   SCF GRAD
                          Rob Parrish, Justin Turney,
                       Andy Simmonett, and Alex Sokolov
         ------------------------------------------------------------

  ==> Geometry <==

    Molecular point group: d2h
    Full point group: D_inf_h

    Geometry (in Angstrom), charge = -1, multiplicity = 6:

       Center              X                  Y                   Z               Mass
    ------------   -----------------  -----------------  -----------------  -----------------
         LI          -0.000000000000     1.091095892858     0.000000000000     7.016003436600
         LI           0.000000000000    -1.091095892858     0.000000000000     7.016003436600

  Nuclear repulsion =    2.182482276399521

  ==> Basis Set <==

  Basis Set: CC-PVDZ
    Blend: CC-PVDZ
    Number of shells: 12
    Number of basis functions: 28
    Number of Cartesian functions: 30
    Spherical Harmonics?: true
    Max angular momentum: 2

  ==> DFJKGrad: Density-Fitted SCF Gradients <==

    Gradient:                    1
    J tasked:                  Yes
    K tasked:                  Yes
    wK tasked:                  No
    OpenMP threads:              1
    Integrals threads:           1
    Memory [MiB]:              375
    Schwarz Cutoff:          1E-12
    Fitting Condition:       1E-10

   => Auxiliary Basis Set <=

  Basis Set: (CC-PVDZ AUX)
    Blend: DEF2-UNIVERSAL-JKFIT
    Number of shells: 34
    Number of basis functions: 102
    Number of Cartesian functions: 120
    Spherical Harmonics?: true
    Max angular momentum: 3

  ==> DFT Potential <==

   => LibXC <=

    Version 6.2.2
    S. Lehtola, C. Steigemann, M. J.T. Oliveira, and M. A.L. Marques.,  SoftwareX 7, 1â€“5 (2018) (10.1016/j.softx.2017.11.002)

   => Composite Functional: B3LYP <=

    B3LYP Hyb-GGA Exchange-Correlation Functional

    P. J. Stephens, F. J. Devlin, C. F. Chabalowski, and M. J. Frisch.,  J. Phys. Chem. 98, 11623 (1994) (10.1021/j100096a001)

    Deriv               =              1
    GGA                 =           TRUE
    Meta                =          FALSE

    Exchange Hybrid     =           TRUE
    MP2 Hybrid          =          FALSE

   => Exchange Functionals <=

    0.0800   Slater exchange
    0.7200         Becke 88

   => Exact (HF) Exchange <=

    0.2000               HF

   => Correlation Functionals <=

    0.1900   Vosko, Wilk & Nusair (VWN5_RPA)
    0.8100   Lee, Yang & Parr

   => LibXC Density Thresholds  <==

    XC_HYB_GGA_XC_B3LYP:  1.00E-15

   => Molecular Quadrature <=

    Radial Scheme          =       TREUTLER
    Pruning Scheme         =           NONE
    Nuclear Scheme         =       TREUTLER

    Blocking Scheme        =         OCTREE
    BS radius alpha        =              1
    Pruning alpha          =              1
    Radial Points          =             75
    Spherical Points       =            302
    Total Points           =          44020
    Total Blocks           =            448
    Max Points             =            255
    Max Functions          =             28
    Weights Tolerance      =       1.00E-15

  -Total Gradient:
     Atom            X                  Y                   Z
    ------   -----------------  -----------------  -----------------
       1        0.000000000000    -0.000044906441     0.000000000000
       2       -0.000000000000     0.000044906441    -0.000000000000

*** tstop() called on Joses-MacBook-Pro-2.local at Thu Jul 17 09:27:19 2025
Module time:
	user time   =       0.36 seconds =       0.01 minutes
	system time =       1.28 seconds =       0.02 minutes
	total time  =          0 seconds =       0.00 minutes
Total time:
	user time   =      37.50 seconds =       0.62 minutes
	system time =      42.41 seconds =       0.71 minutes
	total time  =          7 seconds =       0.12 minutes

    			-----------------------------------------

    			 OPTKING 3.0: for geometry optimizations

    			     By R.A. King, Bethel University

    			        with contributions from

    			    A.V. Copan, J. Cayton, A. Heide

    			-----------------------------------------

	                            ===> Fragment 1 <==

	 Z (Atomic Numbers)          Masses                          Geom
	       3.000000             7.016003         -0.00000000  2.06187241  0.00000000
	       3.000000             7.016003          0.00000000 -2.06187241  0.00000000

	 - Coordinate -           - BOHR/RAD -       - ANG/DEG -
	 R(1,2)           =         4.123745           2.182192

	        --- Internal Coordinate Step in ANG or DEG, aJ/ANG or AJ/DEG ---
	-------------------------------------------------------------------------------
	           Coordinate      Previous         Force          Change          New
	           ----------      --------        ------          ------        ------
	               R(1,2)       2.18219        0.00037        0.00045       2.18265
	-------------------------------------------------------------------------------

	                                 ==> Convergence Check <==

	Measures of convergence in internal coordinates in au.

	Criteria marked as inactive (o), active & met (*), and active & unmet ( ).

	----------------------------------------------------------------------------------------------
	   Step    Total Energy     Delta E     Max Force     RMS Force      Max Disp      RMS Disp
	----------------------------------------------------------------------------------------------
	  Convergence Criteria     1.00e-06 *    3.00e-04 *             o    1.20e-03 *             o
	----------------------------------------------------------------------------------------------
	     9     -12.93957096   -5.89e-07 *    4.49e-05 *    4.49e-05 o    8.58e-04 *    8.58e-04 o  ~
	----------------------------------------------------------------------------------------------

Next Geometry in Ang
	Fragment 1 (Ang)

	   Li  -0.0000000000   1.0913229141   0.0000000000
	   Li   0.0000000000  -1.0913229141   0.0000000000

    Final optimized geometry and variables:
    Molecular point group: d2h
    Full point group: D_inf_h

    Geometry (in Angstrom), charge = -1, multiplicity = 6:

    LI          -0.000000000000     1.091095892858     0.000000000000
    LI           0.000000000000    -1.091095892858     0.000000000000

    Psi4 stopped on: Thursday, 17 July 2025 09:27AM
    Psi4 wall time for execution: 0:00:08.35

*** Psi4 exiting successfully. Buy a developer a beer!
