                               Psi4 1.9.1 release

  ==> Input File <==

--------------------------------------------------------------------------
molecule {
-1 6
Mg   0.00000        0.60000        0.00000
S   0.00000       -0.60000        0.00000
}

set {
basis              cc-pvdz
reference          uks
maxiter            500
geom_maxiter       500
DAMPING_PERCENTAGE 1
guess              SAP
}

optimize('b3lyp')
--------------------------------------------------------------------------

    Molecular point group: c2v
  Charge       = -1
  Multiplicity = 6
  Basis Set: CC-PVDZ
    Blend: CC-PVDZ
  Basis Set: (CC-PVDZ AUX)
    Blend: CC-PVDZ-JKFIT + DEF2-UNIVERSAL-JKFIT
  @DF-UKS Final Energy:  -596.83779319097789
    Total Energy =                       -596.8377931909778908
 Dipole X            :          0.0000000            0.0000000            0.0000000
 Dipole Y            :          0.0000000            0.0000000            0.0000000
 Dipole Z            :         -3.3317232           -0.0038828           -3.3356060
 Magnitude           :                                                    3.3356060
    Molecular point group: c2v
  Basis Set: CC-PVDZ
    Blend: CC-PVDZ
  Basis Set: (CC-PVDZ AUX)
    Blend: CC-PVDZ-JKFIT + DEF2-UNIVERSAL-JKFIT
  Basis Set: CC-PVDZ
    Blend: CC-PVDZ
  Basis Set: (CC-PVDZ AUX)
    Blend: CC-PVDZ-JKFIT + DEF2-UNIVERSAL-JKFIT
  @DF-UKS Final Energy:  -596.85764949424174
    Total Energy =                       -596.8576494942418549
  Basis Set: CC-PVDZ
    Blend: CC-PVDZ
  Basis Set: (CC-PVDZ AUX)
    Blend: CC-PVDZ-JKFIT + DEF2-UNIVERSAL-JKFIT
  Basis Set: CC-PVDZ
    Blend: CC-PVDZ
  @DF-UKS Final Energy:  -596.89581570403516
    Total Energy =                       -596.8958157040351580
  @DF-UKS Final Energy:  -597.03244171201061
    Total Energy =                       -597.0324417120106091
  @DF-UKS Final Energy:  -597.57359078111244
    Total Energy =                       -597.5735907811124434
  @DF-UKS Final Energy:  -597.79974479748830
    Total Energy =                       -597.7997447974881879
  @DF-UKS Final Energy:  -597.93112647631585
    Total Energy =                       -597.9311264763158533
  @DF-UKS Final Energy:  -598.00259107838224
    Total Energy =                       -598.0025910783822383
  @DF-UKS Final Energy:  -598.04465345785491
    Total Energy =                       -598.0446534578549063
  @DF-UKS Final Energy:  -598.07015221236088
    Total Energy =                       -598.0701522123609948
  @DF-UKS Final Energy:  -598.08642425025539
    Total Energy =                       -598.0864242502553907
  @DF-UKS Final Energy:  -598.09700203691807
    Total Energy =                       -598.0970020369180702
  @DF-UKS Final Energy:  -598.10367973947200
    Total Energy =                       -598.1036797394721134
  @DF-UKS Final Energy:  -598.10385122041566
    Total Energy =                       -598.1038512204156632
  @DF-UKS Final Energy:  -598.10814153335127
    Total Energy =                       -598.1081415333511586
  @DF-UKS Final Energy:  -598.10819638815894
    Total Energy =                       -598.1081963881589445
  @DF-UKS Final Energy:  -598.11042549302442
    Total Energy =                       -598.1104254930244224
  @DF-UKS Final Energy:  -598.11044223921567
    Total Energy =                       -598.1104422392156721
  @DF-UKS Final Energy:  -598.11156364425608
    Total Energy =                       -598.1115636442560799
  @DF-UKS Final Energy:  -598.11156854766705
    Total Energy =                       -598.1115685476670478
  @DF-UKS Final Energy:  -598.11213598130541
    Total Energy =                       -598.1121359813054141
  @DF-UKS Final Energy:  -598.11213730776649
    Total Energy =                       -598.1121373077664884
  @DF-UKS Final Energy:  -598.11213862818568
    Total Energy =                       -598.1121386281857895
  @DF-UKS Final Energy:  -598.11240709507990
    Total Energy =                       -598.1124070950800160
  @DF-UKS Final Energy:  -598.11240745088537
    Total Energy =                       -598.1124074508853710
  @DF-UKS Final Energy:  -598.11240780525623
    Total Energy =                       -598.1124078052562254
  @DF-UKS Final Energy:  -598.11240815870985
    Total Energy =                       -598.1124081587098544
  @DF-UKS Final Energy:  -598.11240851114701
    Total Energy =                       -598.1124085111470094
  @DF-UKS Final Energy:  -598.11240886275209
    Total Energy =                       -598.1124088627520905
  @DF-UKS Final Energy:  -598.11240921337946
    Total Energy =                       -598.1124092133794647
  @DF-UKS Final Energy:  -598.11240956304312
    Total Energy =                       -598.1124095630431157
  @DF-UKS Final Energy:  -598.11240991196485
    Total Energy =                       -598.1124099119648463
  @DF-UKS Final Energy:  -598.11241025981224
    Total Energy =                       -598.1124102598122363
  @DF-UKS Final Energy:  -598.11241060676423
    Total Energy =                       -598.1124106067642288
  @DF-UKS Final Energy:  -598.11241095284186
    Total Energy =                       -598.1124109528418558
  @DF-UKS Final Energy:  -598.11241129808218
    Total Energy =                       -598.1124112980820655
  @DF-UKS Final Energy:  -598.11241164235935
    Total Energy =                       -598.1124116423594614
  @DF-UKS Final Energy:  -598.11241198574749
    Total Energy =                       -598.1124119857474852
  Basis Set: (CC-PVDZ AUX)
    Blend: CC-PVDZ-JKFIT + DEF2-UNIVERSAL-JKFIT
  Basis Set: CC-PVDZ
    Blend: CC-PVDZ
  Basis Set: (CC-PVDZ AUX)
    Blend: CC-PVDZ-JKFIT + DEF2-UNIVERSAL-JKFIT
  @DF-UKS Final Energy:  -598.11241232823511
    Total Energy =                       -598.1124123282351093
  Basis Set: CC-PVDZ
    Blend: CC-PVDZ
  Basis Set: (CC-PVDZ AUX)
    Blend: CC-PVDZ-JKFIT + DEF2-UNIVERSAL-JKFIT
  Charge       = -1
  Multiplicity = 6
  Basis Set: CC-PVDZ
    Blend: CC-PVDZ
  Basis Set: (CC-PVDZ AUX)
    Blend: CC-PVDZ-JKFIT + DEF2-UNIVERSAL-JKFIT

    Orbital Energies [Eh]
    ---------------------

    Alpha Occupied:

       1A1   -88.838279     2A1   -46.680293     3A1    -7.896520
       1B2    -5.865759     4A1    -5.865725     1B1    -5.846011
       5A1    -2.959403     6A1    -1.704543     2B2    -1.702109
       2B1    -1.702100     7A1    -0.627795     3B2    -0.236984
       8A1    -0.235891     3B1    -0.188471     9A1    -0.063990
       4B2     0.061876     4B1     0.062181

    Alpha Virtual:

      10A1     0.103676    11A1     0.229427     5B2     0.294059
       5B1     0.294424    12A1     0.301011     1A2     0.461628
      13A1     0.461629     6B2     0.464246     6B1     0.464365
      14A1     0.467993    15A1     0.535479     7B2     0.547411
       7B1     0.578312    16A1     0.593517     8B2     0.615007
      17A1     0.620189     2A2     0.652707     8B1     0.653606
      18A1     0.668203

    Beta Occupied:

       1A1   -88.827467     2A1   -46.676140     3A1    -7.885484
       1B2    -5.844384     4A1    -5.844313     1B1    -5.839468
       5A1    -2.952591     6A1    -1.700636     2B2    -1.695374
       2B1    -1.695353     7A1    -0.534918     3B1    -0.161675

    Beta Virtual:

       3B2    -0.079628     8A1    -0.079048     9A1     0.051494
      10A1     0.148994     4B1     0.164235     4B2     0.167305
      11A1     0.269159    12A1     0.326492     5B1     0.343726
       5B2     0.344575    13A1     0.513172     6B2     0.520313
       6B1     0.520438    14A1     0.537334     1A2     0.537361
      15A1     0.575533     7B1     0.591234     7B2     0.597292
      16A1     0.641928     2A2     0.709961     8B1     0.710830
      17A1     0.713810     8B2     0.722966    18A1     0.725238

    Final Occupation by Irrep:
             A1    A2    B1    B2
    DOCC [     7,    0,    3,    2 ]
    SOCC [     2,    0,    1,    2 ]
    NA   [     9,    0,    4,    4 ]
    NB   [     7,    0,    3,    2 ]

  @DF-UKS Final Energy:  -598.11254045642909

   => Energetics <=

    Nuclear Repulsion Energy =             19.7520515736015660
    One-Electron Energy =                -871.5540450468090512
    Two-Electron Energy =                 287.7020330010190037
    DFT Exchange-Correlation Energy =     -34.0125799842405172
    Empirical Dispersion Energy =           0.0000000000000000
    VV10 Nonlocal Energy =                  0.0000000000000000
    Total Energy =                       -598.1125404564290875

  UHF NO Occupations:
  HONO-2 :    4 B1 1.0000000
  HONO-1 :    4 B2 1.0000000
  HONO-0 :    9 A1 1.0000000
  LUNO+0 :   10 A1 0.0010217
  LUNO+1 :    5 B1 0.0001042
  LUNO+2 :   11 A1 0.0000004
  LUNO+3 :    5 B2 0.0000002

Computation Completed

Properties will be evaluated at   0.000000,   0.000000,   0.000000 [a0]

Properties computed using the SCF density matrix

 Multipole Moments:

 ------------------------------------------------------------------------------------
     Multipole            Electronic (a.u.)      Nuclear  (a.u.)        Total (a.u.)
 ------------------------------------------------------------------------------------

 L = 1.  Multiply by 2.5417464519 to convert [e a0] to [Debye]
 Dipole X            :          0.0000000            0.0000000            0.0000000
 Dipole Y            :          0.0000000            0.0000000            0.0000000
 Dipole Z            :         -5.4671285           -0.0166440           -5.4837726
 Magnitude           :                                                    5.4837726

 ------------------------------------------------------------------------------------

*** tstop() called on Joses-MacBook-Pro-2.local at Thu Jul 17 11:29:25 2025
Module time:
	user time   =       5.77 seconds =       0.10 minutes
	system time =       3.59 seconds =       0.06 minutes
	total time  =          1 seconds =       0.02 minutes
Total time:
	user time   =     383.13 seconds =       6.39 minutes
	system time =     189.58 seconds =       3.16 minutes
	total time  =         53 seconds =       0.88 minutes

*** tstart() called on Joses-MacBook-Pro-2.local
*** at Thu Jul 17 11:29:25 2025

         ------------------------------------------------------------
                                   SCF GRAD
                          Rob Parrish, Justin Turney,
                       Andy Simmonett, and Alex Sokolov
         ------------------------------------------------------------

  ==> Geometry <==

    Molecular point group: c2v
    Full point group: C_inf_v

    Geometry (in Angstrom), charge = -1, multiplicity = 6:

       Center              X                  Y                   Z               Mass
    ------------   -----------------  -----------------  -----------------  -----------------
         MG           0.000000000000     0.000000000000     2.939040853121    23.985041697000
         S            0.000000000000     0.000000000000    -2.204831117345    31.972071174400

  Nuclear repulsion =   19.752051573601566

  ==> Basis Set <==

  Basis Set: CC-PVDZ
    Blend: CC-PVDZ
    Number of shells: 16
    Number of basis functions: 36
    Number of Cartesian functions: 38
    Spherical Harmonics?: true
    Max angular momentum: 2

  ==> DFJKGrad: Density-Fitted SCF Gradients <==

    Gradient:                    1
    J tasked:                  Yes
    K tasked:                  Yes
    wK tasked:                  No
    OpenMP threads:              1
    Integrals threads:           1
    Memory [MiB]:              375
    Schwarz Cutoff:          1E-12
    Fitting Condition:       1E-10

   => Auxiliary Basis Set <=

  Basis Set: (CC-PVDZ AUX)
    Blend: CC-PVDZ-JKFIT + DEF2-UNIVERSAL-JKFIT
    Number of shells: 70
    Number of basis functions: 224
    Number of Cartesian functions: 267
    Spherical Harmonics?: true
    Max angular momentum: 4

  ==> DFT Potential <==

   => LibXC <=

    Version 6.2.2
    S. Lehtola, C. Steigemann, M. J.T. Oliveira, and M. A.L. Marques.,  SoftwareX 7, 1â€“5 (2018) (10.1016/j.softx.2017.11.002)

   => Composite Functional: B3LYP <=

    B3LYP Hyb-GGA Exchange-Correlation Functional

    P. J. Stephens, F. J. Devlin, C. F. Chabalowski, and M. J. Frisch.,  J. Phys. Chem. 98, 11623 (1994) (10.1021/j100096a001)

    Deriv               =              1
    GGA                 =           TRUE
    Meta                =          FALSE

    Exchange Hybrid     =           TRUE
    MP2 Hybrid          =          FALSE

   => Exchange Functionals <=

    0.0800   Slater exchange
    0.7200         Becke 88

   => Exact (HF) Exchange <=

    0.2000               HF

   => Correlation Functionals <=

    0.1900   Vosko, Wilk & Nusair (VWN5_RPA)
    0.8100   Lee, Yang & Parr

   => LibXC Density Thresholds  <==

    XC_HYB_GGA_XC_B3LYP:  1.00E-15

   => Molecular Quadrature <=

    Radial Scheme          =       TREUTLER
    Pruning Scheme         =           NONE
    Nuclear Scheme         =       TREUTLER

    Blocking Scheme        =         OCTREE
    BS radius alpha        =              1
    Pruning alpha          =              1
    Radial Points          =             75
    Spherical Points       =            302
    Total Points           =          43159
    Total Blocks           =            450
    Max Points             =            256
    Max Functions          =             36
    Weights Tolerance      =       1.00E-15

  -Total Gradient:
     Atom            X                  Y                   Z
    ------   -----------------  -----------------  -----------------
       1        0.000000000000     0.000000000000    -0.000154612736
       2        0.000000000000     0.000000000000     0.000156906051

*** tstop() called on Joses-MacBook-Pro-2.local at Thu Jul 17 11:29:26 2025
Module time:
	user time   =       1.40 seconds =       0.02 minutes
	system time =       2.49 seconds =       0.04 minutes
	total time  =          1 seconds =       0.02 minutes
Total time:
	user time   =     384.54 seconds =       6.41 minutes
	system time =     192.08 seconds =       3.20 minutes
	total time  =         54 seconds =       0.90 minutes

    			-----------------------------------------

    			 OPTKING 3.0: for geometry optimizations

    			     By R.A. King, Bethel University

    			        with contributions from

    			    A.V. Copan, J. Cayton, A. Heide

    			-----------------------------------------

	                            ===> Fragment 1 <==

	 Z (Atomic Numbers)          Masses                          Geom
	      12.000000            23.985042          0.00000000  0.00000000  5.55398228
	      16.000000            31.972071          0.00000000  0.00000000 -4.16652696

	 - Coordinate -           - BOHR/RAD -       - ANG/DEG -
	 R(1,2)           =         9.720509           5.143872

	        --- Internal Coordinate Step in ANG or DEG, aJ/ANG or AJ/DEG ---
	-------------------------------------------------------------------------------
	           Coordinate      Previous         Force          Change          New
	           ----------      --------        ------          ------        ------
	               R(1,2)       5.14387        0.00128        0.00029       5.14417
	-------------------------------------------------------------------------------

	                                 ==> Convergence Check <==

	Measures of convergence in internal coordinates in au.

	Criteria marked as inactive (o), active & met (*), and active & unmet ( ).

	----------------------------------------------------------------------------------------------
	   Step    Total Energy     Delta E     Max Force     RMS Force      Max Disp      RMS Disp
	----------------------------------------------------------------------------------------------
	  Convergence Criteria     1.00e-06 *    3.00e-04 *             o    1.20e-03 *             o
	----------------------------------------------------------------------------------------------
	    46    -598.11254046   -1.28e-04      1.56e-04 *    1.56e-04 o    5.56e-04 *    5.56e-04 o  ~
	----------------------------------------------------------------------------------------------

Next Geometry in Ang
	Fragment 1 (Ang)

	   Mg   0.0000000000   0.0000000000   2.9391879613
	    S   0.0000000000   0.0000000000  -2.2049782256

    Final optimized geometry and variables:
    Molecular point group: c2v
    Full point group: C_inf_v

    Geometry (in Angstrom), charge = -1, multiplicity = 6:

    MG           0.000000000000     0.000000000000     2.939040853121
    S            0.000000000000     0.000000000000    -2.204831117345

    Psi4 stopped on: Thursday, 17 July 2025 11:29AM
    Psi4 wall time for execution: 0:00:54.62

*** Psi4 exiting successfully. Buy a developer a beer!
