                               Psi4 1.9.1 release

  ==> Input File <==

--------------------------------------------------------------------------
molecule {
-1 6
N   0.00000        0.60000        0.00000
F   0.00000       -0.60000        0.00000
}

set {
basis              cc-pvdz
reference          uks
maxiter            500
geom_maxiter       500
DAMPING_PERCENTAGE 1
guess              SAP
}

optimize('b3lyp')
--------------------------------------------------------------------------

    Molecular point group: c2v
  Charge       = -1
  Multiplicity = 6
  Basis Set: CC-PVDZ
    Blend: CC-PVDZ
  Basis Set: (CC-PVDZ AUX)
    Blend: CC-PVDZ-JKFIT
  @DF-UKS Final Energy:  -153.19430840574549
    Total Energy =                       -153.1943084057454882
 Dipole X            :          0.0000000            0.0000000            0.0000000
 Dipole Y            :          0.0000000            0.0000000            0.0000000
 Dipole Z            :         -1.6544390            0.4783305           -1.1761085
 Magnitude           :                                                    1.1761085
    Molecular point group: c2v
  Basis Set: CC-PVDZ
    Blend: CC-PVDZ
  Basis Set: (CC-PVDZ AUX)
    Blend: CC-PVDZ-JKFIT
  Basis Set: CC-PVDZ
    Blend: CC-PVDZ
  Basis Set: (CC-PVDZ AUX)
    Blend: CC-PVDZ-JKFIT
  @DF-UKS Final Energy:  -153.40803121118455
    Total Energy =                       -153.4080312111845501
  Basis Set: CC-PVDZ
    Blend: CC-PVDZ
  Basis Set: (CC-PVDZ AUX)
    Blend: CC-PVDZ-JKFIT
  Basis Set: CC-PVDZ
    Blend: CC-PVDZ
  @DF-UKS Final Energy:  -153.43419450001224
    Total Energy =                       -153.4341945000122394
  @DF-UKS Final Energy:  -153.45804060124411
    Total Energy =                       -153.4580406012441358
  @DF-UKS Final Energy:  -153.46649353836213
    Total Energy =                       -153.4664935383621582
  @DF-UKS Final Energy:  -153.47126971501530
    Total Energy =                       -153.4712697150153247
  @DF-UKS Final Energy:  -153.47512051042935
    Total Energy =                       -153.4751205104293490
  @DF-UKS Final Energy:  -153.48711426449896
    Total Energy =                       -153.4871142644989561
  @DF-UKS Final Energy:  -153.55453180192791
    Total Energy =                       -153.5545318019279080
  @DF-UKS Final Energy:  -153.55595429162926
    Total Energy =                       -153.5559542916292912
  @DF-UKS Final Energy:  -153.55694108024815
    Total Energy =                       -153.5569410802481229
  Basis Set: (CC-PVDZ AUX)
    Blend: CC-PVDZ-JKFIT
  Basis Set: CC-PVDZ
    Blend: CC-PVDZ
  Basis Set: (CC-PVDZ AUX)
    Blend: CC-PVDZ-JKFIT
  @DF-UKS Final Energy:  -153.55696419046916
    Total Energy =                       -153.5569641904691593
  Basis Set: CC-PVDZ
    Blend: CC-PVDZ
  Basis Set: (CC-PVDZ AUX)
    Blend: CC-PVDZ-JKFIT
  Charge       = -1
  Multiplicity = 6
  Basis Set: CC-PVDZ
    Blend: CC-PVDZ
  Basis Set: (CC-PVDZ AUX)
    Blend: CC-PVDZ-JKFIT

    Orbital Energies [Eh]
    ---------------------

    Alpha Occupied:

       1A1   -24.518761     2A1   -13.906953     3A1    -0.964558
       4A1    -0.394046     5A1    -0.290366     1B2    -0.205732
       1B1    -0.205732     6A1     0.046267     2B2     0.054752
       2B1     0.054752     7A1     0.888770

    Alpha Virtual:

       3B2     1.012943     3B1     1.012943     8A1     1.093143
       4B2     1.326361     4B1     1.326361     9A1     1.351866
      10A1     1.702687     1A2     2.070487    11A1     2.070491
       5B2     2.087499     5B1     2.087499    12A1     2.100162
      13A1     3.694216     6B1     3.711815     6B2     3.711815
      14A1     3.774558     2A2     3.774559

    Beta Occupied:

       1A1   -24.483843     2A1   -13.836725     3A1    -0.870589
       4A1    -0.193180     1B2    -0.172403     1B1    -0.172403

    Beta Virtual:

       5A1     0.011876     2B2     0.292154     2B1     0.292154
       6A1     0.331583     3B1     1.138906     3B2     1.138906
       7A1     1.151843     8A1     1.229672     4B2     1.347597
       4B1     1.347597     9A1     1.474074    10A1     1.769527
       1A2     2.211801    11A1     2.211805     5B2     2.236585
       5B1     2.236585    12A1     2.249964    13A1     3.790681
       2A2     3.790685     6B1     3.809391     6B2     3.809391
      14A1     3.833396

    Final Occupation by Irrep:
             A1    A2    B1    B2
    DOCC [     4,    0,    1,    1 ]
    SOCC [     3,    0,    1,    1 ]
    NA   [     7,    0,    2,    2 ]
    NB   [     4,    0,    1,    1 ]

  @DF-UKS Final Energy:  -153.55696478206119

   => Energetics <=

    Nuclear Repulsion Energy =             11.7827441949520590
    One-Electron Energy =                -241.3098392466512792
    Two-Electron Energy =                  90.1791303695718369
    DFT Exchange-Correlation Energy =     -14.2090000999337747
    Empirical Dispersion Energy =           0.0000000000000000
    VV10 Nonlocal Energy =                  0.0000000000000000
    Total Energy =                       -153.5569647820611578

  UHF NO Occupations:
  HONO-2 :    5 A1 1.0000000
  HONO-1 :    6 A1 1.0000000
  HONO-0 :    7 A1 1.0000000
  LUNO+0 :    8 A1 0.0011001
  LUNO+1 :    9 A1 0.0003323
  LUNO+2 :    3 B1 0.0000745
  LUNO+3 :    3 B2 0.0000745

Computation Completed

Properties will be evaluated at   0.000000,   0.000000,   0.000000 [a0]

Properties computed using the SCF density matrix

 Multipole Moments:

 ------------------------------------------------------------------------------------
     Multipole            Electronic (a.u.)      Nuclear  (a.u.)        Total (a.u.)
 ------------------------------------------------------------------------------------

 L = 1.  Multiply by 2.5417464519 to convert [e a0] to [Debye]
 Dipole X            :          0.0000000            0.0000000            0.0000000
 Dipole Y            :          0.0000000            0.0000000            0.0000000
 Dipole Z            :         -3.3973295            1.1278260           -2.2695035
 Magnitude           :                                                    2.2695035

 ------------------------------------------------------------------------------------

*** tstop() called on Joses-MacBook-Pro-2.local at Thu Jul 17 10:27:11 2025
Module time:
	user time   =       2.62 seconds =       0.04 minutes
	system time =       2.06 seconds =       0.03 minutes
	total time  =          1 seconds =       0.02 minutes
Total time:
	user time   =      69.88 seconds =       1.16 minutes
	system time =      49.93 seconds =       0.83 minutes
	total time  =         12 seconds =       0.20 minutes

*** tstart() called on Joses-MacBook-Pro-2.local
*** at Thu Jul 17 10:27:11 2025

         ------------------------------------------------------------
                                   SCF GRAD
                          Rob Parrish, Justin Turney,
                       Andy Simmonett, and Alex Sokolov
         ------------------------------------------------------------

  ==> Geometry <==

    Molecular point group: c2v
    Full point group: C_inf_v

    Geometry (in Angstrom), charge = -1, multiplicity = 6:

       Center              X                  Y                   Z               Mass
    ------------   -----------------  -----------------  -----------------  -----------------
         N            0.000000000000     0.000000000000     1.628841976750    14.003074004430
         F            0.000000000000     0.000000000000    -1.200563781418    18.998403162730

  Nuclear repulsion =   11.782744194952059

  ==> Basis Set <==

  Basis Set: CC-PVDZ
    Blend: CC-PVDZ
    Number of shells: 12
    Number of basis functions: 28
    Number of Cartesian functions: 30
    Spherical Harmonics?: true
    Max angular momentum: 2

  ==> DFJKGrad: Density-Fitted SCF Gradients <==

    Gradient:                    1
    J tasked:                  Yes
    K tasked:                  Yes
    wK tasked:                  No
    OpenMP threads:              1
    Integrals threads:           1
    Memory [MiB]:              375
    Schwarz Cutoff:          1E-12
    Fitting Condition:       1E-10

   => Auxiliary Basis Set <=

  Basis Set: (CC-PVDZ AUX)
    Blend: CC-PVDZ-JKFIT
    Number of shells: 48
    Number of basis functions: 140
    Number of Cartesian functions: 162
    Spherical Harmonics?: true
    Max angular momentum: 3

  ==> DFT Potential <==

   => LibXC <=

    Version 6.2.2
    S. Lehtola, C. Steigemann, M. J.T. Oliveira, and M. A.L. Marques.,  SoftwareX 7, 1â€“5 (2018) (10.1016/j.softx.2017.11.002)

   => Composite Functional: B3LYP <=

    B3LYP Hyb-GGA Exchange-Correlation Functional

    P. J. Stephens, F. J. Devlin, C. F. Chabalowski, and M. J. Frisch.,  J. Phys. Chem. 98, 11623 (1994) (10.1021/j100096a001)

    Deriv               =              1
    GGA                 =           TRUE
    Meta                =          FALSE

    Exchange Hybrid     =           TRUE
    MP2 Hybrid          =          FALSE

   => Exchange Functionals <=

    0.0800   Slater exchange
    0.7200         Becke 88

   => Exact (HF) Exchange <=

    0.2000               HF

   => Correlation Functionals <=

    0.1900   Vosko, Wilk & Nusair (VWN5_RPA)
    0.8100   Lee, Yang & Parr

   => LibXC Density Thresholds  <==

    XC_HYB_GGA_XC_B3LYP:  1.00E-15

   => Molecular Quadrature <=

    Radial Scheme          =       TREUTLER
    Pruning Scheme         =           NONE
    Nuclear Scheme         =       TREUTLER

    Blocking Scheme        =         OCTREE
    BS radius alpha        =              1
    Pruning alpha          =              1
    Radial Points          =             75
    Spherical Points       =            302
    Total Points           =          42664
    Total Blocks           =            384
    Max Points             =            251
    Max Functions          =             28
    Weights Tolerance      =       1.00E-15

  -Total Gradient:
     Atom            X                  Y                   Z
    ------   -----------------  -----------------  -----------------
       1        0.000000000000    -0.000000000000    -0.000053414072
       2       -0.000000000000     0.000000000000     0.000048854781

*** tstop() called on Joses-MacBook-Pro-2.local at Thu Jul 17 10:27:11 2025
Module time:
	user time   =       0.54 seconds =       0.01 minutes
	system time =       0.99 seconds =       0.02 minutes
	total time  =          0 seconds =       0.00 minutes
Total time:
	user time   =      70.42 seconds =       1.17 minutes
	system time =      50.92 seconds =       0.85 minutes
	total time  =         12 seconds =       0.20 minutes

    			-----------------------------------------

    			 OPTKING 3.0: for geometry optimizations

    			     By R.A. King, Bethel University

    			        with contributions from

    			    A.V. Copan, J. Cayton, A. Heide

    			-----------------------------------------

	                            ===> Fragment 1 <==

	 Z (Atomic Numbers)          Masses                          Geom
	       7.000000            14.003074          0.00000000  0.00000000  3.07806524
	       9.000000            18.998403          0.00000000  0.00000000 -2.26873674

	 - Coordinate -           - BOHR/RAD -       - ANG/DEG -
	 R(1,2)           =         5.346802           2.829406

	        --- Internal Coordinate Step in ANG or DEG, aJ/ANG or AJ/DEG ---
	-------------------------------------------------------------------------------
	           Coordinate      Previous         Force          Change          New
	           ----------      --------        ------          ------        ------
	               R(1,2)       2.82941        0.00042        0.00029       2.82970
	-------------------------------------------------------------------------------

	                                 ==> Convergence Check <==

	Measures of convergence in internal coordinates in au.

	Criteria marked as inactive (o), active & met (*), and active & unmet ( ).

	----------------------------------------------------------------------------------------------
	   Step    Total Energy     Delta E     Max Force     RMS Force      Max Disp      RMS Disp
	----------------------------------------------------------------------------------------------
	  Convergence Criteria     1.00e-06 *    3.00e-04 *             o    1.20e-03 *             o
	----------------------------------------------------------------------------------------------
	    13    -153.55696478   -5.92e-07 *    5.11e-05 *    5.11e-05 o    5.54e-04 *    5.54e-04 o  ~
	----------------------------------------------------------------------------------------------

Next Geometry in Ang
	Fragment 1 (Ang)

	    N   0.0000000000   0.0000000000   1.6289886839
	    F   0.0000000000   0.0000000000  -1.2007104886

    Final optimized geometry and variables:
    Molecular point group: c2v
    Full point group: C_inf_v

    Geometry (in Angstrom), charge = -1, multiplicity = 6:

    N            0.000000000000     0.000000000000     1.628841976750
    F            0.000000000000     0.000000000000    -1.200563781418

    Psi4 stopped on: Thursday, 17 July 2025 10:27AM
    Psi4 wall time for execution: 0:00:13.02

*** Psi4 exiting successfully. Buy a developer a beer!
