                               Psi4 1.9.1 release

  ==> Input File <==

--------------------------------------------------------------------------
molecule {
-1 6
Al   0.00000        0.60000        0.00000
Cl   0.00000       -0.60000        0.00000
}

set {
basis              cc-pvdz
reference          uks
maxiter            500
geom_maxiter       500
DAMPING_PERCENTAGE 1
guess              SAP
}

optimize('b3lyp')
--------------------------------------------------------------------------

    Molecular point group: c2v
  Charge       = -1
  Multiplicity = 6
  Basis Set: CC-PVDZ
    Blend: CC-PVDZ
  Basis Set: (CC-PVDZ AUX)
    Blend: CC-PVDZ-JKFIT
  @DF-UKS Final Energy:  -700.98082202477929
    Total Energy =                       -700.9808220247792860
 Dipole X            :          0.0000000            0.0000000            0.0000000
 Dipole Y            :          0.0000000            0.0000000            0.0000000
 Dipole Z            :         -2.3382591           -0.1497521           -2.4880112
 Magnitude           :                                                    2.4880112
    Molecular point group: c2v
  Basis Set: CC-PVDZ
    Blend: CC-PVDZ
  Basis Set: (CC-PVDZ AUX)
    Blend: CC-PVDZ-JKFIT
  Basis Set: CC-PVDZ
    Blend: CC-PVDZ
  Basis Set: (CC-PVDZ AUX)
    Blend: CC-PVDZ-JKFIT
  @DF-UKS Final Energy:  -701.00999408889004
    Total Energy =                       -701.0099940888901529
  Basis Set: CC-PVDZ
    Blend: CC-PVDZ
  Basis Set: (CC-PVDZ AUX)
    Blend: CC-PVDZ-JKFIT
  Basis Set: CC-PVDZ
    Blend: CC-PVDZ
  @DF-UKS Final Energy:  -701.06527031639848
    Total Energy =                       -701.0652703163983688
  @DF-UKS Final Energy:  -701.25528382556399
    Total Energy =                       -701.2552838255639927
  @DF-UKS Final Energy:  -701.81245079275243
    Total Energy =                       -701.8124507927524292
  @DF-UKS Final Energy:  -702.01256114554815
    Total Energy =                       -702.0125611455481476
  @DF-UKS Final Energy:  -702.14263322210707
    Total Energy =                       -702.1426332221069515
  @DF-UKS Final Energy:  -702.23112883838689
    Total Energy =                       -702.2311288383868941
  @DF-UKS Final Energy:  -702.30087749224367
    Total Energy =                       -702.3008774922437851
  @DF-UKS Final Energy:  -702.35939315146811
    Total Energy =                       -702.3593931514682254
  @DF-UKS Final Energy:  -702.36513152477914
    Total Energy =                       -702.3651315247792581
  @DF-UKS Final Energy:  -702.39885122966029
    Total Energy =                       -702.3988512296602948
  @DF-UKS Final Energy:  -702.40069610861258
    Total Energy =                       -702.4006961086125784
  @DF-UKS Final Energy:  -702.41687968466329
    Total Energy =                       -702.4168796846632858
  @DF-UKS Final Energy:  -702.41743483414882
    Total Energy =                       -702.4174348341488212
  @DF-UKS Final Energy:  -702.42536519436840
    Total Energy =                       -702.4253651943683963
  @DF-UKS Final Energy:  -702.42552493608389
    Total Energy =                       -702.4255249360838889
  @DF-UKS Final Energy:  -702.42937671522645
    Total Energy =                       -702.4293767152264536
  @DF-UKS Final Energy:  -702.42942015299809
    Total Energy =                       -702.4294201529980910
  @DF-UKS Final Energy:  -702.43121582380923
    Total Energy =                       -702.4312158238092252
  @DF-UKS Final Energy:  -702.43122663656425
    Total Energy =                       -702.4312266365642472
  @DF-UKS Final Energy:  -702.43123730699938
    Total Energy =                       -702.4312373069993782
  @DF-UKS Final Energy:  -702.43200500466185
    Total Energy =                       -702.4320050046618462
  @DF-UKS Final Energy:  -702.43200727881197
    Total Energy =                       -702.4320072788119660
  @DF-UKS Final Energy:  -702.43200953343830
    Total Energy =                       -702.4320095334383041
  @DF-UKS Final Energy:  -702.43201176978926
    Total Energy =                       -702.4320117697892556
  @DF-UKS Final Energy:  -702.43201398803967
    Total Energy =                       -702.4320139880396709
  @DF-UKS Final Energy:  -702.43229134934256
    Total Energy =                       -702.4322913493425631
  @DF-UKS Final Energy:  -702.43235432961285
    Total Energy =                       -702.4323543296128491
  @DF-UKS Final Energy:  -702.43236874755053
    Total Energy =                       -702.4323687475505267
  Basis Set: (CC-PVDZ AUX)
    Blend: CC-PVDZ-JKFIT
  Basis Set: CC-PVDZ
    Blend: CC-PVDZ
  Basis Set: (CC-PVDZ AUX)
    Blend: CC-PVDZ-JKFIT
  @DF-UKS Final Energy:  -702.43237001270552
    Total Energy =                       -702.4323700127055190
  Basis Set: CC-PVDZ
    Blend: CC-PVDZ
  Basis Set: (CC-PVDZ AUX)
    Blend: CC-PVDZ-JKFIT
  Charge       = -1
  Multiplicity = 6
  Basis Set: CC-PVDZ
    Blend: CC-PVDZ
  Basis Set: (CC-PVDZ AUX)
    Blend: CC-PVDZ-JKFIT

    Orbital Energies [Eh]
    ---------------------

    Alpha Occupied:

       1A1  -101.484859     2A1   -55.871411     3A1    -9.398833
       4A1    -7.172568     1B2    -7.149093     1B1    -7.149093
       5A1    -3.951515     6A1    -2.504739     2B1    -2.504709
       2B2    -2.504709     7A1    -0.736068     8A1    -0.296629
       3B1    -0.243525     3B2    -0.243525     9A1    -0.148995
      10A1     0.046999     4B1     0.047751     4B2     0.047751

    Alpha Virtual:

      11A1     0.328129    12A1     0.381157     5B1     0.385609
       5B2     0.385609    13A1     0.438411     6B1     0.439926
       6B2     0.439926     1A2     0.440471    14A1     0.440473
      15A1     0.620807     7B1     0.635622     7B2     0.635622
      16A1     0.700543    17A1     0.764496     8B2     0.774711
       8B1     0.774711     2A2     0.817410    18A1     0.817429

    Beta Occupied:

       1A1  -101.478070     2A1   -55.862417     3A1    -9.392121
       4A1    -7.150501     1B2    -7.145049     1B1    -7.145049
       5A1    -3.938617     6A1    -2.491987     2B2    -2.491951
       2B1    -2.491951     7A1    -0.682620     3B1    -0.227578
       3B2    -0.227578

    Beta Virtual:

       8A1    -0.134791     9A1     0.026421    10A1     0.187725
       4B2     0.189403     4B1     0.189403    11A1     0.394478
      12A1     0.446266     5B2     0.453101     5B1     0.453101
      13A1     0.550971     6B1     0.552666     6B2     0.552666
      14A1     0.552940     1A2     0.552964     7B1     0.642807
       7B2     0.642807    15A1     0.662855    16A1     0.727903
       2A2     0.825814    17A1     0.825831     8B1     0.832557
       8B2     0.832557    18A1     0.843567

    Final Occupation by Irrep:
             A1    A2    B1    B2
    DOCC [     7,    0,    3,    3 ]
    SOCC [     3,    0,    1,    1 ]
    NA   [    10,    0,    4,    4 ]
    NB   [     7,    0,    3,    3 ]

  @DF-UKS Final Energy:  -702.43237013756220

   => Energetics <=

    Nuclear Repulsion Energy =             23.5421759384312033
    One-Electron Energy =               -1023.0865061969743692
    Two-Electron Energy =                 334.9438716709438495
    DFT Exchange-Correlation Energy =     -37.8319115499629461
    Empirical Dispersion Energy =           0.0000000000000000
    VV10 Nonlocal Energy =                  0.0000000000000000
    Total Energy =                       -702.4323701375622022

  UHF NO Occupations:
  HONO-2 :    4 B2 1.0000000
  HONO-1 :    4 B1 1.0000000
  HONO-0 :   10 A1 1.0000000
  LUNO+0 :   11 A1 0.0008628
  LUNO+1 :    5 B1 0.0000299
  LUNO+2 :    5 B2 0.0000299
  LUNO+3 :   12 A1 0.0000002

Computation Completed

Properties will be evaluated at   0.000000,   0.000000,   0.000000 [a0]

Properties computed using the SCF density matrix

 Multipole Moments:

 ------------------------------------------------------------------------------------
     Multipole            Electronic (a.u.)      Nuclear  (a.u.)        Total (a.u.)
 ------------------------------------------------------------------------------------

 L = 1.  Multiply by 2.5417464519 to convert [e a0] to [Debye]
 Dipole X            :          0.0000000            0.0000000            0.0000000
 Dipole Y            :          0.0000000            0.0000000            0.0000000
 Dipole Z            :         -4.5876436           -0.6199241           -5.2075678
 Magnitude           :                                                    5.2075678

 ------------------------------------------------------------------------------------

*** tstop() called on Joses-MacBook-Pro-2.local at Thu Jul 17 11:42:58 2025
Module time:
	user time   =       6.72 seconds =       0.11 minutes
	system time =       2.99 seconds =       0.05 minutes
	total time  =          1 seconds =       0.02 minutes
Total time:
	user time   =     421.73 seconds =       7.03 minutes
	system time =     136.29 seconds =       2.27 minutes
	total time  =         57 seconds =       0.95 minutes

*** tstart() called on Joses-MacBook-Pro-2.local
*** at Thu Jul 17 11:42:58 2025

         ------------------------------------------------------------
                                   SCF GRAD
                          Rob Parrish, Justin Turney,
                       Andy Simmonett, and Alex Sokolov
         ------------------------------------------------------------

  ==> Geometry <==

    Molecular point group: c2v
    Full point group: C_inf_v

    Geometry (in Angstrom), charge = -1, multiplicity = 6:

       Center              X                  Y                   Z               Mass
    ------------   -----------------  -----------------  -----------------  -----------------
         AL           0.000000000000     0.000000000000     2.804039554832    26.981538530000
         CL           0.000000000000     0.000000000000    -2.163562584576    34.968852682000

  Nuclear repulsion =   23.542175938431203

  ==> Basis Set <==

  Basis Set: CC-PVDZ
    Blend: CC-PVDZ
    Number of shells: 16
    Number of basis functions: 36
    Number of Cartesian functions: 38
    Spherical Harmonics?: true
    Max angular momentum: 2

  ==> DFJKGrad: Density-Fitted SCF Gradients <==

    Gradient:                    1
    J tasked:                  Yes
    K tasked:                  Yes
    wK tasked:                  No
    OpenMP threads:              1
    Integrals threads:           1
    Memory [MiB]:              375
    Schwarz Cutoff:          1E-12
    Fitting Condition:       1E-10

   => Auxiliary Basis Set <=

  Basis Set: (CC-PVDZ AUX)
    Blend: CC-PVDZ-JKFIT
    Number of shells: 72
    Number of basis functions: 224
    Number of Cartesian functions: 260
    Spherical Harmonics?: true
    Max angular momentum: 3

  ==> DFT Potential <==

   => LibXC <=

    Version 6.2.2
    S. Lehtola, C. Steigemann, M. J.T. Oliveira, and M. A.L. Marques.,  SoftwareX 7, 1â€“5 (2018) (10.1016/j.softx.2017.11.002)

   => Composite Functional: B3LYP <=

    B3LYP Hyb-GGA Exchange-Correlation Functional

    P. J. Stephens, F. J. Devlin, C. F. Chabalowski, and M. J. Frisch.,  J. Phys. Chem. 98, 11623 (1994) (10.1021/j100096a001)

    Deriv               =              1
    GGA                 =           TRUE
    Meta                =          FALSE

    Exchange Hybrid     =           TRUE
    MP2 Hybrid          =          FALSE

   => Exchange Functionals <=

    0.0800   Slater exchange
    0.7200         Becke 88

   => Exact (HF) Exchange <=

    0.2000               HF

   => Correlation Functionals <=

    0.1900   Vosko, Wilk & Nusair (VWN5_RPA)
    0.8100   Lee, Yang & Parr

   => LibXC Density Thresholds  <==

    XC_HYB_GGA_XC_B3LYP:  1.00E-15

   => Molecular Quadrature <=

    Radial Scheme          =       TREUTLER
    Pruning Scheme         =           NONE
    Nuclear Scheme         =       TREUTLER

    Blocking Scheme        =         OCTREE
    BS radius alpha        =              1
    Pruning alpha          =              1
    Radial Points          =             75
    Spherical Points       =            302
    Total Points           =          42847
    Total Blocks           =            449
    Max Points             =            255
    Max Functions          =             36
    Weights Tolerance      =       1.00E-15

  -Total Gradient:
     Atom            X                  Y                   Z
    ------   -----------------  -----------------  -----------------
       1        0.000000000000    -0.000000000000    -0.000002263060
       2        0.000000000000     0.000000000000     0.000003540364

*** tstop() called on Joses-MacBook-Pro-2.local at Thu Jul 17 11:42:58 2025
Module time:
	user time   =       2.45 seconds =       0.04 minutes
	system time =       1.78 seconds =       0.03 minutes
	total time  =          0 seconds =       0.00 minutes
Total time:
	user time   =     424.19 seconds =       7.07 minutes
	system time =     138.08 seconds =       2.30 minutes
	total time  =         57 seconds =       0.95 minutes

    			-----------------------------------------

    			 OPTKING 3.0: for geometry optimizations

    			     By R.A. King, Bethel University

    			        with contributions from

    			    A.V. Copan, J. Cayton, A. Heide

    			-----------------------------------------

	                            ===> Fragment 1 <==

	 Z (Atomic Numbers)          Masses                          Geom
	      13.000000            26.981539          0.00000000  0.00000000  5.29886680
	      17.000000            34.968853          0.00000000  0.00000000 -4.08854074

	 - Coordinate -           - BOHR/RAD -       - ANG/DEG -
	 R(1,2)           =         9.387408           4.967602

	        --- Internal Coordinate Step in ANG or DEG, aJ/ANG or AJ/DEG ---
	-------------------------------------------------------------------------------
	           Coordinate      Previous         Force          Change          New
	           ----------      --------        ------          ------        ------
	               R(1,2)       4.96760        0.00002        0.00204       4.96964
	-------------------------------------------------------------------------------

	                                 ==> Convergence Check <==

	Measures of convergence in internal coordinates in au.

	Criteria marked as inactive (o), active & met (*), and active & unmet ( ).

	----------------------------------------------------------------------------------------------
	   Step    Total Energy     Delta E     Max Force     RMS Force      Max Disp      RMS Disp
	----------------------------------------------------------------------------------------------
	  Convergence Criteria     1.00e-06 *    3.00e-04 *             o    1.20e-03 *             o
	----------------------------------------------------------------------------------------------
	    32    -702.43237014   -1.25e-07 *    2.90e-06 *    2.90e-06 o    3.85e-03      3.85e-03 o  ~
	----------------------------------------------------------------------------------------------

Next Geometry in Ang
	Fragment 1 (Ang)

	   Al   0.0000000000   0.0000000000   2.8050584628
	   Cl   0.0000000000   0.0000000000  -2.1645814925

    Final optimized geometry and variables:
    Molecular point group: c2v
    Full point group: C_inf_v

    Geometry (in Angstrom), charge = -1, multiplicity = 6:

    AL           0.000000000000     0.000000000000     2.804039554832
    CL           0.000000000000     0.000000000000    -2.163562584576

    Psi4 stopped on: Thursday, 17 July 2025 11:42AM
    Psi4 wall time for execution: 0:00:57.94

*** Psi4 exiting successfully. Buy a developer a beer!
