                               Psi4 1.9.1 release

  ==> Input File <==

--------------------------------------------------------------------------
molecule {
-1 6
Mg   0.00000        0.60000        0.00000
Si   0.00000       -0.60000        0.00000
}

set {
basis              cc-pvdz
reference          uks
maxiter            500
geom_maxiter       500
DAMPING_PERCENTAGE 1
guess              SAP
}

optimize('b3lyp')
--------------------------------------------------------------------------

    Molecular point group: c2v
  Charge       = -1
  Multiplicity = 6
  Basis Set: CC-PVDZ
    Blend: CC-PVDZ
  Basis Set: (CC-PVDZ AUX)
    Blend: CC-PVDZ-JKFIT + DEF2-UNIVERSAL-JKFIT
  @DF-UKS Final Energy:  -488.37675120603552
    Total Energy =                       -488.3767512060355216
 Dipole X            :          0.0000000            0.0000000            0.0000000
 Dipole Y            :          0.0000000            0.0000000            0.0000000
 Dipole Z            :         -2.2862819           -0.0029443           -2.2892261
 Magnitude           :                                                    2.2892261
    Molecular point group: c2v
  Basis Set: CC-PVDZ
    Blend: CC-PVDZ
  Basis Set: (CC-PVDZ AUX)
    Blend: CC-PVDZ-JKFIT + DEF2-UNIVERSAL-JKFIT
  Basis Set: CC-PVDZ
    Blend: CC-PVDZ
  Basis Set: (CC-PVDZ AUX)
    Blend: CC-PVDZ-JKFIT + DEF2-UNIVERSAL-JKFIT
  @DF-UKS Final Energy:  -488.38914067197487
    Total Energy =                       -488.3891406719748716
  Basis Set: CC-PVDZ
    Blend: CC-PVDZ
  Basis Set: (CC-PVDZ AUX)
    Blend: CC-PVDZ-JKFIT + DEF2-UNIVERSAL-JKFIT
  Basis Set: CC-PVDZ
    Blend: CC-PVDZ
  @DF-UKS Final Energy:  -488.41314815638140
    Total Energy =                       -488.4131481563813963
  @DF-UKS Final Energy:  -488.50115171111963
    Total Energy =                       -488.5011517111196326
  @DF-UKS Final Energy:  -488.91134910280141
    Total Energy =                       -488.9113491028014096
  @DF-UKS Final Energy:  -489.17558172716116
    Total Energy =                       -489.1755817271611591
  @DF-UKS Final Energy:  -489.32879830171350
    Total Energy =                       -489.3287983017135048
  @DF-UKS Final Energy:  -489.39841098198883
    Total Energy =                       -489.3984109819888317
  @DF-UKS Final Energy:  -489.43219808189281
    Total Energy =                       -489.4321980818928068
  @DF-UKS Final Energy:  -489.44770604088143
    Total Energy =                       -489.4477060408814282
  @DF-UKS Final Energy:  -489.45407837958663
    Total Energy =                       -489.4540783795866332
  @DF-UKS Final Energy:  -489.45622558491766
    Total Energy =                       -489.4562255849176609
  @DF-UKS Final Energy:  -489.45671891536722
    Total Energy =                       -489.4567189153672189
  @DF-UKS Final Energy:  -489.45677040244078
    Total Energy =                       -489.4567704024407817
  Basis Set: (CC-PVDZ AUX)
    Blend: CC-PVDZ-JKFIT + DEF2-UNIVERSAL-JKFIT
  Basis Set: CC-PVDZ
    Blend: CC-PVDZ
  Basis Set: (CC-PVDZ AUX)
    Blend: CC-PVDZ-JKFIT + DEF2-UNIVERSAL-JKFIT
  @DF-UKS Final Energy:  -489.45677613919264
    Total Energy =                       -489.4567761391926410
  Basis Set: CC-PVDZ
    Blend: CC-PVDZ
  Basis Set: (CC-PVDZ AUX)
    Blend: CC-PVDZ-JKFIT + DEF2-UNIVERSAL-JKFIT
  Charge       = -1
  Multiplicity = 6
  Basis Set: CC-PVDZ
    Blend: CC-PVDZ
  Basis Set: (CC-PVDZ AUX)
    Blend: CC-PVDZ-JKFIT + DEF2-UNIVERSAL-JKFIT

    Orbital Energies [Eh]
    ---------------------

    Alpha Occupied:

       1A1   -65.948212     2A1   -46.695127     3A1    -5.092693
       4A1    -3.452434     1B2    -3.452331     1B1    -3.451696
       5A1    -2.974439     2B2    -1.719286     6A1    -1.717727
       2B1    -1.717032     7A1    -0.276274     8A1    -0.087905
       3B1    -0.014675     3B2    -0.013305     9A1    -0.005762
       4B1     0.065900

    Alpha Virtual:

       4B2     0.105813    10A1     0.153513    11A1     0.221569
       5B1     0.280845     5B2     0.286833    12A1     0.290904
      13A1     0.410796     6B1     0.412112     6B2     0.413954
       1A2     0.444049    14A1     0.446974     7B2     0.491443
       7B1     0.493205    15A1     0.520737     2A2     0.538391
      16A1     0.538730    17A1     0.592400     8B1     0.637353
       8B2     0.637360    18A1     0.843840

    Beta Occupied:

       1A1   -65.940880     2A1   -46.691207     3A1    -5.084302
       4A1    -3.441178     1B2    -3.440953     1B1    -3.439000
       5A1    -2.968048     2B2    -1.715230     6A1    -1.712071
       2B1    -1.710208     7A1    -0.189744

    Beta Virtual:

       8A1     0.023817     3B2     0.088302     3B1     0.097634
       9A1     0.103923     4B2     0.153788     4B1     0.167814
      10A1     0.190467    11A1     0.254779     5B2     0.312186
       5B1     0.326740    12A1     0.337715    13A1     0.456016
       6B2     0.470383     6B1     0.483513     1A2     0.502681
      14A1     0.503127     7B2     0.531283     7B1     0.537020
      15A1     0.567412    16A1     0.612492     2A2     0.612500
      17A1     0.636948     8B2     0.693608     8B1     0.702992
      18A1     0.891870

    Final Occupation by Irrep:
             A1    A2    B1    B2
    DOCC [     7,    0,    2,    2 ]
    SOCC [     2,    0,    2,    1 ]
    NA   [     9,    0,    4,    3 ]
    NB   [     7,    0,    2,    2 ]

  @DF-UKS Final Energy:  -489.45677677350778

   => Energetics <=

    Nuclear Repulsion Energy =             31.4389058688631877
    One-Electron Energy =                -747.3656036943787058
    Two-Electron Energy =                 256.6780791754096640
    DFT Exchange-Correlation Energy =     -30.2081581234019971
    Empirical Dispersion Energy =           0.0000000000000000
    VV10 Nonlocal Energy =                  0.0000000000000000
    Total Energy =                       -489.4567767735077837

  UHF NO Occupations:
  HONO-2 :    8 A1 1.0000000
  HONO-1 :    9 A1 1.0000000
  HONO-0 :    4 B1 1.0000000
  LUNO+0 :   10 A1 0.0001317
  LUNO+1 :    4 B2 0.0000005
  LUNO+2 :    5 B1 0.0000003
  LUNO+3 :   11 A1 0.0000003

Computation Completed

Properties will be evaluated at   0.000000,   0.000000,   0.000000 [a0]

Properties computed using the SCF density matrix

 Multipole Moments:

 ------------------------------------------------------------------------------------
     Multipole            Electronic (a.u.)      Nuclear  (a.u.)        Total (a.u.)
 ------------------------------------------------------------------------------------

 L = 1.  Multiply by 2.5417464519 to convert [e a0] to [Debye]
 Dipole X            :          0.0000000            0.0000000            0.0000000
 Dipole Y            :          0.0000000            0.0000000            0.0000000
 Dipole Z            :         -0.8336004           -0.0069380           -0.8405385
 Magnitude           :                                                    0.8405385

 ------------------------------------------------------------------------------------

*** tstop() called on Joses-MacBook-Pro-2.local at Thu Jul 17 11:26:08 2025
Module time:
	user time   =       7.18 seconds =       0.12 minutes
	system time =       2.11 seconds =       0.04 minutes
	total time  =          1 seconds =       0.02 minutes
Total time:
	user time   =     180.33 seconds =       3.01 minutes
	system time =      61.08 seconds =       1.02 minutes
	total time  =         23 seconds =       0.38 minutes

*** tstart() called on Joses-MacBook-Pro-2.local
*** at Thu Jul 17 11:26:08 2025

         ------------------------------------------------------------
                                   SCF GRAD
                          Rob Parrish, Justin Turney,
                       Andy Simmonett, and Alex Sokolov
         ------------------------------------------------------------

  ==> Geometry <==

    Molecular point group: c2v
    Full point group: C_inf_v

    Geometry (in Angstrom), charge = -1, multiplicity = 6:

       Center              X                  Y                   Z               Mass
    ------------   -----------------  -----------------  -----------------  -----------------
         MG           0.000000000000     0.000000000000     1.522500347647    23.985041697000
         SI           0.000000000000     0.000000000000    -1.305262544719    27.976926534650

  Nuclear repulsion =   31.438905868863188

  ==> Basis Set <==

  Basis Set: CC-PVDZ
    Blend: CC-PVDZ
    Number of shells: 16
    Number of basis functions: 36
    Number of Cartesian functions: 38
    Spherical Harmonics?: true
    Max angular momentum: 2

  ==> DFJKGrad: Density-Fitted SCF Gradients <==

    Gradient:                    1
    J tasked:                  Yes
    K tasked:                  Yes
    wK tasked:                  No
    OpenMP threads:              1
    Integrals threads:           1
    Memory [MiB]:              375
    Schwarz Cutoff:          1E-12
    Fitting Condition:       1E-10

   => Auxiliary Basis Set <=

  Basis Set: (CC-PVDZ AUX)
    Blend: CC-PVDZ-JKFIT + DEF2-UNIVERSAL-JKFIT
    Number of shells: 70
    Number of basis functions: 224
    Number of Cartesian functions: 267
    Spherical Harmonics?: true
    Max angular momentum: 4

  ==> DFT Potential <==

   => LibXC <=

    Version 6.2.2
    S. Lehtola, C. Steigemann, M. J.T. Oliveira, and M. A.L. Marques.,  SoftwareX 7, 1â€“5 (2018) (10.1016/j.softx.2017.11.002)

   => Composite Functional: B3LYP <=

    B3LYP Hyb-GGA Exchange-Correlation Functional

    P. J. Stephens, F. J. Devlin, C. F. Chabalowski, and M. J. Frisch.,  J. Phys. Chem. 98, 11623 (1994) (10.1021/j100096a001)

    Deriv               =              1
    GGA                 =           TRUE
    Meta                =          FALSE

    Exchange Hybrid     =           TRUE
    MP2 Hybrid          =          FALSE

   => Exchange Functionals <=

    0.0800   Slater exchange
    0.7200         Becke 88

   => Exact (HF) Exchange <=

    0.2000               HF

   => Correlation Functionals <=

    0.1900   Vosko, Wilk & Nusair (VWN5_RPA)
    0.8100   Lee, Yang & Parr

   => LibXC Density Thresholds  <==

    XC_HYB_GGA_XC_B3LYP:  1.00E-15

   => Molecular Quadrature <=

    Radial Scheme          =       TREUTLER
    Pruning Scheme         =           NONE
    Nuclear Scheme         =       TREUTLER

    Blocking Scheme        =         OCTREE
    BS radius alpha        =              1
    Pruning alpha          =              1
    Radial Points          =             75
    Spherical Points       =            302
    Total Points           =          42959
    Total Blocks           =            421
    Max Points             =            254
    Max Functions          =             36
    Weights Tolerance      =       1.00E-15

  -Total Gradient:
     Atom            X                  Y                   Z
    ------   -----------------  -----------------  -----------------
       1        0.000000000000     0.000000000000    -0.000049872775
       2        0.000000000000     0.000000000000     0.000079404236

*** tstop() called on Joses-MacBook-Pro-2.local at Thu Jul 17 11:26:09 2025
Module time:
	user time   =       1.96 seconds =       0.03 minutes
	system time =       1.88 seconds =       0.03 minutes
	total time  =          1 seconds =       0.02 minutes
Total time:
	user time   =     182.31 seconds =       3.04 minutes
	system time =      62.96 seconds =       1.05 minutes
	total time  =         24 seconds =       0.40 minutes

    			-----------------------------------------

    			 OPTKING 3.0: for geometry optimizations

    			     By R.A. King, Bethel University

    			        with contributions from

    			    A.V. Copan, J. Cayton, A. Heide

    			-----------------------------------------

	                            ===> Fragment 1 <==

	 Z (Atomic Numbers)          Masses                          Geom
	      12.000000            23.985042          0.00000000  0.00000000  2.87710868
	      14.000000            27.976927          0.00000000  0.00000000 -2.46658873

	 - Coordinate -           - BOHR/RAD -       - ANG/DEG -
	 R(1,2)           =         5.343697           2.827763

	        --- Internal Coordinate Step in ANG or DEG, aJ/ANG or AJ/DEG ---
	-------------------------------------------------------------------------------
	           Coordinate      Previous         Force          Change          New
	           ----------      --------        ------          ------        ------
	               R(1,2)       2.82776        0.00053        0.00131       2.82907
	-------------------------------------------------------------------------------

	                                 ==> Convergence Check <==

	Measures of convergence in internal coordinates in au.

	Criteria marked as inactive (o), active & met (*), and active & unmet ( ).

	----------------------------------------------------------------------------------------------
	   Step    Total Energy     Delta E     Max Force     RMS Force      Max Disp      RMS Disp
	----------------------------------------------------------------------------------------------
	  Convergence Criteria     1.00e-06 *    3.00e-04 *             o    1.20e-03 *             o
	----------------------------------------------------------------------------------------------
	    16    -489.45677677   -6.34e-07 *    6.46e-05 *    6.46e-05 o    2.47e-03      2.47e-03 o  ~
	----------------------------------------------------------------------------------------------

Next Geometry in Ang
	Fragment 1 (Ang)

	   Mg   0.0000000000   0.0000000000   1.5231531732
	   Si   0.0000000000   0.0000000000  -1.3059153703

    Final optimized geometry and variables:
    Molecular point group: c2v
    Full point group: C_inf_v

    Geometry (in Angstrom), charge = -1, multiplicity = 6:

    MG           0.000000000000     0.000000000000     1.522500347647
    SI           0.000000000000     0.000000000000    -1.305262544719

    Psi4 stopped on: Thursday, 17 July 2025 11:26AM
    Psi4 wall time for execution: 0:00:23.93

*** Psi4 exiting successfully. Buy a developer a beer!
