                               Psi4 1.9.1 release

  ==> Input File <==

--------------------------------------------------------------------------
molecule {
-1 6
B   0.00000        0.60000        0.00000
Cl   0.00000       -0.60000        0.00000
}

set {
basis              cc-pvdz
reference          uks
maxiter            500
geom_maxiter       500
DAMPING_PERCENTAGE 1
guess              SAP
}

optimize('b3lyp')
--------------------------------------------------------------------------

    Molecular point group: c2v
  Charge       = -1
  Multiplicity = 6
  Basis Set: CC-PVDZ
    Blend: CC-PVDZ
  Basis Set: (CC-PVDZ AUX)
    Blend: CC-PVDZ-JKFIT
  @DF-UKS Final Energy:  -484.02600658617553
    Total Energy =                       -484.0260065861755265
 Dipole X            :          0.0000000            0.0000000            0.0000000
 Dipole Y            :          0.0000000            0.0000000            0.0000000
 Dipole Z            :         -1.8918096           -0.6073306           -2.4991402
 Magnitude           :                                                    2.4991402
    Molecular point group: c2v
  Basis Set: CC-PVDZ
    Blend: CC-PVDZ
  Basis Set: (CC-PVDZ AUX)
    Blend: CC-PVDZ-JKFIT
  Basis Set: CC-PVDZ
    Blend: CC-PVDZ
  Basis Set: (CC-PVDZ AUX)
    Blend: CC-PVDZ-JKFIT
  @DF-UKS Final Energy:  -484.29656073935990
    Total Energy =                       -484.2965607393599043
  Basis Set: CC-PVDZ
    Blend: CC-PVDZ
  Basis Set: (CC-PVDZ AUX)
    Blend: CC-PVDZ-JKFIT
  Basis Set: CC-PVDZ
    Blend: CC-PVDZ
  @DF-UKS Final Energy:  -484.42134502977956
    Total Energy =                       -484.4213450297796157
  @DF-UKS Final Energy:  -484.49976818152828
    Total Energy =                       -484.4997681815282249
  @DF-UKS Final Energy:  -484.57706629767353
    Total Energy =                       -484.5770662976735252
  @DF-UKS Final Energy:  -484.63665422945121
    Total Energy =                       -484.6366542294512101
  @DF-UKS Final Energy:  -484.64458446353353
    Total Energy =                       -484.6445844635335334
  @DF-UKS Final Energy:  -484.67054753929057
    Total Energy =                       -484.6705475392905669
  @DF-UKS Final Energy:  -484.67272005893517
    Total Energy =                       -484.6727200589351696
  @DF-UKS Final Energy:  -484.68553061812457
    Total Energy =                       -484.6855306181245737
  @DF-UKS Final Energy:  -484.68615539972018
    Total Energy =                       -484.6861553997202350
  @DF-UKS Final Energy:  -484.69261296482279
    Total Energy =                       -484.6926129648227857
  @DF-UKS Final Energy:  -484.69279287358972
    Total Energy =                       -484.6927928735897240
  @DF-UKS Final Energy:  -484.69604099999270
    Total Energy =                       -484.6960409999927037
  @DF-UKS Final Energy:  -484.69609398001580
    Total Energy =                       -484.6960939800157462
  @DF-UKS Final Energy:  -484.69778301842467
    Total Energy =                       -484.6977830184246727
  @DF-UKS Final Energy:  -484.69779881089579
    Total Energy =                       -484.6977988108957334
  @DF-UKS Final Energy:  -484.69866738192297
    Total Energy =                       -484.6986673819229736
  @DF-UKS Final Energy:  -484.69867185349688
    Total Energy =                       -484.6986718534968759
  @DF-UKS Final Energy:  -484.69867628079902
    Total Energy =                       -484.6986762807990203
  @DF-UKS Final Energy:  -484.69868066547320
    Total Energy =                       -484.6986806654731481
  @DF-UKS Final Energy:  -484.69909092293523
    Total Energy =                       -484.6990909229351701
  @DF-UKS Final Energy:  -484.69909205615465
    Total Energy =                       -484.6990920561546545
  @DF-UKS Final Energy:  -484.69909317988413
    Total Energy =                       -484.6990931798841302
  @DF-UKS Final Energy:  -484.69909429714022
    Total Energy =                       -484.6990942971402205
  @DF-UKS Final Energy:  -484.69909540795851
    Total Energy =                       -484.6990954079584526
  @DF-UKS Final Energy:  -484.69909651242818
    Total Energy =                       -484.6990965124282411
  Basis Set: (CC-PVDZ AUX)
    Blend: CC-PVDZ-JKFIT
  Basis Set: CC-PVDZ
    Blend: CC-PVDZ
  Basis Set: (CC-PVDZ AUX)
    Blend: CC-PVDZ-JKFIT
  @DF-UKS Final Energy:  -484.69909761057642
    Total Energy =                       -484.6990976105763593
  Basis Set: CC-PVDZ
    Blend: CC-PVDZ
  Basis Set: (CC-PVDZ AUX)
    Blend: CC-PVDZ-JKFIT
  Charge       = -1
  Multiplicity = 6
  Basis Set: CC-PVDZ
    Blend: CC-PVDZ
  Basis Set: (CC-PVDZ AUX)
    Blend: CC-PVDZ-JKFIT

    Orbital Energies [Eh]
    ---------------------

    Alpha Occupied:

       1A1  -101.476778     2A1    -9.390926     1B2    -7.164776
       1B1    -7.141211     3A1    -7.140975     4A1    -6.526206
       5A1    -0.728666     2B2    -0.291656     2B1    -0.236272
       6A1    -0.233076     7A1    -0.137627     3B2     0.091824
       3B1     0.091944     8A1     0.092173

    Alpha Virtual:

       9A1     0.519599     4B2     0.531262     4B1     0.531626
      10A1     0.586414     5B2     0.609246     5B1     0.642527
      11A1     0.658137    12A1     0.713985    13A1     0.768276
       1A2     0.780574     6B2     0.782308     6B1     0.826391
      14A1     0.827213    15A1     0.955689     2A2     0.955696
       7B2     0.955777     7B1     0.955862    16A1     0.956338

    Beta Occupied:

       1A1  -101.470049     2A1    -9.384278     1B2    -7.142901
       1B1    -7.137217     3A1    -7.136922     4A1    -6.488407
       5A1    -0.675200     2B1    -0.220367     6A1    -0.217072

    Beta Virtual:

       2B2    -0.129984     7A1     0.129833     8A1     0.299454
       3B1     0.302562     3B2     0.302623     9A1     0.607406
       4B1     0.638928     4B2     0.640241     5B1     0.653715
       5B2     0.657725    10A1     0.671996    11A1     0.704976
      12A1     0.749453     6B1     0.834798    13A1     0.835692
       1A2     0.838216     6B2     0.840036    14A1     0.848475
      15A1     1.132995     2A2     1.133036     7B2     1.134448
       7B1     1.134643    16A1     1.135033

    Final Occupation by Irrep:
             A1    A2    B1    B2
    DOCC [     6,    0,    2,    1 ]
    SOCC [     2,    0,    1,    2 ]
    NA   [     8,    0,    3,    3 ]
    NB   [     6,    0,    2,    1 ]

  @DF-UKS Final Energy:  -484.69927973602984

   => Energetics <=

    Nuclear Repulsion Energy =              9.6670419874927962
    One-Electron Energy =                -690.1039039607228460
    Two-Electron Energy =                 221.8175457930856851
    DFT Exchange-Correlation Energy =     -26.0799635558854739
    Empirical Dispersion Energy =           0.0000000000000000
    VV10 Nonlocal Energy =                  0.0000000000000000
    Total Energy =                       -484.6992797360298368

  UHF NO Occupations:
  HONO-2 :    3 B1 1.0000000
  HONO-1 :    2 B2 1.0000000
  HONO-0 :    3 B2 1.0000000
  LUNO+0 :    9 A1 0.0008589
  LUNO+1 :   10 A1 0.0000328
  LUNO+2 :    4 B1 0.0000271
  LUNO+3 :   11 A1 0.0000005

Computation Completed

Properties will be evaluated at   0.000000,   0.000000,   0.000000 [a0]

Properties computed using the SCF density matrix

 Multipole Moments:

 ------------------------------------------------------------------------------------
     Multipole            Electronic (a.u.)      Nuclear  (a.u.)        Total (a.u.)
 ------------------------------------------------------------------------------------

 L = 1.  Multiply by 2.5417464519 to convert [e a0] to [Debye]
 Dipole X            :          0.0000000            0.0000000            0.0000000
 Dipole Y            :          0.0000000            0.0000000            0.0000000
 Dipole Z            :         -4.2562518           -2.3548885           -6.6111403
 Magnitude           :                                                    6.6111403

 ------------------------------------------------------------------------------------

*** tstop() called on Joses-MacBook-Pro-2.local at Thu Jul 17 09:56:47 2025
Module time:
	user time   =       2.32 seconds =       0.04 minutes
	system time =       3.56 seconds =       0.06 minutes
	total time  =          1 seconds =       0.02 minutes
Total time:
	user time   =     115.32 seconds =       1.92 minutes
	system time =     148.73 seconds =       2.48 minutes
	total time  =         26 seconds =       0.43 minutes

*** tstart() called on Joses-MacBook-Pro-2.local
*** at Thu Jul 17 09:56:47 2025

         ------------------------------------------------------------
                                   SCF GRAD
                          Rob Parrish, Justin Turney,
                       Andy Simmonett, and Alex Sokolov
         ------------------------------------------------------------

  ==> Geometry <==

    Molecular point group: c2v
    Full point group: C_inf_v

    Geometry (in Angstrom), charge = -1, multiplicity = 6:

       Center              X                  Y                   Z               Mass
    ------------   -----------------  -----------------  -----------------  -----------------
         B            0.000000000000     0.000000000000     3.538802034637    11.009305360000
         CL           0.000000000000     0.000000000000    -1.114127265261    34.968852682000

  Nuclear repulsion =    9.667041987492796

  ==> Basis Set <==

  Basis Set: CC-PVDZ
    Blend: CC-PVDZ
    Number of shells: 14
    Number of basis functions: 32
    Number of Cartesian functions: 34
    Spherical Harmonics?: true
    Max angular momentum: 2

  ==> DFJKGrad: Density-Fitted SCF Gradients <==

    Gradient:                    1
    J tasked:                  Yes
    K tasked:                  Yes
    wK tasked:                  No
    OpenMP threads:              1
    Integrals threads:           1
    Memory [MiB]:              375
    Schwarz Cutoff:          1E-12
    Fitting Condition:       1E-10

   => Auxiliary Basis Set <=

  Basis Set: (CC-PVDZ AUX)
    Blend: CC-PVDZ-JKFIT
    Number of shells: 60
    Number of basis functions: 182
    Number of Cartesian functions: 211
    Spherical Harmonics?: true
    Max angular momentum: 3

  ==> DFT Potential <==

   => LibXC <=

    Version 6.2.2
    S. Lehtola, C. Steigemann, M. J.T. Oliveira, and M. A.L. Marques.,  SoftwareX 7, 1â€“5 (2018) (10.1016/j.softx.2017.11.002)

   => Composite Functional: B3LYP <=

    B3LYP Hyb-GGA Exchange-Correlation Functional

    P. J. Stephens, F. J. Devlin, C. F. Chabalowski, and M. J. Frisch.,  J. Phys. Chem. 98, 11623 (1994) (10.1021/j100096a001)

    Deriv               =              1
    GGA                 =           TRUE
    Meta                =          FALSE

    Exchange Hybrid     =           TRUE
    MP2 Hybrid          =          FALSE

   => Exchange Functionals <=

    0.0800   Slater exchange
    0.7200         Becke 88

   => Exact (HF) Exchange <=

    0.2000               HF

   => Correlation Functionals <=

    0.1900   Vosko, Wilk & Nusair (VWN5_RPA)
    0.8100   Lee, Yang & Parr

   => LibXC Density Thresholds  <==

    XC_HYB_GGA_XC_B3LYP:  1.00E-15

   => Molecular Quadrature <=

    Radial Scheme          =       TREUTLER
    Pruning Scheme         =           NONE
    Nuclear Scheme         =       TREUTLER

    Blocking Scheme        =         OCTREE
    BS radius alpha        =              1
    Pruning alpha          =              1
    Radial Points          =             75
    Spherical Points       =            302
    Total Points           =          42162
    Total Blocks           =            440
    Max Points             =            254
    Max Functions          =             32
    Weights Tolerance      =       1.00E-15

  -Total Gradient:
     Atom            X                  Y                   Z
    ------   -----------------  -----------------  -----------------
       1        0.000000000000    -0.000000000000    -0.000234121770
       2        0.000000000000    -0.000000000000     0.000235871698

*** tstop() called on Joses-MacBook-Pro-2.local at Thu Jul 17 09:56:47 2025
Module time:
	user time   =       0.97 seconds =       0.02 minutes
	system time =       1.19 seconds =       0.02 minutes
	total time  =          0 seconds =       0.00 minutes
Total time:
	user time   =     116.30 seconds =       1.94 minutes
	system time =     149.92 seconds =       2.50 minutes
	total time  =         26 seconds =       0.43 minutes

    			-----------------------------------------

    			 OPTKING 3.0: for geometry optimizations

    			     By R.A. King, Bethel University

    			        with contributions from

    			    A.V. Copan, J. Cayton, A. Heide

    			-----------------------------------------

	                            ===> Fragment 1 <==

	 Z (Atomic Numbers)          Masses                          Geom
	       5.000000            11.009305          0.00000000  0.00000000  6.68736666
	      17.000000            34.968853          0.00000000  0.00000000 -2.10539540

	 - Coordinate -           - BOHR/RAD -       - ANG/DEG -
	 R(1,2)           =         8.792762           4.652929

	        --- Internal Coordinate Step in ANG or DEG, aJ/ANG or AJ/DEG ---
	-------------------------------------------------------------------------------
	           Coordinate      Previous         Force          Change          New
	           ----------      --------        ------          ------        ------
	               R(1,2)       4.65293        0.00194        0.00062       4.65355
	-------------------------------------------------------------------------------

	                                 ==> Convergence Check <==

	Measures of convergence in internal coordinates in au.

	Criteria marked as inactive (o), active & met (*), and active & unmet ( ).

	----------------------------------------------------------------------------------------------
	   Step    Total Energy     Delta E     Max Force     RMS Force      Max Disp      RMS Disp
	----------------------------------------------------------------------------------------------
	  Convergence Criteria     1.00e-06 *    3.00e-04 *             o    1.20e-03 *             o
	----------------------------------------------------------------------------------------------
	    29    -484.69927974   -1.82e-04      2.35e-04 *    2.35e-04 o    1.17e-03 *    1.17e-03 o  ~
	----------------------------------------------------------------------------------------------

Next Geometry in Ang
	Fragment 1 (Ang)

	    B   0.0000000000   0.0000000000   3.5391113454
	   Cl   0.0000000000   0.0000000000  -1.1144365761

    Final optimized geometry and variables:
    Molecular point group: c2v
    Full point group: C_inf_v

    Geometry (in Angstrom), charge = -1, multiplicity = 6:

    B            0.000000000000     0.000000000000     3.538802034637
    CL           0.000000000000     0.000000000000    -1.114127265261

    Psi4 stopped on: Thursday, 17 July 2025 09:56AM
    Psi4 wall time for execution: 0:00:26.31

*** Psi4 exiting successfully. Buy a developer a beer!
