                               Psi4 1.9.1 release

  ==> Input File <==

--------------------------------------------------------------------------
molecule {
-1 6
N   0.00000        0.60000        0.00000
Al   0.00000       -0.60000        0.00000
}

set {
basis              cc-pvdz
reference          uks
maxiter            500
geom_maxiter       500
DAMPING_PERCENTAGE 1
guess              SAP
}

optimize('b3lyp')
--------------------------------------------------------------------------

    Molecular point group: c2v
  Charge       = -1
  Multiplicity = 6
  Basis Set: CC-PVDZ
    Blend: CC-PVDZ
  Basis Set: (CC-PVDZ AUX)
    Blend: CC-PVDZ-JKFIT
  @DF-UKS Final Energy:  -296.43128094507489
    Total Energy =                       -296.4312809450748318
 Dipole X            :          0.0000000            0.0000000            0.0000000
 Dipole Y            :          0.0000000            0.0000000            0.0000000
 Dipole Z            :          0.9872977            0.3779474            1.3652451
 Magnitude           :                                                    1.3652451
    Molecular point group: c2v
  Basis Set: CC-PVDZ
    Blend: CC-PVDZ
  Basis Set: (CC-PVDZ AUX)
    Blend: CC-PVDZ-JKFIT
  Basis Set: CC-PVDZ
    Blend: CC-PVDZ
  Basis Set: (CC-PVDZ AUX)
    Blend: CC-PVDZ-JKFIT
  @DF-UKS Final Energy:  -296.67473532504010
    Total Energy =                       -296.6747353250401602
  Basis Set: CC-PVDZ
    Blend: CC-PVDZ
  Basis Set: (CC-PVDZ AUX)
    Blend: CC-PVDZ-JKFIT
  Basis Set: CC-PVDZ
    Blend: CC-PVDZ
  @DF-UKS Final Energy:  -296.79995251402323
    Total Energy =                       -296.7999525140232322
  @DF-UKS Final Energy:  -296.85969943139690
    Total Energy =                       -296.8596994313969049
  @DF-UKS Final Energy:  -296.88654811205879
    Total Energy =                       -296.8865481120587901
  @DF-UKS Final Energy:  -296.89474317647932
    Total Energy =                       -296.8947431764793237
  @DF-UKS Final Energy:  -296.89856646325768
    Total Energy =                       -296.8985664632576800
  @DF-UKS Final Energy:  -296.89980361669990
    Total Energy =                       -296.8998036166998986
  @DF-UKS Final Energy:  -296.97665227015767
    Total Energy =                       -296.9766522701577287
  @DF-UKS Final Energy:  -296.98258733352014
    Total Energy =                       -296.9825873335201436
  @DF-UKS Final Energy:  -296.98304386452179
    Total Energy =                       -296.9830438645217896
  @DF-UKS Final Energy:  -296.98312180843271
    Total Energy =                       -296.9831218084327134
  Basis Set: (CC-PVDZ AUX)
    Blend: CC-PVDZ-JKFIT
  Basis Set: CC-PVDZ
    Blend: CC-PVDZ
  Basis Set: (CC-PVDZ AUX)
    Blend: CC-PVDZ-JKFIT
  @DF-UKS Final Energy:  -296.98312833311223
    Total Energy =                       -296.9831283331122336
  Basis Set: CC-PVDZ
    Blend: CC-PVDZ
  Basis Set: (CC-PVDZ AUX)
    Blend: CC-PVDZ-JKFIT
  Charge       = -1
  Multiplicity = 6
  Basis Set: CC-PVDZ
    Blend: CC-PVDZ
  Basis Set: (CC-PVDZ AUX)
    Blend: CC-PVDZ-JKFIT

    Orbital Energies [Eh]
    ---------------------

    Alpha Occupied:

       1A1   -55.841275     2A1   -14.208773     3A1    -3.921191
       4A1    -2.474749     1B1    -2.473977     1B2    -2.473977
       5A1    -0.592194     6A1    -0.167127     2B1    -0.140857
       2B2    -0.140857     7A1    -0.070408     3B2     0.072592
       3B1     0.072592

    Alpha Virtual:

       8A1     0.181101     9A1     0.345950     4B1     0.401545
       4B2     0.401545    10A1     0.422158     1A2     0.457334
      11A1     0.457335     5B2     0.482420     5B1     0.482420
      12A1     0.586750     6B1     0.918464     6B2     0.918464
      13A1     0.933654    14A1     1.364205     2A2     1.886856
      15A1     1.886869     7B2     1.943108     7B1     1.943108
      16A1     2.089690

    Beta Occupied:

       1A1   -55.836835     2A1   -14.161844     3A1    -3.915207
       4A1    -2.470533     1B2    -2.465854     1B1    -2.465854
       5A1    -0.432588     6A1    -0.077692

    Beta Virtual:

       7A1     0.066207     2B1     0.083740     2B2     0.083740
       3B2     0.186236     3B1     0.186236     8A1     0.222783
       9A1     0.378611     4B1     0.440946     4B2     0.440946
      10A1     0.452696     1A2     0.526346    11A1     0.526346
       5B2     0.536602     5B1     0.536602    12A1     0.631625
      13A1     1.000413     6B1     1.020012     6B2     1.020012
      14A1     1.447015     2A2     2.033071    15A1     2.033083
       7B2     2.054141     7B1     2.054141    16A1     2.187830

    Final Occupation by Irrep:
             A1    A2    B1    B2
    DOCC [     6,    0,    1,    1 ]
    SOCC [     1,    0,    2,    2 ]
    NA   [     7,    0,    3,    3 ]
    NB   [     6,    0,    1,    1 ]

  @DF-UKS Final Energy:  -296.98312869827714

   => Energetics <=

    Nuclear Repulsion Energy =             21.6225202079710179
    One-Electron Energy =                -458.2662719593412248
    Two-Electron Energy =                 160.3061114835585101
    DFT Exchange-Correlation Energy =     -20.6454884304654591
    Empirical Dispersion Energy =           0.0000000000000000
    VV10 Nonlocal Energy =                  0.0000000000000000
    Total Energy =                       -296.9831286982771417

  UHF NO Occupations:
  HONO-2 :    3 B1 1.0000000
  HONO-1 :    7 A1 1.0000000
  HONO-0 :    3 B2 1.0000000
  LUNO+0 :    8 A1 0.0059737
  LUNO+1 :    9 A1 0.0008128
  LUNO+2 :   10 A1 0.0000003
  LUNO+3 :   11 A1 0.0000002

Computation Completed

Properties will be evaluated at   0.000000,   0.000000,   0.000000 [a0]

Properties computed using the SCF density matrix

 Multipole Moments:

 ------------------------------------------------------------------------------------
     Multipole            Electronic (a.u.)      Nuclear  (a.u.)        Total (a.u.)
 ------------------------------------------------------------------------------------

 L = 1.  Multiply by 2.5417464519 to convert [e a0] to [Debye]
 Dipole X            :          0.0000000            0.0000000            0.0000000
 Dipole Y            :          0.0000000            0.0000000            0.0000000
 Dipole Z            :          0.1986747            0.7014332            0.9001079
 Magnitude           :                                                    0.9001079

 ------------------------------------------------------------------------------------

*** tstop() called on Joses-MacBook-Pro-2.local at Thu Jul 17 10:30:56 2025
Module time:
	user time   =       3.51 seconds =       0.06 minutes
	system time =       2.65 seconds =       0.04 minutes
	total time  =          1 seconds =       0.02 minutes
Total time:
	user time   =      84.79 seconds =       1.41 minutes
	system time =      67.97 seconds =       1.13 minutes
	total time  =         15 seconds =       0.25 minutes

*** tstart() called on Joses-MacBook-Pro-2.local
*** at Thu Jul 17 10:30:56 2025

         ------------------------------------------------------------
                                   SCF GRAD
                          Rob Parrish, Justin Turney,
                       Andy Simmonett, and Alex Sokolov
         ------------------------------------------------------------

  ==> Geometry <==

    Molecular point group: c2v
    Full point group: C_inf_v

    Geometry (in Angstrom), charge = -1, multiplicity = 6:

       Center              X                  Y                   Z               Mass
    ------------   -----------------  -----------------  -----------------  -----------------
         N            0.000000000000     0.000000000000     1.466162441260    14.003074004430
         AL           0.000000000000     0.000000000000    -0.760919587467    26.981538530000

  Nuclear repulsion =   21.622520207971018

  ==> Basis Set <==

  Basis Set: CC-PVDZ
    Blend: CC-PVDZ
    Number of shells: 14
    Number of basis functions: 32
    Number of Cartesian functions: 34
    Spherical Harmonics?: true
    Max angular momentum: 2

  ==> DFJKGrad: Density-Fitted SCF Gradients <==

    Gradient:                    1
    J tasked:                  Yes
    K tasked:                  Yes
    wK tasked:                  No
    OpenMP threads:              1
    Integrals threads:           1
    Memory [MiB]:              375
    Schwarz Cutoff:          1E-12
    Fitting Condition:       1E-10

   => Auxiliary Basis Set <=

  Basis Set: (CC-PVDZ AUX)
    Blend: CC-PVDZ-JKFIT
    Number of shells: 60
    Number of basis functions: 182
    Number of Cartesian functions: 211
    Spherical Harmonics?: true
    Max angular momentum: 3

  ==> DFT Potential <==

   => LibXC <=

    Version 6.2.2
    S. Lehtola, C. Steigemann, M. J.T. Oliveira, and M. A.L. Marques.,  SoftwareX 7, 1â€“5 (2018) (10.1016/j.softx.2017.11.002)

   => Composite Functional: B3LYP <=

    B3LYP Hyb-GGA Exchange-Correlation Functional

    P. J. Stephens, F. J. Devlin, C. F. Chabalowski, and M. J. Frisch.,  J. Phys. Chem. 98, 11623 (1994) (10.1021/j100096a001)

    Deriv               =              1
    GGA                 =           TRUE
    Meta                =          FALSE

    Exchange Hybrid     =           TRUE
    MP2 Hybrid          =          FALSE

   => Exchange Functionals <=

    0.0800   Slater exchange
    0.7200         Becke 88

   => Exact (HF) Exchange <=

    0.2000               HF

   => Correlation Functionals <=

    0.1900   Vosko, Wilk & Nusair (VWN5_RPA)
    0.8100   Lee, Yang & Parr

   => LibXC Density Thresholds  <==

    XC_HYB_GGA_XC_B3LYP:  1.00E-15

   => Molecular Quadrature <=

    Radial Scheme          =       TREUTLER
    Pruning Scheme         =           NONE
    Nuclear Scheme         =       TREUTLER

    Blocking Scheme        =         OCTREE
    BS radius alpha        =              1
    Pruning alpha          =              1
    Radial Points          =             75
    Spherical Points       =            302
    Total Points           =          43485
    Total Blocks           =            404
    Max Points             =            255
    Max Functions          =             32
    Weights Tolerance      =       1.00E-15

  -Total Gradient:
     Atom            X                  Y                   Z
    ------   -----------------  -----------------  -----------------
       1        0.000000000000     0.000000000000     0.000082478438
       2        0.000000000000    -0.000000000000    -0.000106038712

*** tstop() called on Joses-MacBook-Pro-2.local at Thu Jul 17 10:30:56 2025
Module time:
	user time   =       1.79 seconds =       0.03 minutes
	system time =       0.42 seconds =       0.01 minutes
	total time  =          0 seconds =       0.00 minutes
Total time:
	user time   =      86.59 seconds =       1.44 minutes
	system time =      68.40 seconds =       1.14 minutes
	total time  =         15 seconds =       0.25 minutes

    			-----------------------------------------

    			 OPTKING 3.0: for geometry optimizations

    			     By R.A. King, Bethel University

    			        with contributions from

    			    A.V. Copan, J. Cayton, A. Heide

    			-----------------------------------------

	                            ===> Fragment 1 <==

	 Z (Atomic Numbers)          Masses                          Geom
	       7.000000            14.003074          0.00000000  0.00000000  2.77064547
	      13.000000            26.981539          0.00000000  0.00000000 -1.43792962

	 - Coordinate -           - BOHR/RAD -       - ANG/DEG -
	 R(1,2)           =         4.208575           2.227082

	        --- Internal Coordinate Step in ANG or DEG, aJ/ANG or AJ/DEG ---
	-------------------------------------------------------------------------------
	           Coordinate      Previous         Force          Change          New
	           ----------      --------        ------          ------        ------
	               R(1,2)       2.22708       -0.00078       -0.00121       2.22587
	-------------------------------------------------------------------------------

	                                 ==> Convergence Check <==

	Measures of convergence in internal coordinates in au.

	Criteria marked as inactive (o), active & met (*), and active & unmet ( ).

	----------------------------------------------------------------------------------------------
	   Step    Total Energy     Delta E     Max Force     RMS Force      Max Disp      RMS Disp
	----------------------------------------------------------------------------------------------
	  Convergence Criteria     1.00e-06 *    3.00e-04 *             o    1.20e-03 *             o
	----------------------------------------------------------------------------------------------
	    14    -296.98312870   -3.65e-07 *    9.43e-05 *    9.43e-05 o    2.28e-03      2.28e-03 o  ~
	----------------------------------------------------------------------------------------------

Next Geometry in Ang
	Fragment 1 (Ang)

	    N   0.0000000000   0.0000000000   1.4655580543
	   Al   0.0000000000   0.0000000000  -0.7603152005

    Final optimized geometry and variables:
    Molecular point group: c2v
    Full point group: C_inf_v

    Geometry (in Angstrom), charge = -1, multiplicity = 6:

    N            0.000000000000     0.000000000000     1.466162441260
    AL           0.000000000000     0.000000000000    -0.760919587467

    Psi4 stopped on: Thursday, 17 July 2025 10:30AM
    Psi4 wall time for execution: 0:00:16.01

*** Psi4 exiting successfully. Buy a developer a beer!
