                               Psi4 1.9.1 release

  ==> Input File <==

--------------------------------------------------------------------------
molecule {
-1 6
F   0.00000        0.60000        0.00000
F   0.00000       -0.60000        0.00000
}

set {
basis              cc-pvdz
reference          uks
maxiter            500
geom_maxiter       500
DAMPING_PERCENTAGE 1
guess              SAP
}

optimize('b3lyp')
--------------------------------------------------------------------------

    Molecular point group: d2h
  Charge       = -1
  Multiplicity = 6
  Basis Set: CC-PVDZ
    Blend: CC-PVDZ
  Basis Set: (CC-PVDZ AUX)
    Blend: CC-PVDZ-JKFIT
  @DF-UKS Final Energy:  -196.93415470260840
    Total Energy =                       -196.9341547026083958
 Dipole X            :          0.0000000            0.0000000            0.0000000
 Dipole Y            :          0.0000000            0.0000000            0.0000000
 Dipole Z            :          0.0000000            0.0000000            0.0000000
 Magnitude           :                                                    0.0000000
    Molecular point group: d2h
  Basis Set: CC-PVDZ
    Blend: CC-PVDZ
  Basis Set: (CC-PVDZ AUX)
    Blend: CC-PVDZ-JKFIT
  Basis Set: CC-PVDZ
    Blend: CC-PVDZ
  Basis Set: (CC-PVDZ AUX)
    Blend: CC-PVDZ-JKFIT
  @DF-UKS Final Energy:  -197.05469336511220
    Total Energy =                       -197.0546933651122004
  Basis Set: CC-PVDZ
    Blend: CC-PVDZ
  Basis Set: (CC-PVDZ AUX)
    Blend: CC-PVDZ-JKFIT
  Basis Set: CC-PVDZ
    Blend: CC-PVDZ
  @DF-UKS Final Energy:  -197.05575928333795
    Total Energy =                       -197.0557592833379488
  @DF-UKS Final Energy:  -197.05600340006953
    Total Energy =                       -197.0560034000695282
  Basis Set: (CC-PVDZ AUX)
    Blend: CC-PVDZ-JKFIT
  Basis Set: CC-PVDZ
    Blend: CC-PVDZ
  Basis Set: (CC-PVDZ AUX)
    Blend: CC-PVDZ-JKFIT
  @DF-UKS Final Energy:  -197.05607959186381
    Total Energy =                       -197.0560795918638064
  Basis Set: CC-PVDZ
    Blend: CC-PVDZ
  Basis Set: (CC-PVDZ AUX)
    Blend: CC-PVDZ-JKFIT
  Charge       = -1
  Multiplicity = 6
  Basis Set: CC-PVDZ
    Blend: CC-PVDZ
  Basis Set: (CC-PVDZ AUX)
    Blend: CC-PVDZ-JKFIT

    Orbital Energies [Eh]
    ---------------------

    Alpha Occupied:

       1B2u  -24.374099     1Ag   -24.374021     2Ag    -1.015711
       2B2u   -0.829015     3Ag    -0.290272     1B3u   -0.238768
       1B1u   -0.232152     1B1g   -0.136073     1B3g   -0.127244
       3B2u    0.015245     2B3u    1.199664     4B2u    1.262735

    Alpha Virtual:

       2B1u    1.297408     2B1g    1.453625     2B3g    1.483123
       4Ag     1.509791     5Ag     1.737302     5B2u    2.265574
       6Ag     3.472280     3B1u    3.656178     3B3u    3.668709
       1B2g    3.774166     7Ag     3.774756     1Au     3.805879
       6B2u    3.806321     3B3g    3.982013     3B1g    3.994049
       7B2u    4.712449

    Beta Occupied:

       1Ag   -24.289781     1B2u  -24.289716     2Ag    -0.864288
       2B2u   -0.650846     3Ag    -0.108566     1B1u   -0.077212
       1B3u   -0.046625

    Beta Virtual:

       1B3g    0.111392     1B1g    0.142581     3B2u    0.304245
       2B1u    1.402629     2B3u    1.433680     4B2u    1.486502
       2B3g    1.584806     2B1g    1.612699     4Ag     1.689344
       5Ag     1.859719     5B2u    2.370737     6Ag     3.584672
       3B1u    3.767483     3B3u    3.788531     1B2g    3.896793
       7Ag     3.897353     6B2u    3.931323     1Au     3.931345
       3B3g    4.099567     3B1g    4.121461     7B2u    4.834988

    Final Occupation by Irrep:
             Ag   B1g   B2g   B3g    Au   B1u   B2u   B3u
    DOCC [     3,    0,    0,    0,    0,    1,    2,    1 ]
    SOCC [     0,    1,    0,    1,    0,    0,    2,    1 ]
    NA   [     3,    1,    0,    1,    0,    1,    4,    2 ]
    NB   [     3,    0,    0,    0,    0,    1,    2,    1 ]

  @DF-UKS Final Energy:  -197.05608007282416

   => Energetics <=

    Nuclear Repulsion Energy =             29.0904318618924549
    One-Electron Energy =                -340.5028173377263556
    Two-Electron Energy =                 131.5566253900963147
    DFT Exchange-Correlation Energy =     -17.2003199870865799
    Empirical Dispersion Energy =           0.0000000000000000
    VV10 Nonlocal Energy =                  0.0000000000000000
    Total Energy =                       -197.0560800728241588

  UHF NO Occupations:
  HONO-2 :    1B3g 1.0000000
  HONO-1 :    1B1g 1.0000000
  HONO-0 :    2B3u 1.0000000
  LUNO+0 :    2B1u 0.0018490
  LUNO+1 :    4 Ag 0.0013839
  LUNO+2 :    5 Ag 0.0004120
  LUNO+3 :    5B2u 0.0001984

Computation Completed

Properties will be evaluated at   0.000000,   0.000000,   0.000000 [a0]

Properties computed using the SCF density matrix

 Multipole Moments:

 ------------------------------------------------------------------------------------
     Multipole            Electronic (a.u.)      Nuclear  (a.u.)        Total (a.u.)
 ------------------------------------------------------------------------------------

 L = 1.  Multiply by 2.5417464519 to convert [e a0] to [Debye]
 Dipole X            :          0.0000000            0.0000000            0.0000000
 Dipole Y            :          0.0000000            0.0000000            0.0000000
 Dipole Z            :          0.0000000            0.0000000            0.0000000
 Magnitude           :                                                    0.0000000

 ------------------------------------------------------------------------------------

*** tstop() called on Joses-MacBook-Pro-2.local at Thu Jul 17 10:49:47 2025
Module time:
	user time   =       2.89 seconds =       0.05 minutes
	system time =       2.76 seconds =       0.05 minutes
	total time  =          0 seconds =       0.00 minutes
Total time:
	user time   =      27.62 seconds =       0.46 minutes
	system time =      23.51 seconds =       0.39 minutes
	total time  =          5 seconds =       0.08 minutes

*** tstart() called on Joses-MacBook-Pro-2.local
*** at Thu Jul 17 10:49:47 2025

         ------------------------------------------------------------
                                   SCF GRAD
                          Rob Parrish, Justin Turney,
                       Andy Simmonett, and Alex Sokolov
         ------------------------------------------------------------

  ==> Geometry <==

    Molecular point group: d2h
    Full point group: D_inf_h

    Geometry (in Angstrom), charge = -1, multiplicity = 6:

       Center              X                  Y                   Z               Mass
    ------------   -----------------  -----------------  -----------------  -----------------
         F           -0.000000000000     0.736725983783     0.000000000000    18.998403162730
         F            0.000000000000    -0.736725983783     0.000000000000    18.998403162730

  Nuclear repulsion =   29.090431861892455

  ==> Basis Set <==

  Basis Set: CC-PVDZ
    Blend: CC-PVDZ
    Number of shells: 12
    Number of basis functions: 28
    Number of Cartesian functions: 30
    Spherical Harmonics?: true
    Max angular momentum: 2

  ==> DFJKGrad: Density-Fitted SCF Gradients <==

    Gradient:                    1
    J tasked:                  Yes
    K tasked:                  Yes
    wK tasked:                  No
    OpenMP threads:              1
    Integrals threads:           1
    Memory [MiB]:              375
    Schwarz Cutoff:          1E-12
    Fitting Condition:       1E-10

   => Auxiliary Basis Set <=

  Basis Set: (CC-PVDZ AUX)
    Blend: CC-PVDZ-JKFIT
    Number of shells: 48
    Number of basis functions: 140
    Number of Cartesian functions: 162
    Spherical Harmonics?: true
    Max angular momentum: 3

  ==> DFT Potential <==

   => LibXC <=

    Version 6.2.2
    S. Lehtola, C. Steigemann, M. J.T. Oliveira, and M. A.L. Marques.,  SoftwareX 7, 1â€“5 (2018) (10.1016/j.softx.2017.11.002)

   => Composite Functional: B3LYP <=

    B3LYP Hyb-GGA Exchange-Correlation Functional

    P. J. Stephens, F. J. Devlin, C. F. Chabalowski, and M. J. Frisch.,  J. Phys. Chem. 98, 11623 (1994) (10.1021/j100096a001)

    Deriv               =              1
    GGA                 =           TRUE
    Meta                =          FALSE

    Exchange Hybrid     =           TRUE
    MP2 Hybrid          =          FALSE

   => Exchange Functionals <=

    0.0800   Slater exchange
    0.7200         Becke 88

   => Exact (HF) Exchange <=

    0.2000               HF

   => Correlation Functionals <=

    0.1900   Vosko, Wilk & Nusair (VWN5_RPA)
    0.8100   Lee, Yang & Parr

   => LibXC Density Thresholds  <==

    XC_HYB_GGA_XC_B3LYP:  1.00E-15

   => Molecular Quadrature <=

    Radial Scheme          =       TREUTLER
    Pruning Scheme         =           NONE
    Nuclear Scheme         =       TREUTLER

    Blocking Scheme        =         OCTREE
    BS radius alpha        =              1
    Pruning alpha          =              1
    Radial Points          =             75
    Spherical Points       =            302
    Total Points           =          42048
    Total Blocks           =            382
    Max Points             =            254
    Max Functions          =             28
    Weights Tolerance      =       1.00E-15

  -Total Gradient:
     Atom            X                  Y                   Z
    ------   -----------------  -----------------  -----------------
       1        0.000000000000    -0.000060999947     0.000000000000
       2       -0.000000000000     0.000060999947     0.000000000000

*** tstop() called on Joses-MacBook-Pro-2.local at Thu Jul 17 10:49:47 2025
Module time:
	user time   =       1.00 seconds =       0.02 minutes
	system time =       0.28 seconds =       0.00 minutes
	total time  =          0 seconds =       0.00 minutes
Total time:
	user time   =      28.63 seconds =       0.48 minutes
	system time =      23.79 seconds =       0.40 minutes
	total time  =          5 seconds =       0.08 minutes

    			-----------------------------------------

    			 OPTKING 3.0: for geometry optimizations

    			     By R.A. King, Bethel University

    			        with contributions from

    			    A.V. Copan, J. Cayton, A. Heide

    			-----------------------------------------

	                            ===> Fragment 1 <==

	 Z (Atomic Numbers)          Masses                          Geom
	       9.000000            18.998403         -0.00000000  1.39221034  0.00000000
	       9.000000            18.998403          0.00000000 -1.39221034  0.00000000

	 - Coordinate -           - BOHR/RAD -       - ANG/DEG -
	 R(1,2)           =         2.784421           1.473452

	        --- Internal Coordinate Step in ANG or DEG, aJ/ANG or AJ/DEG ---
	-------------------------------------------------------------------------------
	           Coordinate      Previous         Force          Change          New
	           ----------      --------        ------          ------        ------
	               R(1,2)       1.47345        0.00050        0.00005       1.47350
	-------------------------------------------------------------------------------

	                                 ==> Convergence Check <==

	Measures of convergence in internal coordinates in au.

	Criteria marked as inactive (o), active & met (*), and active & unmet ( ).

	----------------------------------------------------------------------------------------------
	   Step    Total Energy     Delta E     Max Force     RMS Force      Max Disp      RMS Disp
	----------------------------------------------------------------------------------------------
	  Convergence Criteria     1.00e-06 *    3.00e-04 *             o    1.20e-03 *             o
	----------------------------------------------------------------------------------------------
	     6    -197.05608007   -4.81e-07 *    6.10e-05 *    6.10e-05 o    9.76e-05 *    9.76e-05 o  ~
	----------------------------------------------------------------------------------------------

Next Geometry in Ang
	Fragment 1 (Ang)

	    F  -0.0000000000   0.7367518083   0.0000000000
	    F   0.0000000000  -0.7367518083   0.0000000000

    Final optimized geometry and variables:
    Molecular point group: d2h
    Full point group: D_inf_h

    Geometry (in Angstrom), charge = -1, multiplicity = 6:

    F           -0.000000000000     0.736725983783     0.000000000000
    F            0.000000000000    -0.736725983783     0.000000000000

    Psi4 stopped on: Thursday, 17 July 2025 10:49AM
    Psi4 wall time for execution: 0:00:06.07

*** Psi4 exiting successfully. Buy a developer a beer!
