                               Psi4 1.9.1 release

  ==> Input File <==

--------------------------------------------------------------------------
molecule {
-1 6
Al   0.00000        0.60000        0.00000
Al   0.00000       -0.60000        0.00000
}

set {
basis              cc-pvdz
reference          uks
maxiter            500
geom_maxiter       500
DAMPING_PERCENTAGE 1
guess              SAP
}

optimize('b3lyp')
--------------------------------------------------------------------------

    Molecular point group: d2h
  Charge       = -1
  Multiplicity = 6
  Basis Set: CC-PVDZ
    Blend: CC-PVDZ
  Basis Set: (CC-PVDZ AUX)
    Blend: CC-PVDZ-JKFIT
  @DF-UKS Final Energy:  -483.63522399005518
    Total Energy =                       -483.6352239900551808
 Dipole X            :          0.0000000            0.0000000            0.0000000
 Dipole Y            :          0.0000000            0.0000000            0.0000000
 Dipole Z            :          0.0000000            0.0000000            0.0000000
 Magnitude           :                                                    0.0000000
    Molecular point group: d2h
  Basis Set: CC-PVDZ
    Blend: CC-PVDZ
  Basis Set: (CC-PVDZ AUX)
    Blend: CC-PVDZ-JKFIT
  Basis Set: CC-PVDZ
    Blend: CC-PVDZ
  Basis Set: (CC-PVDZ AUX)
    Blend: CC-PVDZ-JKFIT
  @DF-UKS Final Energy:  -483.64836967186505
    Total Energy =                       -483.6483696718650549
  Basis Set: CC-PVDZ
    Blend: CC-PVDZ
  Basis Set: (CC-PVDZ AUX)
    Blend: CC-PVDZ-JKFIT
  Basis Set: CC-PVDZ
    Blend: CC-PVDZ
  @DF-UKS Final Energy:  -483.67384134810777
    Total Energy =                       -483.6738413481077714
  @DF-UKS Final Energy:  -483.76719288571240
    Total Energy =                       -483.7671928857124044
  @DF-UKS Final Energy:  -484.19961811767109
    Total Energy =                       -484.1996181176710934
  @DF-UKS Final Energy:  -484.47537571236751
    Total Energy =                       -484.4753757123675086
  @DF-UKS Final Energy:  -484.62993814396697
    Total Energy =                       -484.6299381439669673
  @DF-UKS Final Energy:  -484.69549555705134
    Total Energy =                       -484.6954955570513448
  @DF-UKS Final Energy:  -484.72276631141426
    Total Energy =                       -484.7227663114142615
  @DF-UKS Final Energy:  -484.73244599065572
    Total Energy =                       -484.7324459906557195
  @DF-UKS Final Energy:  -484.73495487086939
    Total Energy =                       -484.7349548708693874
  @DF-UKS Final Energy:  -484.73527588252375
    Total Energy =                       -484.7352758825237515
  @DF-UKS Final Energy:  -484.73532049652778
    Total Energy =                       -484.7353204965277769
  Basis Set: (CC-PVDZ AUX)
    Blend: CC-PVDZ-JKFIT
  Basis Set: CC-PVDZ
    Blend: CC-PVDZ
  Basis Set: (CC-PVDZ AUX)
    Blend: CC-PVDZ-JKFIT
  @DF-UKS Final Energy:  -484.73532781691318
    Total Energy =                       -484.7353278169131841
  Basis Set: CC-PVDZ
    Blend: CC-PVDZ
  Basis Set: (CC-PVDZ AUX)
    Blend: CC-PVDZ-JKFIT
  Charge       = -1
  Multiplicity = 6
  Basis Set: CC-PVDZ
    Blend: CC-PVDZ
  Basis Set: (CC-PVDZ AUX)
    Blend: CC-PVDZ-JKFIT

    Orbital Energies [Eh]
    ---------------------

    Alpha Occupied:

       1B2u  -55.881216     1Ag   -55.881216     2B2u   -3.962961
       2Ag    -3.962946     1B1u   -2.517109     1B3g   -2.517036
       3Ag    -2.515884     1B3u   -2.515383     1B1g   -2.515314
       3B2u   -2.515048     4Ag    -0.217335     4B2u   -0.120591
       5Ag    -0.000103     2B3u    0.001525     2B1u    0.006614
       2B1g    0.070065

    Alpha Virtual:

       2B3g    0.109606     5B2u    0.183618     6Ag     0.287263
       7Ag     0.322177     3B1u    0.337740     3B3u    0.340065
       6B2u    0.359805     1B2g    0.388266     8Ag     0.389224
       3B1g    0.392042     3B3g    0.395672     4B3u    0.397172
       4B1u    0.399513     1Au     0.468462     7B2u    0.469336
       8B2u    0.473438     9Ag     0.580772     4B1g    0.610830
       4B3g    0.611019     9B2u    0.817634

    Beta Occupied:

       1B2u  -55.875436     1Ag   -55.875435     2B2u   -3.954966
       2Ag    -3.954924     1B1u   -2.509874     1B3g   -2.509794
       3Ag    -2.507230     3B2u   -2.506403     1B3u   -2.505334
       1B1g   -2.505254     4Ag    -0.144653

    Beta Virtual:

       4B2u    0.003897     2B1u    0.091023     2B3u    0.104964
       5Ag     0.106955     2B3g    0.163567     2B1g    0.178512
       5B2u    0.220951     6Ag     0.321394     7Ag     0.363710
       3B1u    0.372163     3B3u    0.382793     6B2u    0.417536
       3B3g    0.427890     3B1g    0.440300     1B2g    0.450667
       8Ag     0.451005     4B1u    0.453020     4B3u    0.467737
       7B2u    0.502951     1Au     0.532361     8B2u    0.532854
       9Ag     0.633636     4B3g    0.662047     4B1g    0.675847
       9B2u    0.859456

    Final Occupation by Irrep:
             Ag   B1g   B2g   B3g    Au   B1u   B2u   B3u
    DOCC [     4,    1,    0,    1,    0,    1,    3,    1 ]
    SOCC [     1,    1,    0,    0,    0,    1,    1,    1 ]
    NA   [     5,    2,    0,    1,    0,    2,    4,    2 ]
    NB   [     4,    1,    0,    1,    0,    1,    3,    1 ]

  @DF-UKS Final Energy:  -484.73532813297408

   => Energetics <=

    Nuclear Repulsion Energy =             35.3378469557756674
    One-Electron Energy =                -748.7643835457270143
    Two-Electron Energy =                 258.8271397542750947
    DFT Exchange-Correlation Energy =     -30.1359312972978479
    Empirical Dispersion Energy =           0.0000000000000000
    VV10 Nonlocal Energy =                  0.0000000000000000
    Total Energy =                       -484.7353281329740753

  UHF NO Occupations:
  HONO-2 :    2B3u 1.0000000
  HONO-1 :    5 Ag 1.0000000
  HONO-0 :    2B1u 1.0000000
  LUNO+0 :    6 Ag 0.0002943
  LUNO+1 :    2B3g 0.0000004
  LUNO+2 :    5B2u 0.0000002
  LUNO+3 :    3B3u 0.0000002

Computation Completed

Properties will be evaluated at   0.000000,   0.000000,   0.000000 [a0]

Properties computed using the SCF density matrix

 Multipole Moments:

 ------------------------------------------------------------------------------------
     Multipole            Electronic (a.u.)      Nuclear  (a.u.)        Total (a.u.)
 ------------------------------------------------------------------------------------

 L = 1.  Multiply by 2.5417464519 to convert [e a0] to [Debye]
 Dipole X            :          0.0000000            0.0000000            0.0000000
 Dipole Y            :          0.0000000            0.0000000            0.0000000
 Dipole Z            :          0.0000000            0.0000000            0.0000000
 Magnitude           :                                                    0.0000000

 ------------------------------------------------------------------------------------

*** tstop() called on Joses-MacBook-Pro-2.local at Thu Jul 17 11:35:06 2025
Module time:
	user time   =       5.73 seconds =       0.10 minutes
	system time =       2.27 seconds =       0.04 minutes
	total time  =          1 seconds =       0.02 minutes
Total time:
	user time   =     194.67 seconds =       3.24 minutes
	system time =      58.32 seconds =       0.97 minutes
	total time  =         26 seconds =       0.43 minutes

*** tstart() called on Joses-MacBook-Pro-2.local
*** at Thu Jul 17 11:35:06 2025

         ------------------------------------------------------------
                                   SCF GRAD
                          Rob Parrish, Justin Turney,
                       Andy Simmonett, and Alex Sokolov
         ------------------------------------------------------------

  ==> Geometry <==

    Molecular point group: d2h
    Full point group: D_inf_h

    Geometry (in Angstrom), charge = -1, multiplicity = 6:

       Center              X                  Y                   Z               Mass
    ------------   -----------------  -----------------  -----------------  -----------------
         AL          -0.000000000000     1.265370648007     0.000000000000    26.981538530000
         AL           0.000000000000    -1.265370648007     0.000000000000    26.981538530000

  Nuclear repulsion =   35.337846955775667

  ==> Basis Set <==

  Basis Set: CC-PVDZ
    Blend: CC-PVDZ
    Number of shells: 16
    Number of basis functions: 36
    Number of Cartesian functions: 38
    Spherical Harmonics?: true
    Max angular momentum: 2

  ==> DFJKGrad: Density-Fitted SCF Gradients <==

    Gradient:                    1
    J tasked:                  Yes
    K tasked:                  Yes
    wK tasked:                  No
    OpenMP threads:              1
    Integrals threads:           1
    Memory [MiB]:              375
    Schwarz Cutoff:          1E-12
    Fitting Condition:       1E-10

   => Auxiliary Basis Set <=

  Basis Set: (CC-PVDZ AUX)
    Blend: CC-PVDZ-JKFIT
    Number of shells: 72
    Number of basis functions: 224
    Number of Cartesian functions: 260
    Spherical Harmonics?: true
    Max angular momentum: 3

  ==> DFT Potential <==

   => LibXC <=

    Version 6.2.2
    S. Lehtola, C. Steigemann, M. J.T. Oliveira, and M. A.L. Marques.,  SoftwareX 7, 1â€“5 (2018) (10.1016/j.softx.2017.11.002)

   => Composite Functional: B3LYP <=

    B3LYP Hyb-GGA Exchange-Correlation Functional

    P. J. Stephens, F. J. Devlin, C. F. Chabalowski, and M. J. Frisch.,  J. Phys. Chem. 98, 11623 (1994) (10.1021/j100096a001)

    Deriv               =              1
    GGA                 =           TRUE
    Meta                =          FALSE

    Exchange Hybrid     =           TRUE
    MP2 Hybrid          =          FALSE

   => Exchange Functionals <=

    0.0800   Slater exchange
    0.7200         Becke 88

   => Exact (HF) Exchange <=

    0.2000               HF

   => Correlation Functionals <=

    0.1900   Vosko, Wilk & Nusair (VWN5_RPA)
    0.8100   Lee, Yang & Parr

   => LibXC Density Thresholds  <==

    XC_HYB_GGA_XC_B3LYP:  1.00E-15

   => Molecular Quadrature <=

    Radial Scheme          =       TREUTLER
    Pruning Scheme         =           NONE
    Nuclear Scheme         =       TREUTLER

    Blocking Scheme        =         OCTREE
    BS radius alpha        =              1
    Pruning alpha          =              1
    Radial Points          =             75
    Spherical Points       =            302
    Total Points           =          42358
    Total Blocks           =            400
    Max Points             =            249
    Max Functions          =             36
    Weights Tolerance      =       1.00E-15

  -Total Gradient:
     Atom            X                  Y                   Z
    ------   -----------------  -----------------  -----------------
       1        0.000000000000    -0.000050074051     0.000000000000
       2       -0.000000000000     0.000050074051     0.000000000000

*** tstop() called on Joses-MacBook-Pro-2.local at Thu Jul 17 11:35:06 2025
Module time:
	user time   =       2.65 seconds =       0.04 minutes
	system time =       1.24 seconds =       0.02 minutes
	total time  =          0 seconds =       0.00 minutes
Total time:
	user time   =     197.32 seconds =       3.29 minutes
	system time =      59.57 seconds =       0.99 minutes
	total time  =         26 seconds =       0.43 minutes

    			-----------------------------------------

    			 OPTKING 3.0: for geometry optimizations

    			     By R.A. King, Bethel University

    			        with contributions from

    			    A.V. Copan, J. Cayton, A. Heide

    			-----------------------------------------

	                            ===> Fragment 1 <==

	 Z (Atomic Numbers)          Masses                          Geom
	      13.000000            26.981539         -0.00000000  2.39120397  0.00000000
	      13.000000            26.981539          0.00000000 -2.39120397  0.00000000

	 - Coordinate -           - BOHR/RAD -       - ANG/DEG -
	 R(1,2)           =         4.782408           2.530741

	        --- Internal Coordinate Step in ANG or DEG, aJ/ANG or AJ/DEG ---
	-------------------------------------------------------------------------------
	           Coordinate      Previous         Force          Change          New
	           ----------      --------        ------          ------        ------
	               R(1,2)       2.53074        0.00041        0.00038       2.53112
	-------------------------------------------------------------------------------

	                                 ==> Convergence Check <==

	Measures of convergence in internal coordinates in au.

	Criteria marked as inactive (o), active & met (*), and active & unmet ( ).

	----------------------------------------------------------------------------------------------
	   Step    Total Energy     Delta E     Max Force     RMS Force      Max Disp      RMS Disp
	----------------------------------------------------------------------------------------------
	  Convergence Criteria     1.00e-06 *    3.00e-04 *             o    1.20e-03 *             o
	----------------------------------------------------------------------------------------------
	    15    -484.73532813   -3.16e-07 *    5.01e-05 *    5.01e-05 o    7.11e-04 *    7.11e-04 o  ~
	----------------------------------------------------------------------------------------------

Next Geometry in Ang
	Fragment 1 (Ang)

	   Al  -0.0000000000   1.2655586589   0.0000000000
	   Al   0.0000000000  -1.2655586589   0.0000000000

    Final optimized geometry and variables:
    Molecular point group: d2h
    Full point group: D_inf_h

    Geometry (in Angstrom), charge = -1, multiplicity = 6:

    AL          -0.000000000000     1.265370648007     0.000000000000
    AL           0.000000000000    -1.265370648007     0.000000000000

    Psi4 stopped on: Thursday, 17 July 2025 11:35AM
    Psi4 wall time for execution: 0:00:26.69

*** Psi4 exiting successfully. Buy a developer a beer!
