                               Psi4 1.9.1 release

  ==> Input File <==

--------------------------------------------------------------------------
molecule {
-1 6
N   0.00000        0.60000        0.00000
Cl   0.00000       -0.60000        0.00000
}

set {
basis              cc-pvdz
reference          uks
maxiter            500
geom_maxiter       500
DAMPING_PERCENTAGE 1
guess              SAP
}

optimize('b3lyp')
--------------------------------------------------------------------------

    Molecular point group: c2v
  Charge       = -1
  Multiplicity = 6
  Basis Set: CC-PVDZ
    Blend: CC-PVDZ
  Basis Set: (CC-PVDZ AUX)
    Blend: CC-PVDZ-JKFIT
  @DF-UKS Final Energy:  -513.60961806721230
    Total Energy =                       -513.6096180672122955
 Dipole X            :          0.0000000            0.0000000            0.0000000
 Dipole Y            :          0.0000000            0.0000000            0.0000000
 Dipole Z            :          0.7236375            0.3116229            1.0352604
 Magnitude           :                                                    1.0352604
    Molecular point group: c2v
  Basis Set: CC-PVDZ
    Blend: CC-PVDZ
  Basis Set: (CC-PVDZ AUX)
    Blend: CC-PVDZ-JKFIT
  Basis Set: CC-PVDZ
    Blend: CC-PVDZ
  Basis Set: (CC-PVDZ AUX)
    Blend: CC-PVDZ-JKFIT
  @DF-UKS Final Energy:  -513.76154370641893
    Total Energy =                       -513.7615437064189337
  Basis Set: CC-PVDZ
    Blend: CC-PVDZ
  Basis Set: (CC-PVDZ AUX)
    Blend: CC-PVDZ-JKFIT
  Basis Set: CC-PVDZ
    Blend: CC-PVDZ
  @DF-UKS Final Energy:  -513.85665064774219
    Total Energy =                       -513.8566506477421854
  @DF-UKS Final Energy:  -513.91583686596709
    Total Energy =                       -513.9158368659670941
  @DF-UKS Final Energy:  -513.98093292280578
    Total Energy =                       -513.9809329228057777
  @DF-UKS Final Energy:  -514.05759629293300
    Total Energy =                       -514.0575962929329989
  @DF-UKS Final Energy:  -514.07688698427671
    Total Energy =                       -514.0768869842767117
  @DF-UKS Final Energy:  -514.11025529427582
    Total Energy =                       -514.1102552942758166
  @DF-UKS Final Energy:  -514.11320208986217
    Total Energy =                       -514.1132020898621704
  @DF-UKS Final Energy:  -514.12034261124063
    Total Energy =                       -514.1203426112406305
  @DF-UKS Final Energy:  -514.12163781769152
    Total Energy =                       -514.1216378176914077
  @DF-UKS Final Energy:  -514.12193044630453
    Total Energy =                       -514.1219304463046456
  @DF-UKS Final Energy:  -514.12194899553435
    Total Energy =                       -514.1219489955343533
  Basis Set: (CC-PVDZ AUX)
    Blend: CC-PVDZ-JKFIT
  Basis Set: CC-PVDZ
    Blend: CC-PVDZ
  Basis Set: (CC-PVDZ AUX)
    Blend: CC-PVDZ-JKFIT
  @DF-UKS Final Energy:  -514.12195029781947
    Total Energy =                       -514.1219502978194669
  Basis Set: CC-PVDZ
    Blend: CC-PVDZ
  Basis Set: (CC-PVDZ AUX)
    Blend: CC-PVDZ-JKFIT
  Charge       = -1
  Multiplicity = 6
  Basis Set: CC-PVDZ
    Blend: CC-PVDZ
  Basis Set: (CC-PVDZ AUX)
    Blend: CC-PVDZ-JKFIT

    Orbital Energies [Eh]
    ---------------------

    Alpha Occupied:

       1A1  -101.189263     2A1   -14.199097     3A1    -9.128856
       4A1    -6.901381     1B1    -6.880101     1B2    -6.877422
       5A1    -0.590639     6A1    -0.524378     7A1    -0.148594
       2B2    -0.136343     2B1    -0.134208     8A1    -0.075803
       3B1    -0.045778     3B2    -0.044198     4B2     0.720518

    Alpha Virtual:

       9A1     0.759364     4B1     0.784378    10A1     0.802614
       5B2     0.861234     5B1     0.874925    11A1     0.893656
      12A1     0.957301     6B1     0.986213     6B2     0.994667
       1A2     1.030642    13A1     1.032260    14A1     1.221798
       7B1     1.890455    15A1     1.890865     2A2     1.890937
       7B2     1.893836    16A1     1.919799

    Beta Occupied:

       1A1  -101.175635     2A1   -14.140216     3A1    -9.115542
       4A1    -6.876742     1B1    -6.871953     1B2    -6.850919
       5A1    -0.455621     6A1    -0.391349     2B1    -0.024693
       2B2     0.005719

    Beta Virtual:

       7A1     0.048715     3B1     0.116173     3B2     0.122899
       8A1     0.142242     4B1     0.815089     9A1     0.839086
       4B2     0.840605    10A1     0.863161     5B1     0.971375
       5B2     0.981381    11A1     0.983304    12A1     1.042324
       6B1     1.048458     1A2     1.055396    13A1     1.062288
       6B2     1.069910    14A1     1.311018     7B1     2.036386
      15A1     2.037618     2A2     2.037842     7B2     2.040897
      16A1     2.064048

    Final Occupation by Irrep:
             A1    A2    B1    B2
    DOCC [     6,    0,    2,    2 ]
    SOCC [     2,    0,    1,    2 ]
    NA   [     8,    0,    3,    4 ]
    NB   [     6,    0,    2,    2 ]

  @DF-UKS Final Energy:  -514.12195039674350

   => Energetics <=

    Nuclear Repulsion Energy =             22.0969122619781153
    One-Electron Energy =                -760.0959240010206486
    Two-Electron Energy =                 252.3649168242095016
    DFT Exchange-Correlation Energy =     -28.4878554819104721
    Empirical Dispersion Energy =           0.0000000000000000
    VV10 Nonlocal Energy =                  0.0000000000000000
    Total Energy =                       -514.1219503967435003

  UHF NO Occupations:
  HONO-2 :    3 B1 1.0000000
  HONO-1 :    8 A1 1.0000000
  HONO-0 :    4 B2 1.0000000
  LUNO+0 :    9 A1 0.0010564
  LUNO+1 :   10 A1 0.0007186
  LUNO+2 :    4 B1 0.0000931
  LUNO+3 :    5 B2 0.0000088

Computation Completed

Properties will be evaluated at   0.000000,   0.000000,   0.000000 [a0]

Properties computed using the SCF density matrix

 Multipole Moments:

 ------------------------------------------------------------------------------------
     Multipole            Electronic (a.u.)      Nuclear  (a.u.)        Total (a.u.)
 ------------------------------------------------------------------------------------

 L = 1.  Multiply by 2.5417464519 to convert [e a0] to [Debye]
 Dipole X            :          0.0000000            0.0000000            0.0000000
 Dipole Y            :          0.0000000            0.0000000            0.0000000
 Dipole Z            :         -0.1983290            0.7400560            0.5417270
 Magnitude           :                                                    0.5417270

 ------------------------------------------------------------------------------------

*** tstop() called on Joses-MacBook-Pro-2.local at Thu Jul 17 10:37:21 2025
Module time:
	user time   =       2.85 seconds =       0.05 minutes
	system time =       3.92 seconds =       0.07 minutes
	total time  =          1 seconds =       0.02 minutes
Total time:
	user time   =      76.48 seconds =       1.27 minutes
	system time =      90.21 seconds =       1.50 minutes
	total time  =         18 seconds =       0.30 minutes

*** tstart() called on Joses-MacBook-Pro-2.local
*** at Thu Jul 17 10:37:21 2025

         ------------------------------------------------------------
                                   SCF GRAD
                          Rob Parrish, Justin Turney,
                       Andy Simmonett, and Alex Sokolov
         ------------------------------------------------------------

  ==> Geometry <==

    Molecular point group: c2v
    Full point group: C_inf_v

    Geometry (in Angstrom), charge = -1, multiplicity = 6:

       Center              X                  Y                   Z               Mass
    ------------   -----------------  -----------------  -----------------  -----------------
         N            0.000000000000     0.000000000000     2.034935722370    14.003074004430
         CL           0.000000000000     0.000000000000    -0.814878193853    34.968852682000

  Nuclear repulsion =   22.096912261978115

  ==> Basis Set <==

  Basis Set: CC-PVDZ
    Blend: CC-PVDZ
    Number of shells: 14
    Number of basis functions: 32
    Number of Cartesian functions: 34
    Spherical Harmonics?: true
    Max angular momentum: 2

  ==> DFJKGrad: Density-Fitted SCF Gradients <==

    Gradient:                    1
    J tasked:                  Yes
    K tasked:                  Yes
    wK tasked:                  No
    OpenMP threads:              1
    Integrals threads:           1
    Memory [MiB]:              375
    Schwarz Cutoff:          1E-12
    Fitting Condition:       1E-10

   => Auxiliary Basis Set <=

  Basis Set: (CC-PVDZ AUX)
    Blend: CC-PVDZ-JKFIT
    Number of shells: 60
    Number of basis functions: 182
    Number of Cartesian functions: 211
    Spherical Harmonics?: true
    Max angular momentum: 3

  ==> DFT Potential <==

   => LibXC <=

    Version 6.2.2
    S. Lehtola, C. Steigemann, M. J.T. Oliveira, and M. A.L. Marques.,  SoftwareX 7, 1â€“5 (2018) (10.1016/j.softx.2017.11.002)

   => Composite Functional: B3LYP <=

    B3LYP Hyb-GGA Exchange-Correlation Functional

    P. J. Stephens, F. J. Devlin, C. F. Chabalowski, and M. J. Frisch.,  J. Phys. Chem. 98, 11623 (1994) (10.1021/j100096a001)

    Deriv               =              1
    GGA                 =           TRUE
    Meta                =          FALSE

    Exchange Hybrid     =           TRUE
    MP2 Hybrid          =          FALSE

   => Exchange Functionals <=

    0.0800   Slater exchange
    0.7200         Becke 88

   => Exact (HF) Exchange <=

    0.2000               HF

   => Correlation Functionals <=

    0.1900   Vosko, Wilk & Nusair (VWN5_RPA)
    0.8100   Lee, Yang & Parr

   => LibXC Density Thresholds  <==

    XC_HYB_GGA_XC_B3LYP:  1.00E-15

   => Molecular Quadrature <=

    Radial Scheme          =       TREUTLER
    Pruning Scheme         =           NONE
    Nuclear Scheme         =       TREUTLER

    Blocking Scheme        =         OCTREE
    BS radius alpha        =              1
    Pruning alpha          =              1
    Radial Points          =             75
    Spherical Points       =            302
    Total Points           =          41236
    Total Blocks           =            370
    Max Points             =            256
    Max Functions          =             32
    Weights Tolerance      =       1.00E-15

  -Total Gradient:
     Atom            X                  Y                   Z
    ------   -----------------  -----------------  -----------------
       1        0.000000000000     0.000000000000    -0.000012228550
       2        0.000000000000     0.000000000000     0.000023391150

*** tstop() called on Joses-MacBook-Pro-2.local at Thu Jul 17 10:37:21 2025
Module time:
	user time   =       0.80 seconds =       0.01 minutes
	system time =       1.47 seconds =       0.02 minutes
	total time  =          0 seconds =       0.00 minutes
Total time:
	user time   =      77.30 seconds =       1.29 minutes
	system time =      91.69 seconds =       1.53 minutes
	total time  =         18 seconds =       0.30 minutes

    			-----------------------------------------

    			 OPTKING 3.0: for geometry optimizations

    			     By R.A. King, Bethel University

    			        with contributions from

    			    A.V. Copan, J. Cayton, A. Heide

    			-----------------------------------------

	                            ===> Fragment 1 <==

	 Z (Atomic Numbers)          Masses                          Geom
	       7.000000            14.003074          0.00000000  0.00000000  3.84547120
	      17.000000            34.968853          0.00000000  0.00000000 -1.53989661

	 - Coordinate -           - BOHR/RAD -       - ANG/DEG -
	 R(1,2)           =         5.385368           2.849814

	        --- Internal Coordinate Step in ANG or DEG, aJ/ANG or AJ/DEG ---
	-------------------------------------------------------------------------------
	           Coordinate      Previous         Force          Change          New
	           ----------      --------        ------          ------        ------
	               R(1,2)       2.84981        0.00015        0.00037       2.85018
	-------------------------------------------------------------------------------

	                                 ==> Convergence Check <==

	Measures of convergence in internal coordinates in au.

	Criteria marked as inactive (o), active & met (*), and active & unmet ( ).

	----------------------------------------------------------------------------------------------
	   Step    Total Energy     Delta E     Max Force     RMS Force      Max Disp      RMS Disp
	----------------------------------------------------------------------------------------------
	  Convergence Criteria     1.00e-06 *    3.00e-04 *             o    1.20e-03 *             o
	----------------------------------------------------------------------------------------------
	    15    -514.12195040   -9.89e-08 *    1.78e-05 *    1.78e-05 o    6.93e-04 *    6.93e-04 o  ~
	----------------------------------------------------------------------------------------------

Next Geometry in Ang
	Fragment 1 (Ang)

	    N   0.0000000000   0.0000000000   2.0351190719
	   Cl   0.0000000000   0.0000000000  -0.8150615434

    Final optimized geometry and variables:
    Molecular point group: c2v
    Full point group: C_inf_v

    Geometry (in Angstrom), charge = -1, multiplicity = 6:

    N            0.000000000000     0.000000000000     2.034935722370
    CL           0.000000000000     0.000000000000    -0.814878193853

    Psi4 stopped on: Thursday, 17 July 2025 10:37AM
    Psi4 wall time for execution: 0:00:18.38

*** Psi4 exiting successfully. Buy a developer a beer!
