                               Psi4 1.9.1 release

  ==> Input File <==

--------------------------------------------------------------------------
molecule {
-1 6
Li   0.00000        0.60000        0.00000
F   0.00000       -0.60000        0.00000
}

set {
basis              cc-pvdz
reference          uks
maxiter            500
geom_maxiter       500
DAMPING_PERCENTAGE 1
guess              SAP
}

optimize('b3lyp')
--------------------------------------------------------------------------

    Molecular point group: c2v
  Charge       = -1
  Multiplicity = 6
  Basis Set: CC-PVDZ
    Blend: CC-PVDZ
  Basis Set: (CC-PVDZ AUX)
    Blend: CC-PVDZ-JKFIT + DEF2-UNIVERSAL-JKFIT
  @DF-UKS Final Energy:  -106.46573111795368
    Total Energy =                       -106.4657311179536805
 Dipole X            :          0.0000000            0.0000000            0.0000000
 Dipole Y            :          0.0000000            0.0000000            0.0000000
 Dipole Z            :         -1.9333098           -0.5359917           -2.4693015
 Magnitude           :                                                    2.4693015
    Molecular point group: c2v
  Basis Set: CC-PVDZ
    Blend: CC-PVDZ
  Basis Set: (CC-PVDZ AUX)
    Blend: CC-PVDZ-JKFIT + DEF2-UNIVERSAL-JKFIT
  Basis Set: CC-PVDZ
    Blend: CC-PVDZ
  Basis Set: (CC-PVDZ AUX)
    Blend: CC-PVDZ-JKFIT + DEF2-UNIVERSAL-JKFIT
  @DF-UKS Final Energy:  -106.58035113151068
    Total Energy =                       -106.5803511315106817
  Basis Set: CC-PVDZ
    Blend: CC-PVDZ
  Basis Set: (CC-PVDZ AUX)
    Blend: CC-PVDZ-JKFIT + DEF2-UNIVERSAL-JKFIT
  Basis Set: CC-PVDZ
    Blend: CC-PVDZ
  @DF-UKS Final Energy:  -106.62828670954968
    Total Energy =                       -106.6282867095496840
  @DF-UKS Final Energy:  -106.66309817318107
    Total Energy =                       -106.6630981731810550
  @DF-UKS Final Energy:  -106.68626141861948
    Total Energy =                       -106.6862614186194804
  @DF-UKS Final Energy:  -106.70064289496587
    Total Energy =                       -106.7006428949658670
  @DF-UKS Final Energy:  -106.70689014675112
    Total Energy =                       -106.7068901467511211
  @DF-UKS Final Energy:  -106.70837784395646
    Total Energy =                       -106.7083778439564554
  @DF-UKS Final Energy:  -106.70850752326746
    Total Energy =                       -106.7085075232674427
  Basis Set: (CC-PVDZ AUX)
    Blend: CC-PVDZ-JKFIT + DEF2-UNIVERSAL-JKFIT
  Basis Set: CC-PVDZ
    Blend: CC-PVDZ
  Basis Set: (CC-PVDZ AUX)
    Blend: CC-PVDZ-JKFIT + DEF2-UNIVERSAL-JKFIT
  @DF-UKS Final Energy:  -106.70850984038417
    Total Energy =                       -106.7085098403841670
  Basis Set: CC-PVDZ
    Blend: CC-PVDZ
  Basis Set: (CC-PVDZ AUX)
    Blend: CC-PVDZ-JKFIT + DEF2-UNIVERSAL-JKFIT
  Charge       = -1
  Multiplicity = 6
  Basis Set: CC-PVDZ
    Blend: CC-PVDZ
  Basis Set: (CC-PVDZ AUX)
    Blend: CC-PVDZ-JKFIT + DEF2-UNIVERSAL-JKFIT

    Orbital Energies [Eh]
    ---------------------

    Alpha Occupied:

       1A1   -25.240407     2A1    -1.874490     3A1    -1.583539
       4A1    -0.878272     1B1    -0.875901     1B2    -0.778873
       5A1    -0.026938     2B1     0.051353     2B2     0.052962

    Alpha Virtual:

       6A1     0.083773     7A1     0.153205     3B1     0.187065
       3B2     0.188264     8A1     0.219294     4B1     0.341585
       4B2     0.344859     1A2     0.358999     9A1     0.359005
      10A1     0.379139     5B1     0.888202    11A1     0.931623
       5B2     0.936702    12A1     1.476314     6B1     3.077394
      13A1     3.077752     2A2     3.145192     6B2     3.148358
      14A1     3.171386

    Beta Occupied:

       1A1   -25.170256     2A1    -1.868745     3A1    -1.387847
       1B2    -0.709139

    Beta Virtual:

       4A1    -0.520555     1B1    -0.516959     5A1     0.066852
       6A1     0.109076     2B2     0.128342     2B1     0.130615
       7A1     0.199353     3B1     0.226594     3B2     0.226602
       8A1     0.232109     4B2     0.385525     4B1     0.387989
       9A1     0.413346     1A2     0.424585    10A1     0.424969
       5B2     0.970284     5B1     1.001220    11A1     1.041593
      12A1     1.570435     2A2     3.258697     6B2     3.261638
      13A1     3.268545     6B1     3.291445    14A1     3.291898

    Final Occupation by Irrep:
             A1    A2    B1    B2
    DOCC [     3,    0,    0,    1 ]
    SOCC [     2,    0,    2,    1 ]
    NA   [     5,    0,    2,    2 ]
    NB   [     3,    0,    0,    1 ]

  @DF-UKS Final Energy:  -106.70850986804213

   => Energetics <=

    Nuclear Repulsion Energy =              5.4242096493585228
    One-Electron Energy =                -157.0151373375693993
    Two-Electron Energy =                  54.5696068692195126
    DFT Exchange-Correlation Energy =      -9.6871890490507599
    Empirical Dispersion Energy =           0.0000000000000000
    VV10 Nonlocal Energy =                  0.0000000000000000
    Total Energy =                       -106.7085098680421282

  UHF NO Occupations:
  HONO-2 :    1 B1 1.0000000
  HONO-1 :    2 B1 1.0000000
  HONO-0 :    5 A1 1.0000000
  LUNO+0 :    6 A1 0.0006246
  LUNO+1 :    3 B2 0.0002165
  LUNO+2 :    7 A1 0.0000006
  LUNO+3 :    8 A1 0.0000001

Computation Completed

Properties will be evaluated at   0.000000,   0.000000,   0.000000 [a0]

Properties computed using the SCF density matrix

 Multipole Moments:

 ------------------------------------------------------------------------------------
     Multipole            Electronic (a.u.)      Nuclear  (a.u.)        Total (a.u.)
 ------------------------------------------------------------------------------------

 L = 1.  Multiply by 2.5417464519 to convert [e a0] to [Debye]
 Dipole X            :          0.0000000            0.0000000            0.0000000
 Dipole Y            :          0.0000000            0.0000000            0.0000000
 Dipole Z            :         -4.6244418           -1.1765361           -5.8009779
 Magnitude           :                                                    5.8009779

 ------------------------------------------------------------------------------------

*** tstop() called on Joses-MacBook-Pro-2.local at Thu Jul 17 09:30:55 2025
Module time:
	user time   =       2.37 seconds =       0.04 minutes
	system time =       3.19 seconds =       0.05 minutes
	total time  =          0 seconds =       0.00 minutes
Total time:
	user time   =      59.31 seconds =       0.99 minutes
	system time =      48.81 seconds =       0.81 minutes
	total time  =         11 seconds =       0.18 minutes

*** tstart() called on Joses-MacBook-Pro-2.local
*** at Thu Jul 17 09:30:55 2025

         ------------------------------------------------------------
                                   SCF GRAD
                          Rob Parrish, Justin Turney,
                       Andy Simmonett, and Alex Sokolov
         ------------------------------------------------------------

  ==> Geometry <==

    Molecular point group: c2v
    Full point group: C_inf_v

    Geometry (in Angstrom), charge = -1, multiplicity = 6:

       Center              X                  Y                   Z               Mass
    ------------   -----------------  -----------------  -----------------  -----------------
         LI           0.000000000000     0.000000000000     1.923674577776     7.016003436600
         F            0.000000000000     0.000000000000    -0.710402202384    18.998403162730

  Nuclear repulsion =    5.424209649358523

  ==> Basis Set <==

  Basis Set: CC-PVDZ
    Blend: CC-PVDZ
    Number of shells: 12
    Number of basis functions: 28
    Number of Cartesian functions: 30
    Spherical Harmonics?: true
    Max angular momentum: 2

  ==> DFJKGrad: Density-Fitted SCF Gradients <==

    Gradient:                    1
    J tasked:                  Yes
    K tasked:                  Yes
    wK tasked:                  No
    OpenMP threads:              1
    Integrals threads:           1
    Memory [MiB]:              375
    Schwarz Cutoff:          1E-12
    Fitting Condition:       1E-10

   => Auxiliary Basis Set <=

  Basis Set: (CC-PVDZ AUX)
    Blend: CC-PVDZ-JKFIT + DEF2-UNIVERSAL-JKFIT
    Number of shells: 41
    Number of basis functions: 121
    Number of Cartesian functions: 141
    Spherical Harmonics?: true
    Max angular momentum: 3

  ==> DFT Potential <==

   => LibXC <=

    Version 6.2.2
    S. Lehtola, C. Steigemann, M. J.T. Oliveira, and M. A.L. Marques.,  SoftwareX 7, 1â€“5 (2018) (10.1016/j.softx.2017.11.002)

   => Composite Functional: B3LYP <=

    B3LYP Hyb-GGA Exchange-Correlation Functional

    P. J. Stephens, F. J. Devlin, C. F. Chabalowski, and M. J. Frisch.,  J. Phys. Chem. 98, 11623 (1994) (10.1021/j100096a001)

    Deriv               =              1
    GGA                 =           TRUE
    Meta                =          FALSE

    Exchange Hybrid     =           TRUE
    MP2 Hybrid          =          FALSE

   => Exchange Functionals <=

    0.0800   Slater exchange
    0.7200         Becke 88

   => Exact (HF) Exchange <=

    0.2000               HF

   => Correlation Functionals <=

    0.1900   Vosko, Wilk & Nusair (VWN5_RPA)
    0.8100   Lee, Yang & Parr

   => LibXC Density Thresholds  <==

    XC_HYB_GGA_XC_B3LYP:  1.00E-15

   => Molecular Quadrature <=

    Radial Scheme          =       TREUTLER
    Pruning Scheme         =           NONE
    Nuclear Scheme         =       TREUTLER

    Blocking Scheme        =         OCTREE
    BS radius alpha        =              1
    Pruning alpha          =              1
    Radial Points          =             75
    Spherical Points       =            302
    Total Points           =          44334
    Total Blocks           =            416
    Max Points             =            255
    Max Functions          =             28
    Weights Tolerance      =       1.00E-15

  -Total Gradient:
     Atom            X                  Y                   Z
    ------   -----------------  -----------------  -----------------
       1       -0.000000000000     0.000000000000    -0.000025691724
       2       -0.000000000000     0.000000000000    -0.000015278116

*** tstop() called on Joses-MacBook-Pro-2.local at Thu Jul 17 09:30:56 2025
Module time:
	user time   =       1.09 seconds =       0.02 minutes
	system time =       0.82 seconds =       0.01 minutes
	total time  =          1 seconds =       0.02 minutes
Total time:
	user time   =      60.40 seconds =       1.01 minutes
	system time =      49.63 seconds =       0.83 minutes
	total time  =         12 seconds =       0.20 minutes

    			-----------------------------------------

    			 OPTKING 3.0: for geometry optimizations

    			     By R.A. King, Bethel University

    			        with contributions from

    			    A.V. Copan, J. Cayton, A. Heide

    			-----------------------------------------

	                            ===> Fragment 1 <==

	 Z (Atomic Numbers)          Masses                          Geom
	       3.000000             7.016003          0.00000000  0.00000000  3.63521811
	       9.000000            18.998403          0.00000000  0.00000000 -1.34246560

	 - Coordinate -           - BOHR/RAD -       - ANG/DEG -
	 R(1,2)           =         4.977684           2.634077

	        --- Internal Coordinate Step in ANG or DEG, aJ/ANG or AJ/DEG ---
	-------------------------------------------------------------------------------
	           Coordinate      Previous         Force          Change          New
	           ----------      --------        ------          ------        ------
	               R(1,2)       2.63408        0.00004        0.00012       2.63419
	-------------------------------------------------------------------------------

	                                 ==> Convergence Check <==

	Measures of convergence in internal coordinates in au.

	Criteria marked as inactive (o), active & met (*), and active & unmet ( ).

	----------------------------------------------------------------------------------------------
	   Step    Total Energy     Delta E     Max Force     RMS Force      Max Disp      RMS Disp
	----------------------------------------------------------------------------------------------
	  Convergence Criteria     1.00e-06 *    3.00e-04 *             o    1.20e-03 *             o
	----------------------------------------------------------------------------------------------
	    11    -106.70850987   -2.77e-08 *    5.21e-06 *    5.21e-06 o    2.22e-04 *    2.22e-04 o  ~
	----------------------------------------------------------------------------------------------

Next Geometry in Ang
	Fragment 1 (Ang)

	   Li   0.0000000000   0.0000000000   1.9237333555
	    F   0.0000000000   0.0000000000  -0.7104609801

    Final optimized geometry and variables:
    Molecular point group: c2v
    Full point group: C_inf_v

    Geometry (in Angstrom), charge = -1, multiplicity = 6:

    LI           0.000000000000     0.000000000000     1.923674577776
    F            0.000000000000     0.000000000000    -0.710402202384

    Psi4 stopped on: Thursday, 17 July 2025 09:30AM
    Psi4 wall time for execution: 0:00:11.99

*** Psi4 exiting successfully. Buy a developer a beer!
