                               Psi4 1.9.1 release

  ==> Input File <==

--------------------------------------------------------------------------
molecule {
-1 6
H   0.00000        0.60000        0.00000
Na   0.00000       -0.60000        0.00000
}

set {
basis              cc-pvdz
reference          uks
maxiter            500
geom_maxiter       500
DAMPING_PERCENTAGE 1
guess              SAP
}

optimize('b3lyp')
--------------------------------------------------------------------------

    Molecular point group: c2v
  Charge       = -1
  Multiplicity = 6
  Basis Set: CC-PVDZ
    Blend: CC-PVDZ
  Basis Set: (CC-PVDZ AUX)
    Blend: CC-PVDZ-JKFIT + DEF2-UNIVERSAL-JKFIT
  @DF-UKS Final Energy:  -161.32154514211183
    Total Energy =                       -161.3215451421118019
 Dipole X            :          0.0000000            0.0000000            0.0000000
 Dipole Y            :          0.0000000            0.0000000            0.0000000
 Dipole Z            :         -0.2975852            1.1248488            0.8272636
 Magnitude           :                                                    0.8272636
    Molecular point group: c2v
  Basis Set: CC-PVDZ
    Blend: CC-PVDZ
  Basis Set: (CC-PVDZ AUX)
    Blend: CC-PVDZ-JKFIT + DEF2-UNIVERSAL-JKFIT
  Basis Set: CC-PVDZ
    Blend: CC-PVDZ
  Basis Set: (CC-PVDZ AUX)
    Blend: CC-PVDZ-JKFIT + DEF2-UNIVERSAL-JKFIT
  @DF-UKS Final Energy:  -161.40019845259903
    Total Energy =                       -161.4001984525990281
  Basis Set: CC-PVDZ
    Blend: CC-PVDZ
  Basis Set: (CC-PVDZ AUX)
    Blend: CC-PVDZ-JKFIT + DEF2-UNIVERSAL-JKFIT
  Basis Set: CC-PVDZ
    Blend: CC-PVDZ
  @DF-UKS Final Energy:  -161.41982593962925
    Total Energy =                       -161.4198259396292201
  @DF-UKS Final Energy:  -161.43821368325956
    Total Energy =                       -161.4382136832595904
  @DF-UKS Final Energy:  -161.45263652620656
    Total Energy =                       -161.4526365262065895
  @DF-UKS Final Energy:  -161.46022883130533
    Total Energy =                       -161.4602288313053293
  @DF-UKS Final Energy:  -161.46374631456371
    Total Energy =                       -161.4637463145637071
  @DF-UKS Final Energy:  -161.46559204141761
    Total Energy =                       -161.4655920414176080
  @DF-UKS Final Energy:  -161.46659493042731
    Total Energy =                       -161.4665949304273056
  @DF-UKS Final Energy:  -161.46715191050055
    Total Energy =                       -161.4671519105006041
  @DF-UKS Final Energy:  -161.46747329131077
    Total Energy =                       -161.4674732913107675
  @DF-UKS Final Energy:  -161.46768032586877
    Total Energy =                       -161.4676803258687414
  @DF-UKS Final Energy:  -161.46784432292924
    Total Energy =                       -161.4678443229292100
  @DF-UKS Final Energy:  -161.46784566075536
    Total Energy =                       -161.4678456607553017
  @DF-UKS Final Energy:  -161.46784699506910
    Total Energy =                       -161.4678469950690953
  @DF-UKS Final Energy:  -161.46784832538978
    Total Energy =                       -161.4678483253897525
  @DF-UKS Final Energy:  -161.46784965175101
    Total Energy =                       -161.4678496517510098
  @DF-UKS Final Energy:  -161.46785097423086
    Total Energy =                       -161.4678509742308563
  @DF-UKS Final Energy:  -161.46785229287312
    Total Energy =                       -161.4678522928731468
  @DF-UKS Final Energy:  -161.46785360773521
    Total Energy =                       -161.4678536077352078
  Basis Set: (CC-PVDZ AUX)
    Blend: CC-PVDZ-JKFIT + DEF2-UNIVERSAL-JKFIT
  Basis Set: CC-PVDZ
    Blend: CC-PVDZ
  Basis Set: (CC-PVDZ AUX)
    Blend: CC-PVDZ-JKFIT + DEF2-UNIVERSAL-JKFIT
  @DF-UKS Final Energy:  -161.46803746793077
    Total Energy =                       -161.4680374679307704
  Basis Set: CC-PVDZ
    Blend: CC-PVDZ
  Basis Set: (CC-PVDZ AUX)
    Blend: CC-PVDZ-JKFIT + DEF2-UNIVERSAL-JKFIT
  Charge       = -1
  Multiplicity = 6
  Basis Set: CC-PVDZ
    Blend: CC-PVDZ
  Basis Set: (CC-PVDZ AUX)
    Blend: CC-PVDZ-JKFIT + DEF2-UNIVERSAL-JKFIT

    Orbital Energies [Eh]
    ---------------------

    Alpha Occupied:

       1A1   -39.567092     2A1    -2.853005     1B1    -1.865825
       3A1    -1.748946     1B2    -1.746234     4A1    -0.222189
       5A1    -0.074878     2B1     0.036059     2B2     0.040384

    Alpha Virtual:

       6A1     0.080861     7A1     0.141016     3B1     0.145385
       3B2     0.147755     8A1     0.156977     9A1     0.247625
       1A2     0.247737     4B1     0.250525     4B2     0.254028
      10A1     0.261410    11A1     0.566519     5B1     1.308201
       5B2     1.308216    12A1     1.313321

    Beta Occupied:

       1A1   -39.523159     2A1    -2.733549     3A1    -1.703926
       1B2    -1.699960

    Beta Virtual:

       1B1    -1.464077     4A1     0.031372     5A1     0.066320
       2B2     0.119570     2B1     0.122876     6A1     0.129459
       7A1     0.171820     8A1     0.182102     3B2     0.191461
       3B1     0.196950     4B2     0.307538     4B1     0.309799
       9A1     0.310092     1A2     0.324655    10A1     0.327668
      11A1     0.784802    12A1     1.556398     5B2     1.562112
       5B1     1.563756

    Final Occupation by Irrep:
             A1    A2    B1    B2
    DOCC [     3,    0,    0,    1 ]
    SOCC [     2,    0,    2,    1 ]
    NA   [     5,    0,    2,    2 ]
    NB   [     3,    0,    0,    1 ]

  @DF-UKS Final Energy:  -161.46803840130582

   => Energetics <=

    Nuclear Repulsion Energy =              1.3222276258305958
    One-Electron Energy =                -223.8108921692889055
    Two-Electron Energy =                  72.3364313530292975
    DFT Exchange-Correlation Energy =     -11.3158052108768139
    Empirical Dispersion Energy =           0.0000000000000000
    VV10 Nonlocal Energy =                  0.0000000000000000
    Total Energy =                       -161.4680384013058188

  UHF NO Occupations:
  HONO-2 :    2 B1 1.0000000
  HONO-1 :    2 B2 1.0000000
  HONO-0 :    5 A1 1.0000000
  LUNO+0 :    6 A1 0.0000022
  LUNO+1 :    7 A1 0.0000018
  LUNO+2 :    3 B2 0.0000009
  LUNO+3 :    8 A1 0.0000000

Computation Completed

Properties will be evaluated at   0.000000,   0.000000,   0.000000 [a0]

Properties computed using the SCF density matrix

 Multipole Moments:

 ------------------------------------------------------------------------------------
     Multipole            Electronic (a.u.)      Nuclear  (a.u.)        Total (a.u.)
 ------------------------------------------------------------------------------------

 L = 1.  Multiply by 2.5417464519 to convert [e a0] to [Debye]
 Dipole X            :          0.0000000            0.0000000            0.0000000
 Dipole Y            :          0.0000000            0.0000000            0.0000000
 Dipole Z            :         -3.7433738            4.1266772            0.3833034
 Magnitude           :                                                    0.3833034

 ------------------------------------------------------------------------------------

*** tstop() called on Joses-MacBook-Pro-2.local at Thu Jul 17 09:13:28 2025
Module time:
	user time   =       1.53 seconds =       0.03 minutes
	system time =       1.89 seconds =       0.03 minutes
	total time  =          0 seconds =       0.00 minutes
Total time:
	user time   =      70.10 seconds =       1.17 minutes
	system time =      98.74 seconds =       1.65 minutes
	total time  =         16 seconds =       0.27 minutes

*** tstart() called on Joses-MacBook-Pro-2.local
*** at Thu Jul 17 09:13:28 2025

         ------------------------------------------------------------
                                   SCF GRAD
                          Rob Parrish, Justin Turney,
                       Andy Simmonett, and Alex Sokolov
         ------------------------------------------------------------

  ==> Geometry <==

    Molecular point group: c2v
    Full point group: C_inf_v

    Geometry (in Angstrom), charge = -1, multiplicity = 6:

       Center              X                  Y                   Z               Mass
    ------------   -----------------  -----------------  -----------------  -----------------
         H            0.000000000000     0.000000000000     4.217494226861     1.007825032230
         NA           0.000000000000     0.000000000000    -0.184886425043    22.989769282000

  Nuclear repulsion =    1.322227625830596

  ==> Basis Set <==

  Basis Set: CC-PVDZ
    Blend: CC-PVDZ
    Number of shells: 11
    Number of basis functions: 23
    Number of Cartesian functions: 24
    Spherical Harmonics?: true
    Max angular momentum: 2

  ==> DFJKGrad: Density-Fitted SCF Gradients <==

    Gradient:                    1
    J tasked:                  Yes
    K tasked:                  Yes
    wK tasked:                  No
    OpenMP threads:              1
    Integrals threads:           1
    Memory [MiB]:              375
    Schwarz Cutoff:          1E-12
    Fitting Condition:       1E-10

   => Auxiliary Basis Set <=

  Basis Set: (CC-PVDZ AUX)
    Blend: CC-PVDZ-JKFIT + DEF2-UNIVERSAL-JKFIT
    Number of shells: 43
    Number of basis functions: 135
    Number of Cartesian functions: 162
    Spherical Harmonics?: true
    Max angular momentum: 4

  ==> DFT Potential <==

   => LibXC <=

    Version 6.2.2
    S. Lehtola, C. Steigemann, M. J.T. Oliveira, and M. A.L. Marques.,  SoftwareX 7, 1â€“5 (2018) (10.1016/j.softx.2017.11.002)

   => Composite Functional: B3LYP <=

    B3LYP Hyb-GGA Exchange-Correlation Functional

    P. J. Stephens, F. J. Devlin, C. F. Chabalowski, and M. J. Frisch.,  J. Phys. Chem. 98, 11623 (1994) (10.1021/j100096a001)

    Deriv               =              1
    GGA                 =           TRUE
    Meta                =          FALSE

    Exchange Hybrid     =           TRUE
    MP2 Hybrid          =          FALSE

   => Exchange Functionals <=

    0.0800   Slater exchange
    0.7200         Becke 88

   => Exact (HF) Exchange <=

    0.2000               HF

   => Correlation Functionals <=

    0.1900   Vosko, Wilk & Nusair (VWN5_RPA)
    0.8100   Lee, Yang & Parr

   => LibXC Density Thresholds  <==

    XC_HYB_GGA_XC_B3LYP:  1.00E-15

   => Molecular Quadrature <=

    Radial Scheme          =       TREUTLER
    Pruning Scheme         =           NONE
    Nuclear Scheme         =       TREUTLER

    Blocking Scheme        =         OCTREE
    BS radius alpha        =              1
    Pruning alpha          =              1
    Radial Points          =             75
    Spherical Points       =            302
    Total Points           =          43919
    Total Blocks           =            433
    Max Points             =            252
    Max Functions          =             23
    Weights Tolerance      =       1.00E-15

  -Total Gradient:
     Atom            X                  Y                   Z
    ------   -----------------  -----------------  -----------------
       1        0.000000000000    -0.000000000000    -0.000203543166
       2        0.000000000000    -0.000000000000     0.000199167333

*** tstop() called on Joses-MacBook-Pro-2.local at Thu Jul 17 09:13:28 2025
Module time:
	user time   =       0.49 seconds =       0.01 minutes
	system time =       1.38 seconds =       0.02 minutes
	total time  =          0 seconds =       0.00 minutes
Total time:
	user time   =      70.59 seconds =       1.18 minutes
	system time =     100.12 seconds =       1.67 minutes
	total time  =         16 seconds =       0.27 minutes

    			-----------------------------------------

    			 OPTKING 3.0: for geometry optimizations

    			     By R.A. King, Bethel University

    			        with contributions from

    			    A.V. Copan, J. Cayton, A. Heide

    			-----------------------------------------

	                            ===> Fragment 1 <==

	 Z (Atomic Numbers)          Masses                          Geom
	       1.000000             1.007825          0.00000000  0.00000000  7.96990902
	      11.000000            22.989769          0.00000000  0.00000000 -0.34938471

	 - Coordinate -           - BOHR/RAD -       - ANG/DEG -
	 R(1,2)           =         8.319294           4.402381

	        --- Internal Coordinate Step in ANG or DEG, aJ/ANG or AJ/DEG ---
	-------------------------------------------------------------------------------
	           Coordinate      Previous         Force          Change          New
	           ----------      --------        ------          ------        ------
	               R(1,2)       4.40238        0.00166        0.00249       4.40487
	-------------------------------------------------------------------------------

	                                 ==> Convergence Check <==

	Measures of convergence in internal coordinates in au.

	Criteria marked as inactive (o), active & met (*), and active & unmet ( ).

	----------------------------------------------------------------------------------------------
	   Step    Total Energy     Delta E     Max Force     RMS Force      Max Disp      RMS Disp
	----------------------------------------------------------------------------------------------
	  Convergence Criteria     1.00e-06 *    3.00e-04 *             o    1.20e-03 *             o
	----------------------------------------------------------------------------------------------
	    22    -161.46803840   -9.33e-07 *    2.01e-04 *    2.01e-04 o    4.70e-03      4.70e-03 o  ~
	----------------------------------------------------------------------------------------------

Next Geometry in Ang
	Fragment 1 (Ang)

	    H   0.0000000000   0.0000000000   4.2187372466
	   Na   0.0000000000   0.0000000000  -0.1861294447

    Final optimized geometry and variables:
    Molecular point group: c2v
    Full point group: C_inf_v

    Geometry (in Angstrom), charge = -1, multiplicity = 6:

    H            0.000000000000     0.000000000000     4.217494226861
    NA           0.000000000000     0.000000000000    -0.184886425043

    Psi4 stopped on: Thursday, 17 July 2025 09:13AM
    Psi4 wall time for execution: 0:00:16.82

*** Psi4 exiting successfully. Buy a developer a beer!
