                               Psi4 1.9.1 release

  ==> Input File <==

--------------------------------------------------------------------------
molecule {
-1 6
Na   0.00000        0.60000        0.00000
Al   0.00000       -0.60000        0.00000
}

set {
basis              cc-pvdz
reference          uks
maxiter            500
geom_maxiter       500
DAMPING_PERCENTAGE 1
guess              SAP
}

optimize('b3lyp')
--------------------------------------------------------------------------

    Molecular point group: c2v
  Charge       = -1
  Multiplicity = 6
  Basis Set: CC-PVDZ
    Blend: CC-PVDZ
  Basis Set: (CC-PVDZ AUX)
    Blend: CC-PVDZ-JKFIT + DEF2-UNIVERSAL-JKFIT
  @DF-UKS Final Energy:  -403.83583629910873
    Total Energy =                       -403.8358362991087347
 Dipole X            :          0.0000000            0.0000000            0.0000000
 Dipole Y            :          0.0000000            0.0000000            0.0000000
 Dipole Z            :         -1.5654486           -0.0939390           -1.6593876
 Magnitude           :                                                    1.6593876
    Molecular point group: c2v
  Basis Set: CC-PVDZ
    Blend: CC-PVDZ
  Basis Set: (CC-PVDZ AUX)
    Blend: CC-PVDZ-JKFIT + DEF2-UNIVERSAL-JKFIT
  Basis Set: CC-PVDZ
    Blend: CC-PVDZ
  Basis Set: (CC-PVDZ AUX)
    Blend: CC-PVDZ-JKFIT + DEF2-UNIVERSAL-JKFIT
  @DF-UKS Final Energy:  -403.84305124823169
    Total Energy =                       -403.8430512482316885
  Basis Set: CC-PVDZ
    Blend: CC-PVDZ
  Basis Set: (CC-PVDZ AUX)
    Blend: CC-PVDZ-JKFIT + DEF2-UNIVERSAL-JKFIT
  Basis Set: CC-PVDZ
    Blend: CC-PVDZ
  @DF-UKS Final Energy:  -403.85701418163495
    Total Energy =                       -403.8570141816349519
  @DF-UKS Final Energy:  -403.90805330782695
    Total Energy =                       -403.9080533078269468
  @DF-UKS Final Energy:  -404.14978902059983
    Total Energy =                       -404.1497890205998260
  @DF-UKS Final Energy:  -404.29717976588626
    Total Energy =                       -404.2971797658862556
  @DF-UKS Final Energy:  -404.41280884504778
    Total Energy =                       -404.4128088450477776
  @DF-UKS Final Energy:  -404.49418385217359
    Total Energy =                       -404.4941838521735917
  @DF-UKS Final Energy:  -404.54138047836102
    Total Energy =                       -404.5413804783610203
  @DF-UKS Final Energy:  -404.56524574186784
    Total Energy =                       -404.5652457418678978
  @DF-UKS Final Energy:  -404.57675958451068
    Total Energy =                       -404.5767595845106825
  @DF-UKS Final Energy:  -404.58225175351544
    Total Energy =                       -404.5822517535154930
  @DF-UKS Final Energy:  -404.58458434880225
    Total Energy =                       -404.5845843488022524
  @DF-UKS Final Energy:  -404.58534812102596
    Total Energy =                       -404.5853481210259588
  @DF-UKS Final Energy:  -404.58550166737729
    Total Energy =                       -404.5855016673772866
  Basis Set: (CC-PVDZ AUX)
    Blend: CC-PVDZ-JKFIT + DEF2-UNIVERSAL-JKFIT
  Basis Set: CC-PVDZ
    Blend: CC-PVDZ
  Basis Set: (CC-PVDZ AUX)
    Blend: CC-PVDZ-JKFIT + DEF2-UNIVERSAL-JKFIT
  @DF-UKS Final Energy:  -404.58551405801558
    Total Energy =                       -404.5855140580155194
  Basis Set: CC-PVDZ
    Blend: CC-PVDZ
  Basis Set: (CC-PVDZ AUX)
    Blend: CC-PVDZ-JKFIT + DEF2-UNIVERSAL-JKFIT
  Charge       = -1
  Multiplicity = 6
  Basis Set: CC-PVDZ
    Blend: CC-PVDZ
  Basis Set: (CC-PVDZ AUX)
    Blend: CC-PVDZ-JKFIT + DEF2-UNIVERSAL-JKFIT

    Orbital Energies [Eh]
    ---------------------

    Alpha Occupied:

       1A1   -55.921312     2A1   -38.345401     3A1    -4.002387
       4A1    -2.555687     1B1    -2.555440     1B2    -2.555440
       5A1    -2.090055     2B2    -1.021411     2B1    -1.021411
       6A1    -1.020472     7A1    -0.202371     8A1    -0.025068
       3B1     0.001832     3B2     0.001832     9A1     0.022496

    Alpha Virtual:

       4B2     0.093725     4B1     0.093725    10A1     0.110288
      11A1     0.159503     5B1     0.187266     5B2     0.187266
      12A1     0.212260     6B2     0.278712     6B1     0.278712
      13A1     0.280502    14A1     0.286623     1A2     0.286623
       7B2     0.357432     7B1     0.357432    15A1     0.374849
      16A1     0.400072     2A2     0.400072    17A1     0.421333
       8B2     0.467546     8B1     0.467546    18A1     0.607948

    Beta Occupied:

       1A1   -55.912103     2A1   -38.343943     3A1    -3.989180
       4A1    -2.542529     1B1    -2.542408     1B2    -2.542408
       5A1    -2.087312     2B2    -1.019719     2B1    -1.019719
       6A1    -1.017863

    Beta Virtual:

       7A1    -0.029464     8A1     0.065897     3B1     0.105884
       3B2     0.105884     9A1     0.124030    10A1     0.146828
       4B1     0.155078     4B2     0.155078    11A1     0.186962
       5B1     0.207935     5B2     0.207935    12A1     0.257498
       1A2     0.311849    13A1     0.311851     6B2     0.331969
       6B1     0.331969    14A1     0.336432     7B2     0.422477
       7B1     0.422477    15A1     0.448954    16A1     0.475474
      17A1     0.507503     2A2     0.507593     8B2     0.557600
       8B1     0.557600    18A1     0.679828

    Final Occupation by Irrep:
             A1    A2    B1    B2
    DOCC [     6,    0,    2,    2 ]
    SOCC [     3,    0,    1,    1 ]
    NA   [     9,    0,    3,    3 ]
    NB   [     6,    0,    2,    2 ]

  @DF-UKS Final Energy:  -404.58551496756098

   => Energetics <=

    Nuclear Repulsion Energy =             22.5489934611921328
    One-Electron Energy =                -612.8762518146575076
    Two-Electron Energy =                 212.4836677598131303
    DFT Exchange-Correlation Energy =     -26.7419243739087058
    Empirical Dispersion Energy =           0.0000000000000000
    VV10 Nonlocal Energy =                  0.0000000000000000
    Total Energy =                       -404.5855149675609823

  UHF NO Occupations:
  HONO-2 :    8 A1 1.0000000
  HONO-1 :    9 A1 1.0000000
  HONO-0 :    3 B2 1.0000000
  LUNO+0 :   10 A1 0.0000006
  LUNO+1 :    4 B2 0.0000003
  LUNO+2 :    4 B1 0.0000003
  LUNO+3 :   11 A1 0.0000002

Computation Completed

Properties will be evaluated at   0.000000,   0.000000,   0.000000 [a0]

Properties computed using the SCF density matrix

 Multipole Moments:

 ------------------------------------------------------------------------------------
     Multipole            Electronic (a.u.)      Nuclear  (a.u.)        Total (a.u.)
 ------------------------------------------------------------------------------------

 L = 1.  Multiply by 2.5417464519 to convert [e a0] to [Debye]
 Dipole X            :          0.0000000            0.0000000            0.0000000
 Dipole Y            :          0.0000000            0.0000000            0.0000000
 Dipole Z            :         -0.5200559           -0.2627088           -0.7827647
 Magnitude           :                                                    0.7827647

 ------------------------------------------------------------------------------------

*** tstop() called on Joses-MacBook-Pro-2.local at Thu Jul 17 11:10:23 2025
Module time:
	user time   =       9.02 seconds =       0.15 minutes
	system time =       2.09 seconds =       0.03 minutes
	total time  =          1 seconds =       0.02 minutes
Total time:
	user time   =     217.45 seconds =       3.62 minutes
	system time =      69.72 seconds =       1.16 minutes
	total time  =         28 seconds =       0.47 minutes

*** tstart() called on Joses-MacBook-Pro-2.local
*** at Thu Jul 17 11:10:23 2025

         ------------------------------------------------------------
                                   SCF GRAD
                          Rob Parrish, Justin Turney,
                       Andy Simmonett, and Alex Sokolov
         ------------------------------------------------------------

  ==> Geometry <==

    Molecular point group: c2v
    Full point group: C_inf_v

    Geometry (in Angstrom), charge = -1, multiplicity = 6:

       Center              X                  Y                   Z               Mass
    ------------   -----------------  -----------------  -----------------  -----------------
         NA           0.000000000000     0.000000000000     1.811990866053    22.989769282000
         AL           0.000000000000     0.000000000000    -1.543916849120    26.981538530000

  Nuclear repulsion =   22.548993461192133

  ==> Basis Set <==

  Basis Set: CC-PVDZ
    Blend: CC-PVDZ
    Number of shells: 16
    Number of basis functions: 36
    Number of Cartesian functions: 38
    Spherical Harmonics?: true
    Max angular momentum: 2

  ==> DFJKGrad: Density-Fitted SCF Gradients <==

    Gradient:                    1
    J tasked:                  Yes
    K tasked:                  Yes
    wK tasked:                  No
    OpenMP threads:              1
    Integrals threads:           1
    Memory [MiB]:              375
    Schwarz Cutoff:          1E-12
    Fitting Condition:       1E-10

   => Auxiliary Basis Set <=

  Basis Set: (CC-PVDZ AUX)
    Blend: CC-PVDZ-JKFIT + DEF2-UNIVERSAL-JKFIT
    Number of shells: 70
    Number of basis functions: 224
    Number of Cartesian functions: 267
    Spherical Harmonics?: true
    Max angular momentum: 4

  ==> DFT Potential <==

   => LibXC <=

    Version 6.2.2
    S. Lehtola, C. Steigemann, M. J.T. Oliveira, and M. A.L. Marques.,  SoftwareX 7, 1â€“5 (2018) (10.1016/j.softx.2017.11.002)

   => Composite Functional: B3LYP <=

    B3LYP Hyb-GGA Exchange-Correlation Functional

    P. J. Stephens, F. J. Devlin, C. F. Chabalowski, and M. J. Frisch.,  J. Phys. Chem. 98, 11623 (1994) (10.1021/j100096a001)

    Deriv               =              1
    GGA                 =           TRUE
    Meta                =          FALSE

    Exchange Hybrid     =           TRUE
    MP2 Hybrid          =          FALSE

   => Exchange Functionals <=

    0.0800   Slater exchange
    0.7200         Becke 88

   => Exact (HF) Exchange <=

    0.2000               HF

   => Correlation Functionals <=

    0.1900   Vosko, Wilk & Nusair (VWN5_RPA)
    0.8100   Lee, Yang & Parr

   => LibXC Density Thresholds  <==

    XC_HYB_GGA_XC_B3LYP:  1.00E-15

   => Molecular Quadrature <=

    Radial Scheme          =       TREUTLER
    Pruning Scheme         =           NONE
    Nuclear Scheme         =       TREUTLER

    Blocking Scheme        =         OCTREE
    BS radius alpha        =              1
    Pruning alpha          =              1
    Radial Points          =             75
    Spherical Points       =            302
    Total Points           =          43889
    Total Blocks           =            457
    Max Points             =            256
    Max Functions          =             36
    Weights Tolerance      =       1.00E-15

  -Total Gradient:
     Atom            X                  Y                   Z
    ------   -----------------  -----------------  -----------------
       1        0.000000000000     0.000000000000    -0.000022883228
       2        0.000000000000    -0.000000000000     0.000051301685

*** tstop() called on Joses-MacBook-Pro-2.local at Thu Jul 17 11:10:24 2025
Module time:
	user time   =       3.07 seconds =       0.05 minutes
	system time =       1.44 seconds =       0.02 minutes
	total time  =          1 seconds =       0.02 minutes
Total time:
	user time   =     220.53 seconds =       3.68 minutes
	system time =      71.17 seconds =       1.19 minutes
	total time  =         29 seconds =       0.48 minutes

    			-----------------------------------------

    			 OPTKING 3.0: for geometry optimizations

    			     By R.A. King, Bethel University

    			        with contributions from

    			    A.V. Copan, J. Cayton, A. Heide

    			-----------------------------------------

	                            ===> Fragment 1 <==

	 Z (Atomic Numbers)          Masses                          Geom
	      11.000000            22.989769          0.00000000  0.00000000  3.42416648
	      13.000000            26.981539          0.00000000  0.00000000 -2.91758001

	 - Coordinate -           - BOHR/RAD -       - ANG/DEG -
	 R(1,2)           =         6.341746           3.355908

	        --- Internal Coordinate Step in ANG or DEG, aJ/ANG or AJ/DEG ---
	-------------------------------------------------------------------------------
	           Coordinate      Previous         Force          Change          New
	           ----------      --------        ------          ------        ------
	               R(1,2)       3.35591        0.00031        0.00214       3.35805
	-------------------------------------------------------------------------------

	                                 ==> Convergence Check <==

	Measures of convergence in internal coordinates in au.

	Criteria marked as inactive (o), active & met (*), and active & unmet ( ).

	----------------------------------------------------------------------------------------------
	   Step    Total Energy     Delta E     Max Force     RMS Force      Max Disp      RMS Disp
	----------------------------------------------------------------------------------------------
	  Convergence Criteria     1.00e-06 *    3.00e-04 *             o    1.20e-03 *             o
	----------------------------------------------------------------------------------------------
	    17    -404.58551497   -9.10e-07 *    3.71e-05 *    3.71e-05 o    4.05e-03      4.05e-03 o  ~
	----------------------------------------------------------------------------------------------

Next Geometry in Ang
	Fragment 1 (Ang)

	   Na   0.0000000000   0.0000000000   1.8130615257
	   Al   0.0000000000   0.0000000000  -1.5449875087

    Final optimized geometry and variables:
    Molecular point group: c2v
    Full point group: C_inf_v

    Geometry (in Angstrom), charge = -1, multiplicity = 6:

    NA           0.000000000000     0.000000000000     1.811990866053
    AL           0.000000000000     0.000000000000    -1.543916849120

    Psi4 stopped on: Thursday, 17 July 2025 11:10AM
    Psi4 wall time for execution: 0:00:29.21

*** Psi4 exiting successfully. Buy a developer a beer!
