                               Psi4 1.9.1 release

  ==> Input File <==

--------------------------------------------------------------------------
molecule {
-1 6
Be   0.00000        0.60000        0.00000
O   0.00000       -0.60000        0.00000
}

set {
basis              cc-pvdz
reference          uks
maxiter            500
geom_maxiter       500
DAMPING_PERCENTAGE 1
guess              SAP
}

optimize('b3lyp')
--------------------------------------------------------------------------

    Molecular point group: c2v
  Charge       = -1
  Multiplicity = 6
  Basis Set: CC-PVDZ
    Blend: CC-PVDZ
  Basis Set: (CC-PVDZ AUX)
    Blend: CC-PVDZ-JKFIT + DEF2-UNIVERSAL-JKFIT
  @DF-UKS Final Energy:   -89.43405864612572
    Total Energy =                        -89.4340586461257203
 Dipole X            :          0.0000000            0.0000000            0.0000000
 Dipole Y            :          0.0000000            0.0000000            0.0000000
 Dipole Z            :         -2.0281569           -0.7361317           -2.7642886
 Magnitude           :                                                    2.7642886
    Molecular point group: c2v
  Basis Set: CC-PVDZ
    Blend: CC-PVDZ
  Basis Set: (CC-PVDZ AUX)
    Blend: CC-PVDZ-JKFIT + DEF2-UNIVERSAL-JKFIT
  Basis Set: CC-PVDZ
    Blend: CC-PVDZ
  Basis Set: (CC-PVDZ AUX)
    Blend: CC-PVDZ-JKFIT + DEF2-UNIVERSAL-JKFIT
  @DF-UKS Final Energy:   -89.56931512775057
    Total Energy =                        -89.5693151277505706
  Basis Set: CC-PVDZ
    Blend: CC-PVDZ
  Basis Set: (CC-PVDZ AUX)
    Blend: CC-PVDZ-JKFIT + DEF2-UNIVERSAL-JKFIT
  Basis Set: CC-PVDZ
    Blend: CC-PVDZ
  @DF-UKS Final Energy:   -89.60173844849830
    Total Energy =                        -89.6017384484982955
  @DF-UKS Final Energy:   -89.62320490300802
    Total Energy =                        -89.6232049030080304
  @DF-UKS Final Energy:   -89.63263546291913
    Total Energy =                        -89.6326354629191258
  @DF-UKS Final Energy:   -89.63708908189618
    Total Energy =                        -89.6370890818961783
  @DF-UKS Final Energy:   -89.63862667466695
    Total Energy =                        -89.6386266746669520
  @DF-UKS Final Energy:   -89.63953403000865
    Total Energy =                        -89.6395340300086474
  @DF-UKS Final Energy:   -89.64000039720919
    Total Energy =                        -89.6400003972091923
  @DF-UKS Final Energy:   -89.64015534045680
    Total Energy =                        -89.6401553404568148
  @DF-UKS Final Energy:   -89.64023135597203
    Total Energy =                        -89.6402313559720341
  @DF-UKS Final Energy:   -89.64025724920495
    Total Energy =                        -89.6402572492049501
  @DF-UKS Final Energy:   -89.64026937754150
    Total Energy =                        -89.6402693775415003
  Basis Set: (CC-PVDZ AUX)
    Blend: CC-PVDZ-JKFIT + DEF2-UNIVERSAL-JKFIT
  Basis Set: CC-PVDZ
    Blend: CC-PVDZ
  Basis Set: (CC-PVDZ AUX)
    Blend: CC-PVDZ-JKFIT + DEF2-UNIVERSAL-JKFIT
  @DF-UKS Final Energy:   -89.64027346587363
    Total Energy =                        -89.6402734658736335
  Basis Set: CC-PVDZ
    Blend: CC-PVDZ
  Basis Set: (CC-PVDZ AUX)
    Blend: CC-PVDZ-JKFIT + DEF2-UNIVERSAL-JKFIT
  Charge       = -1
  Multiplicity = 6
  Basis Set: CC-PVDZ
    Blend: CC-PVDZ
  Basis Set: (CC-PVDZ AUX)
    Blend: CC-PVDZ-JKFIT + DEF2-UNIVERSAL-JKFIT

    Orbital Energies [Eh]
    ---------------------

    Alpha Occupied:

       1A1   -19.159498     2A1    -3.834885     3A1    -0.887688
       1B1    -0.322391     1B2    -0.322391     4A1    -0.261243
       5A1    -0.018830     2B2     0.098542     2B1     0.098542

    Alpha Virtual:

       6A1     0.186114     7A1     0.380737     3B1     0.385361
       3B2     0.385361     8A1     0.403003     4B1     0.678636
       4B2     0.678636     9A1     0.683168     1A2     0.683168
      10A1     0.759982     5B2     1.016017     5B1     1.016017
      11A1     1.068598    12A1     1.576798     2A2     2.563641
      13A1     2.563659     6B1     2.631054     6B2     2.631054
      14A1     2.698158

    Beta Occupied:

       1A1   -19.106827     2A1    -3.818456     3A1    -0.725127
       4A1    -0.203368

    Beta Virtual:

       1B1    -0.038709     1B2    -0.038709     5A1     0.137045
       2B2     0.232964     2B1     0.232964     6A1     0.240001
       7A1     0.422418     8A1     0.451533     3B1     0.456961
       3B2     0.456961     4B1     0.766305     4B2     0.766305
       1A2     0.802535     9A1     0.802535    10A1     0.832940
      11A1     1.106822     5B2     1.126476     5B1     1.126476
      12A1     1.655772     6B1     2.726611     6B2     2.726611
       2A2     2.739913    13A1     2.739936    14A1     2.781409

    Final Occupation by Irrep:
             A1    A2    B1    B2
    DOCC [     4,    0,    0,    0 ]
    SOCC [     1,    0,    2,    2 ]
    NA   [     5,    0,    2,    2 ]
    NB   [     4,    0,    0,    0 ]

  @DF-UKS Final Energy:   -89.64027428181834

   => Energetics <=

    Nuclear Repulsion Energy =              7.2567799064099772
    One-Electron Energy =                -138.6850839684367145
    Two-Electron Energy =                  51.0246345740157778
    DFT Exchange-Correlation Energy =      -9.2366047938073947
    Empirical Dispersion Energy =           0.0000000000000000
    VV10 Nonlocal Energy =                  0.0000000000000000
    Total Energy =                        -89.6402742818183640

  UHF NO Occupations:
  HONO-2 :    1 B2 1.0000000
  HONO-1 :    5 A1 1.0000000
  HONO-0 :    2 B2 1.0000000
  LUNO+0 :    6 A1 0.0011724
  LUNO+1 :    7 A1 0.0004904
  LUNO+2 :    8 A1 0.0000003
  LUNO+3 :    9 A1 0.0000001

Computation Completed

Properties will be evaluated at   0.000000,   0.000000,   0.000000 [a0]

Properties computed using the SCF density matrix

 Multipole Moments:

 ------------------------------------------------------------------------------------
     Multipole            Electronic (a.u.)      Nuclear  (a.u.)        Total (a.u.)
 ------------------------------------------------------------------------------------

 L = 1.  Multiply by 2.5417464519 to convert [e a0] to [Debye]
 Dipole X            :          0.0000000            0.0000000            0.0000000
 Dipole Y            :          0.0000000            0.0000000            0.0000000
 Dipole Z            :         -1.9866350           -1.4314672           -3.4181022
 Magnitude           :                                                    3.4181022

 ------------------------------------------------------------------------------------

*** tstop() called on Joses-MacBook-Pro-2.local at Thu Jul 17 09:40:58 2025
Module time:
	user time   =       2.80 seconds =       0.05 minutes
	system time =       2.94 seconds =       0.05 minutes
	total time  =          1 seconds =       0.02 minutes
Total time:
	user time   =      57.31 seconds =       0.96 minutes
	system time =      66.82 seconds =       1.11 minutes
	total time  =         12 seconds =       0.20 minutes

*** tstart() called on Joses-MacBook-Pro-2.local
*** at Thu Jul 17 09:40:58 2025

         ------------------------------------------------------------
                                   SCF GRAD
                          Rob Parrish, Justin Turney,
                       Andy Simmonett, and Alex Sokolov
         ------------------------------------------------------------

  ==> Geometry <==

    Molecular point group: c2v
    Full point group: C_inf_v

    Geometry (in Angstrom), charge = -1, multiplicity = 6:

       Center              X                  Y                   Z               Mass
    ------------   -----------------  -----------------  -----------------  -----------------
         BE           0.000000000000     0.000000000000     1.492539368508     9.012183065000
         O            0.000000000000     0.000000000000    -0.840957162988    15.994914619570

  Nuclear repulsion =    7.256779906409977

  ==> Basis Set <==

  Basis Set: CC-PVDZ
    Blend: CC-PVDZ
    Number of shells: 12
    Number of basis functions: 28
    Number of Cartesian functions: 30
    Spherical Harmonics?: true
    Max angular momentum: 2

  ==> DFJKGrad: Density-Fitted SCF Gradients <==

    Gradient:                    1
    J tasked:                  Yes
    K tasked:                  Yes
    wK tasked:                  No
    OpenMP threads:              1
    Integrals threads:           1
    Memory [MiB]:              375
    Schwarz Cutoff:          1E-12
    Fitting Condition:       1E-10

   => Auxiliary Basis Set <=

  Basis Set: (CC-PVDZ AUX)
    Blend: CC-PVDZ-JKFIT + DEF2-UNIVERSAL-JKFIT
    Number of shells: 41
    Number of basis functions: 121
    Number of Cartesian functions: 141
    Spherical Harmonics?: true
    Max angular momentum: 3

  ==> DFT Potential <==

   => LibXC <=

    Version 6.2.2
    S. Lehtola, C. Steigemann, M. J.T. Oliveira, and M. A.L. Marques.,  SoftwareX 7, 1â€“5 (2018) (10.1016/j.softx.2017.11.002)

   => Composite Functional: B3LYP <=

    B3LYP Hyb-GGA Exchange-Correlation Functional

    P. J. Stephens, F. J. Devlin, C. F. Chabalowski, and M. J. Frisch.,  J. Phys. Chem. 98, 11623 (1994) (10.1021/j100096a001)

    Deriv               =              1
    GGA                 =           TRUE
    Meta                =          FALSE

    Exchange Hybrid     =           TRUE
    MP2 Hybrid          =          FALSE

   => Exchange Functionals <=

    0.0800   Slater exchange
    0.7200         Becke 88

   => Exact (HF) Exchange <=

    0.2000               HF

   => Correlation Functionals <=

    0.1900   Vosko, Wilk & Nusair (VWN5_RPA)
    0.8100   Lee, Yang & Parr

   => LibXC Density Thresholds  <==

    XC_HYB_GGA_XC_B3LYP:  1.00E-15

   => Molecular Quadrature <=

    Radial Scheme          =       TREUTLER
    Pruning Scheme         =           NONE
    Nuclear Scheme         =       TREUTLER

    Blocking Scheme        =         OCTREE
    BS radius alpha        =              1
    Pruning alpha          =              1
    Radial Points          =             75
    Spherical Points       =            302
    Total Points           =          43615
    Total Blocks           =            405
    Max Points             =            255
    Max Functions          =             28
    Weights Tolerance      =       1.00E-15

  -Total Gradient:
     Atom            X                  Y                   Z
    ------   -----------------  -----------------  -----------------
       1       -0.000000000000     0.000000000000    -0.000023647702
       2        0.000000000000    -0.000000000000     0.000025507482

*** tstop() called on Joses-MacBook-Pro-2.local at Thu Jul 17 09:40:58 2025
Module time:
	user time   =       0.64 seconds =       0.01 minutes
	system time =       1.05 seconds =       0.02 minutes
	total time  =          0 seconds =       0.00 minutes
Total time:
	user time   =      57.95 seconds =       0.97 minutes
	system time =      67.87 seconds =       1.13 minutes
	total time  =         12 seconds =       0.20 minutes

    			-----------------------------------------

    			 OPTKING 3.0: for geometry optimizations

    			     By R.A. King, Bethel University

    			        with contributions from

    			    A.V. Copan, J. Cayton, A. Heide

    			-----------------------------------------

	                            ===> Fragment 1 <==

	 Z (Atomic Numbers)          Masses                          Geom
	       4.000000             9.012183          0.00000000  0.00000000  2.82049064
	       8.000000            15.994915          0.00000000  0.00000000 -1.58917872

	 - Coordinate -           - BOHR/RAD -       - ANG/DEG -
	 R(1,2)           =         4.409669           2.333497

	        --- Internal Coordinate Step in ANG or DEG, aJ/ANG or AJ/DEG ---
	-------------------------------------------------------------------------------
	           Coordinate      Previous         Force          Change          New
	           ----------      --------        ------          ------        ------
	               R(1,2)       2.33350        0.00020        0.00243       2.33592
	-------------------------------------------------------------------------------

	                                 ==> Convergence Check <==

	Measures of convergence in internal coordinates in au.

	Criteria marked as inactive (o), active & met (*), and active & unmet ( ).

	----------------------------------------------------------------------------------------------
	   Step    Total Energy     Delta E     Max Force     RMS Force      Max Disp      RMS Disp
	----------------------------------------------------------------------------------------------
	  Convergence Criteria     1.00e-06 *    3.00e-04 *             o    1.20e-03 *             o
	----------------------------------------------------------------------------------------------
	    15     -89.64027428   -8.16e-07 *    2.46e-05 *    2.46e-05 o    4.58e-03      4.58e-03 o  ~
	----------------------------------------------------------------------------------------------

Next Geometry in Ang
	Fragment 1 (Ang)

	   Be   0.0000000000   0.0000000000   1.4937520722
	    O   0.0000000000   0.0000000000  -0.8421698667

    Final optimized geometry and variables:
    Molecular point group: c2v
    Full point group: C_inf_v

    Geometry (in Angstrom), charge = -1, multiplicity = 6:

    BE           0.000000000000     0.000000000000     1.492539368508
    O            0.000000000000     0.000000000000    -0.840957162988

    Psi4 stopped on: Thursday, 17 July 2025 09:40AM
    Psi4 wall time for execution: 0:00:12.39

*** Psi4 exiting successfully. Buy a developer a beer!
