                               Psi4 1.9.1 release

  ==> Input File <==

--------------------------------------------------------------------------
molecule {
-1 6
B   0.00000        0.60000        0.00000
B   0.00000       -0.60000        0.00000
}

set {
basis              cc-pvdz
reference          uks
maxiter            500
geom_maxiter       500
DAMPING_PERCENTAGE 1
guess              SAP
}

optimize('b3lyp')
--------------------------------------------------------------------------

    Molecular point group: d2h
  Charge       = -1
  Multiplicity = 6
  Basis Set: CC-PVDZ
    Blend: CC-PVDZ
  Basis Set: (CC-PVDZ AUX)
    Blend: CC-PVDZ-JKFIT
  @DF-UKS Final Energy:   -49.17729068800801
    Total Energy =                        -49.1772906880080072
 Dipole X            :          0.0000000            0.0000000            0.0000000
 Dipole Y            :          0.0000000            0.0000000            0.0000000
 Dipole Z            :          0.0000000            0.0000000            0.0000000
 Magnitude           :                                                    0.0000000
    Molecular point group: d2h
  Basis Set: CC-PVDZ
    Blend: CC-PVDZ
  Basis Set: (CC-PVDZ AUX)
    Blend: CC-PVDZ-JKFIT
  Basis Set: CC-PVDZ
    Blend: CC-PVDZ
  Basis Set: (CC-PVDZ AUX)
    Blend: CC-PVDZ-JKFIT
  @DF-UKS Final Energy:   -49.32520068623940
    Total Energy =                        -49.3252006862393984
  Basis Set: CC-PVDZ
    Blend: CC-PVDZ
  Basis Set: (CC-PVDZ AUX)
    Blend: CC-PVDZ-JKFIT
  Basis Set: CC-PVDZ
    Blend: CC-PVDZ
  @DF-UKS Final Energy:   -49.34648745273606
    Total Energy =                        -49.3464874527360564
  @DF-UKS Final Energy:   -49.35612968092896
    Total Energy =                        -49.3561296809289587
  @DF-UKS Final Energy:   -49.35759907324740
    Total Energy =                        -49.3575990732473997
  @DF-UKS Final Energy:   -49.35785760133341
    Total Energy =                        -49.3578576013334143
  @DF-UKS Final Energy:   -49.35790687659998
    Total Energy =                        -49.3579068765999764
  Basis Set: (CC-PVDZ AUX)
    Blend: CC-PVDZ-JKFIT
  Basis Set: CC-PVDZ
    Blend: CC-PVDZ
  Basis Set: (CC-PVDZ AUX)
    Blend: CC-PVDZ-JKFIT
  @DF-UKS Final Energy:   -49.35791788433234
    Total Energy =                        -49.3579178843323376
  Basis Set: CC-PVDZ
    Blend: CC-PVDZ
  Basis Set: (CC-PVDZ AUX)
    Blend: CC-PVDZ-JKFIT
  Charge       = -1
  Multiplicity = 6
  Basis Set: CC-PVDZ
    Blend: CC-PVDZ
  Basis Set: (CC-PVDZ AUX)
    Blend: CC-PVDZ-JKFIT

    Orbital Energies [Eh]
    ---------------------

    Alpha Occupied:

       1Ag    -6.546942     1B2u   -6.546592     2Ag    -0.266275
       2B2u   -0.096552     3Ag     0.005656     1B1u    0.006571
       1B3u    0.018586     1B3g    0.143249

    Alpha Virtual:

       1B1g    0.203093     3B2u    0.335725     4Ag     0.466819
       2B1u    0.491060     2B3u    0.494756     2B3g    0.540781
       2B1g    0.553861     5Ag     0.556056     4B2u    0.596344
       1B2g    0.842069     6Ag     0.843378     5B2u    0.870495
       3B1u    0.885244     3B3u    0.885346     1Au     1.040595
       6B2u    1.042333     7Ag     1.301888     3B3g    1.325284
       3B1g    1.326919     7B2u    1.454580

    Beta Occupied:

       1Ag    -6.522882     1B2u   -6.522657     2Ag    -0.166395

    Beta Virtual:

       2B2u    0.099704     1B3u    0.143350     1B1u    0.162918
       3Ag     0.181216     1B1g    0.284443     1B3g    0.303933
       3B2u    0.384155     4Ag     0.518740     2B3u    0.540740
       2B1u    0.556650     2B1g    0.608928     2B3g    0.626632
       5Ag     0.633728     4B2u    0.703936     1B2g    0.928283
       6Ag     0.928414     5B2u    0.929272     3B3u    0.973236
       3B1u    0.993185     1Au     1.133788     6B2u    1.134006
       7Ag     1.393868     3B1g    1.410925     3B3g    1.430803
       7B2u    1.529676

    Final Occupation by Irrep:
             Ag   B1g   B2g   B3g    Au   B1u   B2u   B3u
    DOCC [     2,    0,    0,    0,    0,    0,    1,    0 ]
    SOCC [     1,    0,    0,    1,    0,    1,    1,    1 ]
    NA   [     3,    0,    0,    1,    0,    1,    2,    1 ]
    NB   [     2,    0,    0,    0,    0,    0,    1,    0 ]

  @DF-UKS Final Energy:   -49.35791904702408

   => Energetics <=

    Nuclear Repulsion Energy =              7.8454328252227636
    One-Electron Energy =                 -83.1512611121849403
    Two-Electron Energy =                  32.5546063911736496
    DFT Exchange-Correlation Energy =      -6.6066971512355508
    Empirical Dispersion Energy =           0.0000000000000000
    VV10 Nonlocal Energy =                  0.0000000000000000
    Total Energy =                        -49.3579190470240832

  UHF NO Occupations:
  HONO-2 :    1B3u 1.0000000
  HONO-1 :    1B1u 1.0000000
  HONO-0 :    2B2u 1.0000000
  LUNO+0 :    4 Ag 0.0006177
  LUNO+1 :    3B2u 0.0000006
  LUNO+2 :    5 Ag 0.0000000
  LUNO+3 :    4B2u 0.0000000

Computation Completed

Properties will be evaluated at   0.000000,   0.000000,   0.000000 [a0]

Properties computed using the SCF density matrix

 Multipole Moments:

 ------------------------------------------------------------------------------------
     Multipole            Electronic (a.u.)      Nuclear  (a.u.)        Total (a.u.)
 ------------------------------------------------------------------------------------

 L = 1.  Multiply by 2.5417464519 to convert [e a0] to [Debye]
 Dipole X            :          0.0000000            0.0000000            0.0000000
 Dipole Y            :          0.0000000            0.0000000            0.0000000
 Dipole Z            :          0.0000000            0.0000000            0.0000000
 Magnitude           :                                                    0.0000000

 ------------------------------------------------------------------------------------

*** tstop() called on Joses-MacBook-Pro-2.local at Thu Jul 17 09:49:13 2025
Module time:
	user time   =       2.44 seconds =       0.04 minutes
	system time =       3.04 seconds =       0.05 minutes
	total time  =          0 seconds =       0.00 minutes
Total time:
	user time   =      33.07 seconds =       0.55 minutes
	system time =      41.36 seconds =       0.69 minutes
	total time  =          7 seconds =       0.12 minutes

*** tstart() called on Joses-MacBook-Pro-2.local
*** at Thu Jul 17 09:49:13 2025

         ------------------------------------------------------------
                                   SCF GRAD
                          Rob Parrish, Justin Turney,
                       Andy Simmonett, and Alex Sokolov
         ------------------------------------------------------------

  ==> Geometry <==

    Molecular point group: d2h
    Full point group: D_inf_h

    Geometry (in Angstrom), charge = -1, multiplicity = 6:

       Center              X                  Y                   Z               Mass
    ------------   -----------------  -----------------  -----------------  -----------------
         B           -0.000000000000     0.843129407993     0.000000000000    11.009305360000
         B            0.000000000000    -0.843129407993     0.000000000000    11.009305360000

  Nuclear repulsion =    7.845432825222764

  ==> Basis Set <==

  Basis Set: CC-PVDZ
    Blend: CC-PVDZ
    Number of shells: 12
    Number of basis functions: 28
    Number of Cartesian functions: 30
    Spherical Harmonics?: true
    Max angular momentum: 2

  ==> DFJKGrad: Density-Fitted SCF Gradients <==

    Gradient:                    1
    J tasked:                  Yes
    K tasked:                  Yes
    wK tasked:                  No
    OpenMP threads:              1
    Integrals threads:           1
    Memory [MiB]:              375
    Schwarz Cutoff:          1E-12
    Fitting Condition:       1E-10

   => Auxiliary Basis Set <=

  Basis Set: (CC-PVDZ AUX)
    Blend: CC-PVDZ-JKFIT
    Number of shells: 48
    Number of basis functions: 140
    Number of Cartesian functions: 162
    Spherical Harmonics?: true
    Max angular momentum: 3

  ==> DFT Potential <==

   => LibXC <=

    Version 6.2.2
    S. Lehtola, C. Steigemann, M. J.T. Oliveira, and M. A.L. Marques.,  SoftwareX 7, 1â€“5 (2018) (10.1016/j.softx.2017.11.002)

   => Composite Functional: B3LYP <=

    B3LYP Hyb-GGA Exchange-Correlation Functional

    P. J. Stephens, F. J. Devlin, C. F. Chabalowski, and M. J. Frisch.,  J. Phys. Chem. 98, 11623 (1994) (10.1021/j100096a001)

    Deriv               =              1
    GGA                 =           TRUE
    Meta                =          FALSE

    Exchange Hybrid     =           TRUE
    MP2 Hybrid          =          FALSE

   => Exchange Functionals <=

    0.0800   Slater exchange
    0.7200         Becke 88

   => Exact (HF) Exchange <=

    0.2000               HF

   => Correlation Functionals <=

    0.1900   Vosko, Wilk & Nusair (VWN5_RPA)
    0.8100   Lee, Yang & Parr

   => LibXC Density Thresholds  <==

    XC_HYB_GGA_XC_B3LYP:  1.00E-15

   => Molecular Quadrature <=

    Radial Scheme          =       TREUTLER
    Pruning Scheme         =           NONE
    Nuclear Scheme         =       TREUTLER

    Blocking Scheme        =         OCTREE
    BS radius alpha        =              1
    Pruning alpha          =              1
    Radial Points          =             75
    Spherical Points       =            302
    Total Points           =          42542
    Total Blocks           =            388
    Max Points             =            253
    Max Functions          =             28
    Weights Tolerance      =       1.00E-15

  -Total Gradient:
     Atom            X                  Y                   Z
    ------   -----------------  -----------------  -----------------
       1        0.000000000000    -0.000098525703     0.000000000000
       2       -0.000000000000     0.000098525703     0.000000000000

*** tstop() called on Joses-MacBook-Pro-2.local at Thu Jul 17 09:49:13 2025
Module time:
	user time   =       0.79 seconds =       0.01 minutes
	system time =       0.81 seconds =       0.01 minutes
	total time  =          0 seconds =       0.00 minutes
Total time:
	user time   =      33.86 seconds =       0.56 minutes
	system time =      42.18 seconds =       0.70 minutes
	total time  =          7 seconds =       0.12 minutes

    			-----------------------------------------

    			 OPTKING 3.0: for geometry optimizations

    			     By R.A. King, Bethel University

    			        with contributions from

    			    A.V. Copan, J. Cayton, A. Heide

    			-----------------------------------------

	                            ===> Fragment 1 <==

	 Z (Atomic Numbers)          Masses                          Geom
	       5.000000            11.009305         -0.00000000  1.59328367  0.00000000
	       5.000000            11.009305          0.00000000 -1.59328367  0.00000000

	 - Coordinate -           - BOHR/RAD -       - ANG/DEG -
	 R(1,2)           =         3.186567           1.686259

	        --- Internal Coordinate Step in ANG or DEG, aJ/ANG or AJ/DEG ---
	-------------------------------------------------------------------------------
	           Coordinate      Previous         Force          Change          New
	           ----------      --------        ------          ------        ------
	               R(1,2)       1.68626        0.00081        0.00026       1.68652
	-------------------------------------------------------------------------------

	                                 ==> Convergence Check <==

	Measures of convergence in internal coordinates in au.

	Criteria marked as inactive (o), active & met (*), and active & unmet ( ).

	----------------------------------------------------------------------------------------------
	   Step    Total Energy     Delta E     Max Force     RMS Force      Max Disp      RMS Disp
	----------------------------------------------------------------------------------------------
	  Convergence Criteria     1.00e-06 *    3.00e-04 *             o    1.20e-03 *             o
	----------------------------------------------------------------------------------------------
	     9     -49.35791905   -1.16e-06      9.85e-05 *    9.85e-05 o    4.87e-04 *    4.87e-04 o  ~
	----------------------------------------------------------------------------------------------

Next Geometry in Ang
	Fragment 1 (Ang)

	    B  -0.0000000000   0.8432582618   0.0000000000
	    B   0.0000000000  -0.8432582618   0.0000000000

    Final optimized geometry and variables:
    Molecular point group: d2h
    Full point group: D_inf_h

    Geometry (in Angstrom), charge = -1, multiplicity = 6:

    B           -0.000000000000     0.843129407993     0.000000000000
    B            0.000000000000    -0.843129407993     0.000000000000

    Psi4 stopped on: Thursday, 17 July 2025 09:49AM
    Psi4 wall time for execution: 0:00:08.00

*** Psi4 exiting successfully. Buy a developer a beer!
