                               Psi4 1.9.1 release

  ==> Input File <==

--------------------------------------------------------------------------
molecule {
-1 6
Mg   0.00000        0.60000        0.00000
Ar   0.00000       -0.60000        0.00000
}

set {
basis              cc-pvdz
reference          uks
maxiter            500
geom_maxiter       500
DAMPING_PERCENTAGE 1
guess              SAP
}

optimize('b3lyp')
--------------------------------------------------------------------------

    Molecular point group: c2v
  Charge       = -1
  Multiplicity = 6
  Basis Set: CC-PVDZ
    Blend: CC-PVDZ
  Basis Set: (CC-PVDZ AUX)
    Blend: CC-PVDZ-JKFIT + DEF2-UNIVERSAL-JKFIT
  @DF-UKS Final Energy:  -725.78473422290904
    Total Energy =                       -725.7847342229092646
 Dipole X            :          0.0000000            0.0000000            0.0000000
 Dipole Y            :          0.0000000            0.0000000            0.0000000
 Dipole Z            :         -4.8433262            1.6956924           -3.1476338
 Magnitude           :                                                    3.1476338
    Molecular point group: c2v
  Basis Set: CC-PVDZ
    Blend: CC-PVDZ
  Basis Set: (CC-PVDZ AUX)
    Blend: CC-PVDZ-JKFIT + DEF2-UNIVERSAL-JKFIT
  Basis Set: CC-PVDZ
    Blend: CC-PVDZ
  Basis Set: (CC-PVDZ AUX)
    Blend: CC-PVDZ-JKFIT + DEF2-UNIVERSAL-JKFIT
  @DF-UKS Final Energy:  -725.80903411958639
    Total Energy =                       -725.8090341195863857
  Basis Set: CC-PVDZ
    Blend: CC-PVDZ
  Basis Set: (CC-PVDZ AUX)
    Blend: CC-PVDZ-JKFIT + DEF2-UNIVERSAL-JKFIT
  Basis Set: CC-PVDZ
    Blend: CC-PVDZ
  @DF-UKS Final Energy:  -725.85521594038528
    Total Energy =                       -725.8552159403851647
  @DF-UKS Final Energy:  -726.01550262071248
    Total Energy =                       -726.0155026207124820
  @DF-UKS Final Energy:  -726.52821893388295
    Total Energy =                       -726.5282189338829539
  @DF-UKS Final Energy:  -726.71864635362817
    Total Energy =                       -726.7186463536281735
  @DF-UKS Final Energy:  -726.84559224006262
    Total Energy =                       -726.8455922400626150
  @DF-UKS Final Energy:  -726.93151687661407
    Total Energy =                       -726.9315168766140687
  @DF-UKS Final Energy:  -726.98642074139946
    Total Energy =                       -726.9864207413994563
  @DF-UKS Final Energy:  -727.02331092374118
    Total Energy =                       -727.0233109237411782
  @DF-UKS Final Energy:  -727.04624315448268
    Total Energy =                       -727.0462431544826813
  @DF-UKS Final Energy:  -727.04750811940062
    Total Energy =                       -727.0475081194006179
  @DF-UKS Final Energy:  -727.05781893327242
    Total Energy =                       -727.0578189332723014
  @DF-UKS Final Energy:  -727.05801198380789
    Total Energy =                       -727.0580119838080009
  @DF-UKS Final Energy:  -727.06009790127973
    Total Energy =                       -727.0600979012798462
  @DF-UKS Final Energy:  -727.06021927668235
    Total Energy =                       -727.0602192766823464
  Basis Set: (CC-PVDZ AUX)
    Blend: CC-PVDZ-JKFIT + DEF2-UNIVERSAL-JKFIT
  Basis Set: CC-PVDZ
    Blend: CC-PVDZ
  Basis Set: (CC-PVDZ AUX)
    Blend: CC-PVDZ-JKFIT + DEF2-UNIVERSAL-JKFIT
  @DF-UKS Final Energy:  -727.06022274975726
    Total Energy =                       -727.0602227497572585
  Basis Set: CC-PVDZ
    Blend: CC-PVDZ
  Basis Set: (CC-PVDZ AUX)
    Blend: CC-PVDZ-JKFIT + DEF2-UNIVERSAL-JKFIT
  Charge       = -1
  Multiplicity = 6
  Basis Set: CC-PVDZ
    Blend: CC-PVDZ
  Basis Set: (CC-PVDZ AUX)
    Blend: CC-PVDZ-JKFIT + DEF2-UNIVERSAL-JKFIT

    Orbital Energies [Eh]
    ---------------------

    Alpha Occupied:

       1A1  -115.321036     2A1   -46.633460     3A1   -11.347878
       4A1    -8.920332     1B1    -8.890366     1B2    -8.890366
       5A1    -2.914209     6A1    -1.658903     2B1    -1.657290
       2B2    -1.657290     7A1    -1.148103     8A1    -0.626871
       3B1    -0.561140     3B2    -0.561140     9A1    -0.052120
      10A1     0.076892     4B2     0.082327     4B1     0.082327

    Alpha Virtual:

      11A1     0.218080    12A1     0.299683     5B1     0.321197
       5B2     0.321197    13A1     0.456561     6B1     0.457600
       6B2     0.457600     1A2     0.502544    14A1     0.502544
      15A1     0.522932     7B1     0.556615     7B2     0.556615
      16A1     0.654655     8B1     0.654728     8B2     0.654728
      17A1     0.696052     2A2     0.696102    18A1     0.857730

    Beta Occupied:

       1A1  -115.311284     2A1   -46.629128     3A1   -11.338374
       4A1    -8.891326     1B1    -8.884315     1B2    -8.884315
       5A1    -2.907227     6A1    -1.652659     2B1    -1.651182
       2B2    -1.651182     7A1    -1.082761     3B1    -0.539426
       3B2    -0.539426

    Beta Virtual:

       8A1    -0.434266     9A1     0.074743    10A1     0.171036
       4B1     0.186863     4B2     0.186863    11A1     0.273875
      12A1     0.348596     5B1     0.371218     5B2     0.371218
       6B1     0.504351     6B2     0.504351    13A1     0.520383
      14A1     0.567133    15A1     0.571032     1A2     0.571036
       7B1     0.592982     7B2     0.592982    16A1     0.708045
       2A2     0.708091     8B1     0.722148     8B2     0.722148
      17A1     0.741762    18A1     0.896887

    Final Occupation by Irrep:
             A1    A2    B1    B2
    DOCC [     7,    0,    3,    3 ]
    SOCC [     3,    0,    1,    1 ]
    NA   [    10,    0,    4,    4 ]
    NB   [     7,    0,    3,    3 ]

  @DF-UKS Final Energy:  -727.06022282242816

   => Energetics <=

    Nuclear Repulsion Energy =             35.0896815683508549
    One-Electron Energy =               -1076.6511965562581281
    Two-Electron Energy =                 352.5821700530382827
    DFT Exchange-Correlation Energy =     -38.0808778875593248
    Empirical Dispersion Energy =           0.0000000000000000
    VV10 Nonlocal Energy =                  0.0000000000000000
    Total Energy =                       -727.0602228224283863

  UHF NO Occupations:
  HONO-2 :    4 B2 1.0000000
  HONO-1 :    4 B1 1.0000000
  HONO-0 :   10 A1 1.0000000
  LUNO+0 :   11 A1 0.0008107
  LUNO+1 :    5 B2 0.0000401
  LUNO+2 :    5 B1 0.0000401
  LUNO+3 :   12 A1 0.0000003

Computation Completed

Properties will be evaluated at   0.000000,   0.000000,   0.000000 [a0]

Properties computed using the SCF density matrix

 Multipole Moments:

 ------------------------------------------------------------------------------------
     Multipole            Electronic (a.u.)      Nuclear  (a.u.)        Total (a.u.)
 ------------------------------------------------------------------------------------

 L = 1.  Multiply by 2.5417464519 to convert [e a0] to [Debye]
 Dipole X            :          0.0000000            0.0000000            0.0000000
 Dipole Y            :          0.0000000            0.0000000            0.0000000
 Dipole Z            :        -13.8070310            4.6030033           -9.2040278
 Magnitude           :                                                    9.2040278

 ------------------------------------------------------------------------------------

*** tstop() called on Joses-MacBook-Pro-2.local at Thu Jul 17 11:33:40 2025
Module time:
	user time   =       5.86 seconds =       0.10 minutes
	system time =       3.18 seconds =       0.05 minutes
	total time  =          1 seconds =       0.02 minutes
Total time:
	user time   =     194.50 seconds =       3.24 minutes
	system time =      75.66 seconds =       1.26 minutes
	total time  =         26 seconds =       0.43 minutes

*** tstart() called on Joses-MacBook-Pro-2.local
*** at Thu Jul 17 11:33:40 2025

         ------------------------------------------------------------
                                   SCF GRAD
                          Rob Parrish, Justin Turney,
                       Andy Simmonett, and Alex Sokolov
         ------------------------------------------------------------

  ==> Geometry <==

    Molecular point group: c2v
    Full point group: C_inf_v

    Geometry (in Angstrom), charge = -1, multiplicity = 6:

       Center              X                  Y                   Z               Mass
    ------------   -----------------  -----------------  -----------------  -----------------
         MG           0.000000000000     0.000000000000     2.035653123458    23.985041697000
         AR           0.000000000000     0.000000000000    -1.221779614485    39.962383123700

  Nuclear repulsion =   35.089681568350855

  ==> Basis Set <==

  Basis Set: CC-PVDZ
    Blend: CC-PVDZ
    Number of shells: 16
    Number of basis functions: 36
    Number of Cartesian functions: 38
    Spherical Harmonics?: true
    Max angular momentum: 2

  ==> DFJKGrad: Density-Fitted SCF Gradients <==

    Gradient:                    1
    J tasked:                  Yes
    K tasked:                  Yes
    wK tasked:                  No
    OpenMP threads:              1
    Integrals threads:           1
    Memory [MiB]:              375
    Schwarz Cutoff:          1E-12
    Fitting Condition:       1E-10

   => Auxiliary Basis Set <=

  Basis Set: (CC-PVDZ AUX)
    Blend: CC-PVDZ-JKFIT + DEF2-UNIVERSAL-JKFIT
    Number of shells: 70
    Number of basis functions: 224
    Number of Cartesian functions: 267
    Spherical Harmonics?: true
    Max angular momentum: 4

  ==> DFT Potential <==

   => LibXC <=

    Version 6.2.2
    S. Lehtola, C. Steigemann, M. J.T. Oliveira, and M. A.L. Marques.,  SoftwareX 7, 1â€“5 (2018) (10.1016/j.softx.2017.11.002)

   => Composite Functional: B3LYP <=

    B3LYP Hyb-GGA Exchange-Correlation Functional

    P. J. Stephens, F. J. Devlin, C. F. Chabalowski, and M. J. Frisch.,  J. Phys. Chem. 98, 11623 (1994) (10.1021/j100096a001)

    Deriv               =              1
    GGA                 =           TRUE
    Meta                =          FALSE

    Exchange Hybrid     =           TRUE
    MP2 Hybrid          =          FALSE

   => Exchange Functionals <=

    0.0800   Slater exchange
    0.7200         Becke 88

   => Exact (HF) Exchange <=

    0.2000               HF

   => Correlation Functionals <=

    0.1900   Vosko, Wilk & Nusair (VWN5_RPA)
    0.8100   Lee, Yang & Parr

   => LibXC Density Thresholds  <==

    XC_HYB_GGA_XC_B3LYP:  1.00E-15

   => Molecular Quadrature <=

    Radial Scheme          =       TREUTLER
    Pruning Scheme         =           NONE
    Nuclear Scheme         =       TREUTLER

    Blocking Scheme        =         OCTREE
    BS radius alpha        =              1
    Pruning alpha          =              1
    Radial Points          =             75
    Spherical Points       =            302
    Total Points           =          43061
    Total Blocks           =            422
    Max Points             =            252
    Max Functions          =             36
    Weights Tolerance      =       1.00E-15

  -Total Gradient:
     Atom            X                  Y                   Z
    ------   -----------------  -----------------  -----------------
       1        0.000000000000     0.000000000000    -0.000000608435
       2        0.000000000000    -0.000000000000     0.000024210426

*** tstop() called on Joses-MacBook-Pro-2.local at Thu Jul 17 11:33:40 2025
Module time:
	user time   =       2.35 seconds =       0.04 minutes
	system time =       2.27 seconds =       0.04 minutes
	total time  =          0 seconds =       0.00 minutes
Total time:
	user time   =     196.86 seconds =       3.28 minutes
	system time =      77.93 seconds =       1.30 minutes
	total time  =         26 seconds =       0.43 minutes

    			-----------------------------------------

    			 OPTKING 3.0: for geometry optimizations

    			     By R.A. King, Bethel University

    			        with contributions from

    			    A.V. Copan, J. Cayton, A. Heide

    			-----------------------------------------

	                            ===> Fragment 1 <==

	 Z (Atomic Numbers)          Masses                          Geom
	      12.000000            23.985042          0.00000000  0.00000000  3.84682689
	      18.000000            39.962383          0.00000000  0.00000000 -2.30882886

	 - Coordinate -           - BOHR/RAD -       - ANG/DEG -
	 R(1,2)           =         6.155656           3.257433

	        --- Internal Coordinate Step in ANG or DEG, aJ/ANG or AJ/DEG ---
	-------------------------------------------------------------------------------
	           Coordinate      Previous         Force          Change          New
	           ----------      --------        ------          ------        ------
	               R(1,2)       3.25743        0.00010        0.00026       3.25769
	-------------------------------------------------------------------------------

	                                 ==> Convergence Check <==

	Measures of convergence in internal coordinates in au.

	Criteria marked as inactive (o), active & met (*), and active & unmet ( ).

	----------------------------------------------------------------------------------------------
	   Step    Total Energy     Delta E     Max Force     RMS Force      Max Disp      RMS Disp
	----------------------------------------------------------------------------------------------
	  Convergence Criteria     1.00e-06 *    3.00e-04 *             o    1.20e-03 *             o
	----------------------------------------------------------------------------------------------
	    18    -727.06022282   -7.27e-08 *    1.24e-05 *    1.24e-05 o    4.85e-04 *    4.85e-04 o  ~
	----------------------------------------------------------------------------------------------

Next Geometry in Ang
	Fragment 1 (Ang)

	   Mg   0.0000000000   0.0000000000   2.0357815763
	   Ar   0.0000000000   0.0000000000  -1.2219080674

    Final optimized geometry and variables:
    Molecular point group: c2v
    Full point group: C_inf_v

    Geometry (in Angstrom), charge = -1, multiplicity = 6:

    MG           0.000000000000     0.000000000000     2.035653123458
    AR           0.000000000000     0.000000000000    -1.221779614485

    Psi4 stopped on: Thursday, 17 July 2025 11:33AM
    Psi4 wall time for execution: 0:00:26.93

*** Psi4 exiting successfully. Buy a developer a beer!
