                               Psi4 1.9.1 release

  ==> Input File <==

--------------------------------------------------------------------------
molecule {
-1 1
S   0.00000        0.60000        0.00000
Cl   0.00000       -0.60000        0.00000
}

set {
basis              cc-pvdz
reference          uks
maxiter            500
geom_maxiter       500
DAMPING_PERCENTAGE 1
guess              SAP
}

optimize('b3lyp')
--------------------------------------------------------------------------

    Molecular point group: c2v
  Charge       = -1
  Multiplicity = 1
  Basis Set: CC-PVDZ
    Blend: CC-PVDZ
  Basis Set: (CC-PVDZ AUX)
    Blend: CC-PVDZ-JKFIT
  @DF-UKS Final Energy:  -857.08548881612376
    Total Energy =                       -857.0854888161236431
 Dipole X            :          0.0000000            0.0000000            0.0000000
 Dipole Y            :          0.0000000            0.0000000            0.0000000
 Dipole Z            :         -1.6099234            0.5412130           -1.0687104
 Magnitude           :                                                    1.0687104
    Molecular point group: c2v
  Basis Set: CC-PVDZ
    Blend: CC-PVDZ
  Basis Set: (CC-PVDZ AUX)
    Blend: CC-PVDZ-JKFIT
  Basis Set: CC-PVDZ
    Blend: CC-PVDZ
  Basis Set: (CC-PVDZ AUX)
    Blend: CC-PVDZ-JKFIT
  @DF-UKS Final Energy:  -857.13482613012354
    Total Energy =                       -857.1348261301235425
  Basis Set: CC-PVDZ
    Blend: CC-PVDZ
  Basis Set: (CC-PVDZ AUX)
    Blend: CC-PVDZ-JKFIT
  Basis Set: CC-PVDZ
    Blend: CC-PVDZ
  @DF-UKS Final Energy:  -857.22545156751630
    Total Energy =                       -857.2254515675165294
  @DF-UKS Final Energy:  -857.51289221792467
    Total Energy =                       -857.5128922179247866
  @DF-UKS Final Energy:  -858.04777565863060
    Total Energy =                       -858.0477756586305986
  @DF-UKS Final Energy:  -858.23561088198517
    Total Energy =                       -858.2356108819851670
  @DF-UKS Final Energy:  -858.35618156247119
    Total Energy =                       -858.3561815624710789
  @DF-UKS Final Energy:  -858.40865022148103
    Total Energy =                       -858.4086502214810253
  @DF-UKS Final Energy:  -858.43677402804678
    Total Energy =                       -858.4367740280467842
  @DF-UKS Final Energy:  -858.45097711784706
    Total Energy =                       -858.4509771178470601
  @DF-UKS Final Energy:  -858.45660184714040
    Total Energy =                       -858.4566018471402913
  @DF-UKS Final Energy:  -858.45838070071738
    Total Energy =                       -858.4583807007173846
  @DF-UKS Final Energy:  -858.45872310272375
    Total Energy =                       -858.4587231027237522
  @DF-UKS Final Energy:  -858.45879615481681
    Total Energy =                       -858.4587961548168096
  @DF-UKS Final Energy:  -858.45881498754807
    Total Energy =                       -858.4588149875480667
  Basis Set: (CC-PVDZ AUX)
    Blend: CC-PVDZ-JKFIT
  Basis Set: CC-PVDZ
    Blend: CC-PVDZ
  Basis Set: (CC-PVDZ AUX)
    Blend: CC-PVDZ-JKFIT
  @DF-UKS Final Energy:  -858.45881732558269
    Total Energy =                       -858.4588173255826860
  Basis Set: CC-PVDZ
    Blend: CC-PVDZ
  Basis Set: (CC-PVDZ AUX)
    Blend: CC-PVDZ-JKFIT
  Charge       = -1
  Multiplicity = 1
  Basis Set: CC-PVDZ
    Blend: CC-PVDZ
  Basis Set: (CC-PVDZ AUX)
    Blend: CC-PVDZ-JKFIT

    Orbital Energies [Eh]
    ---------------------

    Alpha Occupied:

       1A1  -101.309368     2A1   -88.612822     3A1    -9.225174
       4A1    -7.669797     5A1    -6.987281     1B2    -6.978607
       1B1    -6.978607     6A1    -5.640694     2B2    -5.624461
       2B1    -5.624461     7A1    -0.586195     8A1    -0.382821
       9A1    -0.140062     3B1    -0.105923     3B2    -0.105923
       4B2     0.024148     4B1     0.024148

    Alpha Virtual:

      10A1     0.160200    11A1     0.678374    12A1     0.705128
       5B2     0.735688     5B1     0.735688    13A1     0.738301
       6B2     0.771264     6B1     0.771264     7B1     0.820109
       7B2     0.820109     1A2     0.887277    14A1     0.887278
      15A1     0.939600    16A1     0.974084     2A2     0.974087
      17A1     0.985316     8B1     1.090817     8B2     1.090817
      18A1     1.490847

    Beta Occupied:

       1A1  -101.309368     2A1   -88.612822     3A1    -9.225174
       4A1    -7.669797     5A1    -6.987281     1B2    -6.978607
       1B1    -6.978607     6A1    -5.640694     2B2    -5.624461
       2B1    -5.624461     7A1    -0.586195     8A1    -0.382821
       9A1    -0.140062     3B1    -0.105923     3B2    -0.105923
       4B2     0.024148     4B1     0.024148

    Beta Virtual:

      10A1     0.160200    11A1     0.678374    12A1     0.705128
       5B2     0.735688     5B1     0.735688    13A1     0.738301
       6B2     0.771264     6B1     0.771264     7B1     0.820109
       7B2     0.820109     1A2     0.887277    14A1     0.887278
      15A1     0.939600    16A1     0.974084     2A2     0.974087
      17A1     0.985316     8B1     1.090817     8B2     1.090817
      18A1     1.490847

    Final Occupation by Irrep:
             A1    A2    B1    B2
    DOCC [     9,    0,    4,    4 ]
    SOCC [     0,    0,    0,    0 ]
    NA   [     9,    0,    4,    4 ]
    NB   [     9,    0,    4,    4 ]

  @DF-UKS Final Energy:  -858.45881742377367

   => Energetics <=

    Nuclear Repulsion Energy =             65.7633162997994702
    One-Electron Energy =               -1325.5671250960804173
    Two-Electron Energy =                 444.9960078476401577
    DFT Exchange-Correlation Energy =     -43.6510164751328560
    Empirical Dispersion Energy =           0.0000000000000000
    VV10 Nonlocal Energy =                  0.0000000000000000
    Total Energy =                       -858.4588174237736666

  UHF NO Occupations:
  HONO-2 :    3 B2 2.0000000
  HONO-1 :    4 B2 2.0000000
  HONO-0 :    9 A1 2.0000000
  LUNO+0 :   10 A1 0.0000000
  LUNO+1 :    5 B1 0.0000000
  LUNO+2 :   11 A1 0.0000000
  LUNO+3 :    6 B1 0.0000000

Computation Completed

Properties will be evaluated at   0.000000,   0.000000,   0.000000 [a0]

Properties computed using the SCF density matrix

 Multipole Moments:

 ------------------------------------------------------------------------------------
     Multipole            Electronic (a.u.)      Nuclear  (a.u.)        Total (a.u.)
 ------------------------------------------------------------------------------------

 L = 1.  Multiply by 2.5417464519 to convert [e a0] to [Debye]
 Dipole X            :          0.0000000            0.0000000            0.0000000
 Dipole Y            :          0.0000000            0.0000000            0.0000000
 Dipole Z            :         -1.6551646            0.9871277           -0.6680370
 Magnitude           :                                                    0.6680370

 ------------------------------------------------------------------------------------

*** tstop() called on Joses-MacBook-Pro-2.local at Thu Jul 17 12:06:31 2025
Module time:
	user time   =       6.89 seconds =       0.11 minutes
	system time =       1.66 seconds =       0.03 minutes
	total time  =          1 seconds =       0.02 minutes
Total time:
	user time   =     191.66 seconds =       3.19 minutes
	system time =      42.60 seconds =       0.71 minutes
	total time  =         22 seconds =       0.37 minutes

*** tstart() called on Joses-MacBook-Pro-2.local
*** at Thu Jul 17 12:06:31 2025

         ------------------------------------------------------------
                                   SCF GRAD
                          Rob Parrish, Justin Turney,
                       Andy Simmonett, and Alex Sokolov
         ------------------------------------------------------------

  ==> Geometry <==

    Molecular point group: c2v
    Full point group: C_inf_v

    Geometry (in Angstrom), charge = -1, multiplicity = 1:

       Center              X                  Y                   Z               Mass
    ------------   -----------------  -----------------  -----------------  -----------------
         S            0.000000000000     0.000000000000     1.143341619679    31.972071174400
         CL           0.000000000000     0.000000000000    -1.045358850445    34.968852682000

  Nuclear repulsion =   65.763316299799470

  ==> Basis Set <==

  Basis Set: CC-PVDZ
    Blend: CC-PVDZ
    Number of shells: 16
    Number of basis functions: 36
    Number of Cartesian functions: 38
    Spherical Harmonics?: true
    Max angular momentum: 2

  ==> DFJKGrad: Density-Fitted SCF Gradients <==

    Gradient:                    1
    J tasked:                  Yes
    K tasked:                  Yes
    wK tasked:                  No
    OpenMP threads:              1
    Integrals threads:           1
    Memory [MiB]:              375
    Schwarz Cutoff:          1E-12
    Fitting Condition:       1E-10

   => Auxiliary Basis Set <=

  Basis Set: (CC-PVDZ AUX)
    Blend: CC-PVDZ-JKFIT
    Number of shells: 72
    Number of basis functions: 224
    Number of Cartesian functions: 260
    Spherical Harmonics?: true
    Max angular momentum: 3

  ==> DFT Potential <==

   => LibXC <=

    Version 6.2.2
    S. Lehtola, C. Steigemann, M. J.T. Oliveira, and M. A.L. Marques.,  SoftwareX 7, 1â€“5 (2018) (10.1016/j.softx.2017.11.002)

   => Composite Functional: B3LYP <=

    B3LYP Hyb-GGA Exchange-Correlation Functional

    P. J. Stephens, F. J. Devlin, C. F. Chabalowski, and M. J. Frisch.,  J. Phys. Chem. 98, 11623 (1994) (10.1021/j100096a001)

    Deriv               =              1
    GGA                 =           TRUE
    Meta                =          FALSE

    Exchange Hybrid     =           TRUE
    MP2 Hybrid          =          FALSE

   => Exchange Functionals <=

    0.0800   Slater exchange
    0.7200         Becke 88

   => Exact (HF) Exchange <=

    0.2000               HF

   => Correlation Functionals <=

    0.1900   Vosko, Wilk & Nusair (VWN5_RPA)
    0.8100   Lee, Yang & Parr

   => LibXC Density Thresholds  <==

    XC_HYB_GGA_XC_B3LYP:  1.00E-15

   => Molecular Quadrature <=

    Radial Scheme          =       TREUTLER
    Pruning Scheme         =           NONE
    Nuclear Scheme         =       TREUTLER

    Blocking Scheme        =         OCTREE
    BS radius alpha        =              1
    Pruning alpha          =              1
    Radial Points          =             75
    Spherical Points       =            302
    Total Points           =          40250
    Total Blocks           =            360
    Max Points             =            254
    Max Functions          =             36
    Weights Tolerance      =       1.00E-15

  -Total Gradient:
     Atom            X                  Y                   Z
    ------   -----------------  -----------------  -----------------
       1       -0.000000000000    -0.000000000000    -0.000012915465
       2       -0.000000000000    -0.000000000000     0.000018577005

*** tstop() called on Joses-MacBook-Pro-2.local at Thu Jul 17 12:06:31 2025
Module time:
	user time   =       2.38 seconds =       0.04 minutes
	system time =       1.01 seconds =       0.02 minutes
	total time  =          0 seconds =       0.00 minutes
Total time:
	user time   =     194.04 seconds =       3.23 minutes
	system time =      43.61 seconds =       0.73 minutes
	total time  =         22 seconds =       0.37 minutes

    			-----------------------------------------

    			 OPTKING 3.0: for geometry optimizations

    			     By R.A. King, Bethel University

    			        with contributions from

    			    A.V. Copan, J. Cayton, A. Heide

    			-----------------------------------------

	                            ===> Fragment 1 <==

	 Z (Atomic Numbers)          Masses                          Geom
	      16.000000            31.972071          0.00000000  0.00000000  2.16060253
	      17.000000            34.968853          0.00000000  0.00000000 -1.97544193

	 - Coordinate -           - BOHR/RAD -       - ANG/DEG -
	 R(1,2)           =         4.136044           2.188700

	        --- Internal Coordinate Step in ANG or DEG, aJ/ANG or AJ/DEG ---
	-------------------------------------------------------------------------------
	           Coordinate      Previous         Force          Change          New
	           ----------      --------        ------          ------        ------
	               R(1,2)       2.18870        0.00013        0.00007       2.18877
	-------------------------------------------------------------------------------

	                                 ==> Convergence Check <==

	Measures of convergence in internal coordinates in au.

	Criteria marked as inactive (o), active & met (*), and active & unmet ( ).

	----------------------------------------------------------------------------------------------
	   Step    Total Energy     Delta E     Max Force     RMS Force      Max Disp      RMS Disp
	----------------------------------------------------------------------------------------------
	  Convergence Criteria     1.00e-06 *    3.00e-04 *             o    1.20e-03 *             o
	----------------------------------------------------------------------------------------------
	    17    -858.45881742   -9.82e-08 *    1.57e-05 *    1.57e-05 o    1.40e-04 *    1.40e-04 o  ~
	----------------------------------------------------------------------------------------------

Next Geometry in Ang
	Fragment 1 (Ang)

	    S   0.0000000000   0.0000000000   1.1433785520
	   Cl   0.0000000000   0.0000000000  -1.0453957828

    Final optimized geometry and variables:
    Molecular point group: c2v
    Full point group: C_inf_v

    Geometry (in Angstrom), charge = -1, multiplicity = 1:

    S            0.000000000000     0.000000000000     1.143341619679
    CL           0.000000000000     0.000000000000    -1.045358850445

    Psi4 stopped on: Thursday, 17 July 2025 12:06PM
    Psi4 wall time for execution: 0:00:22.93

*** Psi4 exiting successfully. Buy a developer a beer!
