                               Psi4 1.9.1 release

  ==> Input File <==

--------------------------------------------------------------------------
molecule {
-1 1
Ne   0.00000        0.60000        0.00000
Cl   0.00000       -0.60000        0.00000
}

set {
basis              cc-pvdz
reference          uks
maxiter            500
geom_maxiter       500
DAMPING_PERCENTAGE 1
guess              SAP
}

optimize('b3lyp')
--------------------------------------------------------------------------

    Molecular point group: c2v
  Charge       = -1
  Multiplicity = 1
  Basis Set: CC-PVDZ
    Blend: CC-PVDZ
  Basis Set: (CC-PVDZ AUX)
    Blend: CC-PVDZ-JKFIT
  @DF-UKS Final Energy:  -588.15805101599858
    Total Energy =                       -588.1580510159986943
 Dipole X            :          0.0000000            0.0000000            0.0000000
 Dipole Y            :          0.0000000            0.0000000            0.0000000
 Dipole Z            :          1.7955993            0.4050456            2.2006448
 Magnitude           :                                                    2.2006448
    Molecular point group: c2v
  Basis Set: CC-PVDZ
    Blend: CC-PVDZ
  Basis Set: (CC-PVDZ AUX)
    Blend: CC-PVDZ-JKFIT
  Basis Set: CC-PVDZ
    Blend: CC-PVDZ
  Basis Set: (CC-PVDZ AUX)
    Blend: CC-PVDZ-JKFIT
  @DF-UKS Final Energy:  -588.55797986730875
    Total Energy =                       -588.5579798673086316
  Basis Set: CC-PVDZ
    Blend: CC-PVDZ
  Basis Set: (CC-PVDZ AUX)
    Blend: CC-PVDZ-JKFIT
  Basis Set: CC-PVDZ
    Blend: CC-PVDZ
  @DF-UKS Final Energy:  -588.85197240184891
    Total Energy =                       -588.8519724018489114
  @DF-UKS Final Energy:  -589.02322166147746
    Total Energy =                       -589.0232216614773506
  @DF-UKS Final Energy:  -589.09780504387936
    Total Energy =                       -589.0978050438792479
  @DF-UKS Final Energy:  -589.13617457178907
    Total Energy =                       -589.1361745717890699
  @DF-UKS Final Energy:  -589.15599572762756
    Total Energy =                       -589.1559957276275554
  @DF-UKS Final Energy:  -589.16636102403504
    Total Energy =                       -589.1663610240350408
  @DF-UKS Final Energy:  -589.17168924339614
    Total Energy =                       -589.1716892433961448
  @DF-UKS Final Energy:  -589.17433033330735
    Total Energy =                       -589.1743303333073527
  @DF-UKS Final Energy:  -589.17555418867835
    Total Energy =                       -589.1755541886783476
  @DF-UKS Final Energy:  -589.17606977244134
    Total Energy =                       -589.1760697724413376
  @DF-UKS Final Energy:  -589.17626554752405
    Total Energy =                       -589.1762655475239399
  @DF-UKS Final Energy:  -589.17631528936124
    Total Energy =                       -589.1763152893611277
  @DF-UKS Final Energy:  -589.17633715898171
    Total Energy =                       -589.1763371589817098
  @DF-UKS Final Energy:  -589.17634428653344
    Total Energy =                       -589.1763442865334355
  @DF-UKS Final Energy:  -589.17634695154300
    Total Energy =                       -589.1763469515428824
  Basis Set: (CC-PVDZ AUX)
    Blend: CC-PVDZ-JKFIT
  Basis Set: CC-PVDZ
    Blend: CC-PVDZ
  Basis Set: (CC-PVDZ AUX)
    Blend: CC-PVDZ-JKFIT
  @DF-UKS Final Energy:  -589.17634839017501
    Total Energy =                       -589.1763483901750078
  Basis Set: CC-PVDZ
    Blend: CC-PVDZ
  Basis Set: (CC-PVDZ AUX)
    Blend: CC-PVDZ-JKFIT
  Charge       = -1
  Multiplicity = 1
  Basis Set: CC-PVDZ
    Blend: CC-PVDZ
  Basis Set: (CC-PVDZ AUX)
    Blend: CC-PVDZ-JKFIT

    Orbital Energies [Eh]
    ---------------------

    Alpha Occupied:

       1A1  -101.163963     2A1   -30.806760     3A1    -9.076557
       1B2    -6.833353     1B1    -6.833353     4A1    -6.833349
       5A1    -1.272425     6A1    -0.422359     2B2    -0.381549
       2B1    -0.381549     7A1    -0.379258     3B1     0.027943
       3B2     0.027943     8A1     0.028041

    Alpha Virtual:

       9A1     0.859190     4B2     0.862430     4B1     0.862430
      10A1     0.933738    11A1     1.097640     5B2     1.097681
       5B1     1.097681     1A2     1.097698    12A1     1.097698
       6B1     1.516314     6B2     1.516314    13A1     1.532243
      14A1     1.980284     2A2     4.883958    15A1     4.884126
       7B1     4.885192     7B2     4.885192    16A1     4.885820

    Beta Occupied:

       1A1  -101.163963     2A1   -30.806760     3A1    -9.076557
       1B2    -6.833353     1B1    -6.833353     4A1    -6.833349
       5A1    -1.272425     6A1    -0.422359     2B2    -0.381549
       2B1    -0.381549     7A1    -0.379258     3B2     0.027943
       3B1     0.027943     8A1     0.028041

    Beta Virtual:

       9A1     0.859190     4B2     0.862430     4B1     0.862430
      10A1     0.933738    11A1     1.097640     5B2     1.097681
       5B1     1.097681     1A2     1.097698    12A1     1.097698
       6B1     1.516314     6B2     1.516314    13A1     1.532243
      14A1     1.980284     2A2     4.883958    15A1     4.884126
       7B1     4.885192     7B2     4.885192    16A1     4.885820

    Final Occupation by Irrep:
             A1    A2    B1    B2
    DOCC [     8,    0,    3,    3 ]
    SOCC [     0,    0,    0,    0 ]
    NA   [     8,    0,    3,    3 ]
    NB   [     8,    0,    3,    3 ]

  @DF-UKS Final Energy:  -589.17634885888958

   => Energetics <=

    Nuclear Repulsion Energy =             25.7786893350867778
    One-Electron Energy =                -877.7372025572340135
    Two-Electron Energy =                 295.8796815745345157
    DFT Exchange-Correlation Energy =     -33.0975172112769300
    Empirical Dispersion Energy =           0.0000000000000000
    VV10 Nonlocal Energy =                  0.0000000000000000
    Total Energy =                       -589.1763488588895825

  UHF NO Occupations:
  HONO-2 :    3 B1 2.0000000
  HONO-1 :    3 B2 2.0000000
  HONO-0 :    8 A1 2.0000000
  LUNO+0 :    9 A1 0.0000000
  LUNO+1 :   10 A1 0.0000000
  LUNO+2 :    4 B1 0.0000000
  LUNO+3 :   11 A1 0.0000000

Computation Completed

Properties will be evaluated at   0.000000,   0.000000,   0.000000 [a0]

Properties computed using the SCF density matrix

 Multipole Moments:

 ------------------------------------------------------------------------------------
     Multipole            Electronic (a.u.)      Nuclear  (a.u.)        Total (a.u.)
 ------------------------------------------------------------------------------------

 L = 1.  Multiply by 2.5417464519 to convert [e a0] to [Debye]
 Dipole X            :          0.0000000            0.0000000            0.0000000
 Dipole Y            :          0.0000000            0.0000000            0.0000000
 Dipole Z            :          1.2096175            1.1779094            2.3875269
 Magnitude           :                                                    2.3875269

 ------------------------------------------------------------------------------------

*** tstop() called on Joses-MacBook-Pro-2.local at Thu Jul 17 11:03:46 2025
Module time:
	user time   =       1.59 seconds =       0.03 minutes
	system time =       2.85 seconds =       0.05 minutes
	total time  =          1 seconds =       0.02 minutes
Total time:
	user time   =      76.10 seconds =       1.27 minutes
	system time =      97.61 seconds =       1.63 minutes
	total time  =         17 seconds =       0.28 minutes

*** tstart() called on Joses-MacBook-Pro-2.local
*** at Thu Jul 17 11:03:46 2025

         ------------------------------------------------------------
                                   SCF GRAD
                          Rob Parrish, Justin Turney,
                       Andy Simmonett, and Alex Sokolov
         ------------------------------------------------------------

  ==> Geometry <==

    Molecular point group: c2v
    Full point group: C_inf_v

    Geometry (in Angstrom), charge = -1, multiplicity = 1:

       Center              X                  Y                   Z               Mass
    ------------   -----------------  -----------------  -----------------  -----------------
         NE           0.000000000000     0.000000000000     2.220310254603    19.992440176200
         CL           0.000000000000     0.000000000000    -1.269398808746    34.968852682000

  Nuclear repulsion =   25.778689335086778

  ==> Basis Set <==

  Basis Set: CC-PVDZ
    Blend: CC-PVDZ
    Number of shells: 14
    Number of basis functions: 32
    Number of Cartesian functions: 34
    Spherical Harmonics?: true
    Max angular momentum: 2

  ==> DFJKGrad: Density-Fitted SCF Gradients <==

    Gradient:                    1
    J tasked:                  Yes
    K tasked:                  Yes
    wK tasked:                  No
    OpenMP threads:              1
    Integrals threads:           1
    Memory [MiB]:              375
    Schwarz Cutoff:          1E-12
    Fitting Condition:       1E-10

   => Auxiliary Basis Set <=

  Basis Set: (CC-PVDZ AUX)
    Blend: CC-PVDZ-JKFIT
    Number of shells: 60
    Number of basis functions: 182
    Number of Cartesian functions: 211
    Spherical Harmonics?: true
    Max angular momentum: 3

  ==> DFT Potential <==

   => LibXC <=

    Version 6.2.2
    S. Lehtola, C. Steigemann, M. J.T. Oliveira, and M. A.L. Marques.,  SoftwareX 7, 1â€“5 (2018) (10.1016/j.softx.2017.11.002)

   => Composite Functional: B3LYP <=

    B3LYP Hyb-GGA Exchange-Correlation Functional

    P. J. Stephens, F. J. Devlin, C. F. Chabalowski, and M. J. Frisch.,  J. Phys. Chem. 98, 11623 (1994) (10.1021/j100096a001)

    Deriv               =              1
    GGA                 =           TRUE
    Meta                =          FALSE

    Exchange Hybrid     =           TRUE
    MP2 Hybrid          =          FALSE

   => Exchange Functionals <=

    0.0800   Slater exchange
    0.7200         Becke 88

   => Exact (HF) Exchange <=

    0.2000               HF

   => Correlation Functionals <=

    0.1900   Vosko, Wilk & Nusair (VWN5_RPA)
    0.8100   Lee, Yang & Parr

   => LibXC Density Thresholds  <==

    XC_HYB_GGA_XC_B3LYP:  1.00E-15

   => Molecular Quadrature <=

    Radial Scheme          =       TREUTLER
    Pruning Scheme         =           NONE
    Nuclear Scheme         =       TREUTLER

    Blocking Scheme        =         OCTREE
    BS radius alpha        =              1
    Pruning alpha          =              1
    Radial Points          =             75
    Spherical Points       =            302
    Total Points           =          42034
    Total Blocks           =            379
    Max Points             =            256
    Max Functions          =             32
    Weights Tolerance      =       1.00E-15

  -Total Gradient:
     Atom            X                  Y                   Z
    ------   -----------------  -----------------  -----------------
       1        0.000000000000     0.000000000000    -0.000000744659
       2        0.000000000000     0.000000000000     0.000003849896

*** tstop() called on Joses-MacBook-Pro-2.local at Thu Jul 17 11:03:46 2025
Module time:
	user time   =       0.81 seconds =       0.01 minutes
	system time =       1.61 seconds =       0.03 minutes
	total time  =          0 seconds =       0.00 minutes
Total time:
	user time   =      76.91 seconds =       1.28 minutes
	system time =      99.22 seconds =       1.65 minutes
	total time  =         17 seconds =       0.28 minutes

    			-----------------------------------------

    			 OPTKING 3.0: for geometry optimizations

    			     By R.A. King, Bethel University

    			        with contributions from

    			    A.V. Copan, J. Cayton, A. Heide

    			-----------------------------------------

	                            ===> Fragment 1 <==

	 Z (Atomic Numbers)          Masses                          Geom
	      10.000000            19.992440          0.00000000  0.00000000  4.19577829
	      17.000000            34.968853          0.00000000  0.00000000 -2.39881609

	 - Coordinate -           - BOHR/RAD -       - ANG/DEG -
	 R(1,2)           =         6.594594           3.489709

	        --- Internal Coordinate Step in ANG or DEG, aJ/ANG or AJ/DEG ---
	-------------------------------------------------------------------------------
	           Coordinate      Previous         Force          Change          New
	           ----------      --------        ------          ------        ------
	               R(1,2)       3.48971        0.00002        0.00086       3.49057
	-------------------------------------------------------------------------------

	                                 ==> Convergence Check <==

	Measures of convergence in internal coordinates in au.

	Criteria marked as inactive (o), active & met (*), and active & unmet ( ).

	----------------------------------------------------------------------------------------------
	   Step    Total Energy     Delta E     Max Force     RMS Force      Max Disp      RMS Disp
	----------------------------------------------------------------------------------------------
	  Convergence Criteria     1.00e-06 *    3.00e-04 *             o    1.20e-03 *             o
	----------------------------------------------------------------------------------------------
	    19    -589.17634886   -4.69e-07 *    2.30e-06 *    2.30e-06 o    1.63e-03      1.63e-03 o  ~
	----------------------------------------------------------------------------------------------

Next Geometry in Ang
	Fragment 1 (Ang)

	   Ne   0.0000000000   0.0000000000   2.2207422832
	   Cl   0.0000000000   0.0000000000  -1.2698308374

    Final optimized geometry and variables:
    Molecular point group: c2v
    Full point group: C_inf_v

    Geometry (in Angstrom), charge = -1, multiplicity = 1:

    NE           0.000000000000     0.000000000000     2.220310254603
    CL           0.000000000000     0.000000000000    -1.269398808746

    Psi4 stopped on: Thursday, 17 July 2025 11:03AM
    Psi4 wall time for execution: 0:00:17.41

*** Psi4 exiting successfully. Buy a developer a beer!
