                               Psi4 1.9.1 release

  ==> Input File <==

--------------------------------------------------------------------------
molecule {
-1 1
He   0.00000        0.60000        0.00000
Li   0.00000       -0.60000        0.00000
}

set {
basis              cc-pvdz
reference          uks
maxiter            500
geom_maxiter       500
DAMPING_PERCENTAGE 1
guess              SAP
}

optimize('b3lyp')
--------------------------------------------------------------------------

    Molecular point group: c2v
  Charge       = -1
  Multiplicity = 1
  Basis Set: CC-PVDZ
    Blend: CC-PVDZ
  Basis Set: (CC-PVDZ AUX)
    Blend: DEF2-UNIVERSAL-JKFIT
  @DF-UKS Final Energy:   -10.34110120899092
    Total Energy =                        -10.3411012089909224
 Dipole X            :          0.0000000            0.0000000            0.0000000
 Dipole Y            :          0.0000000            0.0000000            0.0000000
 Dipole Z            :          1.3193979            0.4165875            1.7359854
 Magnitude           :                                                    1.7359854
    Molecular point group: c2v
  Basis Set: CC-PVDZ
    Blend: CC-PVDZ
  Basis Set: (CC-PVDZ AUX)
    Blend: DEF2-UNIVERSAL-JKFIT
  Basis Set: CC-PVDZ
    Blend: CC-PVDZ
  Basis Set: (CC-PVDZ AUX)
    Blend: DEF2-UNIVERSAL-JKFIT
  @DF-UKS Final Energy:   -10.37110510399314
    Total Energy =                        -10.3711051039931466
  Basis Set: CC-PVDZ
    Blend: CC-PVDZ
  Basis Set: (CC-PVDZ AUX)
    Blend: DEF2-UNIVERSAL-JKFIT
  Basis Set: CC-PVDZ
    Blend: CC-PVDZ
  @DF-UKS Final Energy:   -10.37842986749694
    Total Energy =                        -10.3784298674969353
  @DF-UKS Final Energy:   -10.38456293351941
    Total Energy =                        -10.3845629335194083
  @DF-UKS Final Energy:   -10.38905728847546
    Total Energy =                        -10.3890572884754562
  @DF-UKS Final Energy:   -10.39464297942883
    Total Energy =                        -10.3946429794288342
  @DF-UKS Final Energy:   -10.39595526293582
    Total Energy =                        -10.3959552629358214
  @DF-UKS Final Energy:   -10.40258284710622
    Total Energy =                        -10.4025828471062187
  @DF-UKS Final Energy:   -10.40349759995911
    Total Energy =                        -10.4034975999591133
  @DF-UKS Final Energy:   -10.40699233037851
    Total Energy =                        -10.4069923303785146
  @DF-UKS Final Energy:   -10.40739408378768
    Total Energy =                        -10.4073940837876791
  @DF-UKS Final Energy:   -10.40925981823843
    Total Energy =                        -10.4092598182384251
  @DF-UKS Final Energy:   -10.40941324905950
    Total Energy =                        -10.4094132490594955
  @DF-UKS Final Energy:   -10.41042697412753
    Total Energy =                        -10.4104269741275282
  @DF-UKS Final Energy:   -10.41048234690727
    Total Energy =                        -10.4104823469072745
  @DF-UKS Final Energy:   -10.41102548651510
    Total Energy =                        -10.4110254865150953
  @DF-UKS Final Energy:   -10.41104444714539
    Total Energy =                        -10.4110444471453931
  @DF-UKS Final Energy:   -10.41133343000006
    Total Energy =                        -10.4113334300000595
  @DF-UKS Final Energy:   -10.41133900200887
    Total Energy =                        -10.4113390020088659
  @DF-UKS Final Energy:   -10.41147183904212
    Total Energy =                        -10.4114718390421164
  @DF-UKS Final Energy:   -10.41147333588443
    Total Energy =                        -10.4114733358844251
  @DF-UKS Final Energy:   -10.41147480564607
    Total Energy =                        -10.4114748056460744
  @DF-UKS Final Energy:   -10.41147624907991
    Total Energy =                        -10.4114762490799126
  Basis Set: (CC-PVDZ AUX)
    Blend: DEF2-UNIVERSAL-JKFIT
  Basis Set: CC-PVDZ
    Blend: CC-PVDZ
  Basis Set: (CC-PVDZ AUX)
    Blend: DEF2-UNIVERSAL-JKFIT
  @DF-UKS Final Energy:   -10.41153519996860
    Total Energy =                        -10.4115351999686023
  Basis Set: CC-PVDZ
    Blend: CC-PVDZ
  Basis Set: (CC-PVDZ AUX)
    Blend: DEF2-UNIVERSAL-JKFIT
  Charge       = -1
  Multiplicity = 1
  Basis Set: CC-PVDZ
    Blend: CC-PVDZ
  Basis Set: (CC-PVDZ AUX)
    Blend: DEF2-UNIVERSAL-JKFIT

    Orbital Energies [Eh]
    ---------------------

    Alpha Occupied:

       1A1    -1.805986     2A1    -0.554669     3A1     0.045033

    Alpha Virtual:

       1B2     0.112763     1B1     0.112763     4A1     0.113951
       2B2     0.235072     2B1     0.235072     5A1     0.236106
       6A1     0.237841     7A1     0.402570     1A2     0.402575
       8A1     0.402575     3B2     0.402576     3B1     0.402576
       9A1     1.226690     4B2     2.284535     4B1     2.284535
      10A1     2.286014

    Beta Occupied:

       1A1    -1.805986     2A1    -0.554669     3A1     0.045033

    Beta Virtual:

       1B2     0.112763     1B1     0.112763     4A1     0.113951
       2B2     0.235072     2B1     0.235072     5A1     0.236106
       6A1     0.237841     7A1     0.402570     1A2     0.402575
       8A1     0.402575     3B2     0.402576     3B1     0.402576
       9A1     1.226690     4B2     2.284535     4B1     2.284535
      10A1     2.286014

    Final Occupation by Irrep:
             A1    A2    B1    B2
    DOCC [     3,    0,    0,    0 ]
    SOCC [     0,    0,    0,    0 ]
    NA   [     3,    0,    0,    0 ]
    NB   [     3,    0,    0,    0 ]

  @DF-UKS Final Energy:   -10.41153550924950

   => Energetics <=

    Nuclear Repulsion Energy =              0.5802234515677105
    One-Electron Energy =                 -15.5758995538704479
    Two-Electron Energy =                   7.0365140351572384
    DFT Exchange-Correlation Energy =      -2.4523734421040007
    Empirical Dispersion Energy =           0.0000000000000000
    VV10 Nonlocal Energy =                  0.0000000000000000
    Total Energy =                        -10.4115355092495001

  UHF NO Occupations:
  HONO-2 :    1 A1 2.0000000
  HONO-1 :    2 A1 2.0000000
  HONO-0 :    3 A1 2.0000000
  LUNO+0 :    4 A1 0.0000000
  LUNO+1 :    5 A1 0.0000000
  LUNO+2 :    6 A1 0.0000000
  LUNO+3 :    7 A1 0.0000000

Computation Completed

Properties will be evaluated at   0.000000,   0.000000,   0.000000 [a0]

Properties computed using the SCF density matrix

 Multipole Moments:

 ------------------------------------------------------------------------------------
     Multipole            Electronic (a.u.)      Nuclear  (a.u.)        Total (a.u.)
 ------------------------------------------------------------------------------------

 L = 1.  Multiply by 2.5417464519 to convert [e a0] to [Debye]
 Dipole X            :          0.0000000            0.0000000            0.0000000
 Dipole Y            :          0.0000000            0.0000000            0.0000000
 Dipole Z            :          1.9041025            1.8996872            3.8037897
 Magnitude           :                                                    3.8037897

 ------------------------------------------------------------------------------------

*** tstop() called on Joses-MacBook-Pro-2.local at Thu Jul 17 09:17:23 2025
Module time:
	user time   =       0.56 seconds =       0.01 minutes
	system time =       2.91 seconds =       0.05 minutes
	total time  =          0 seconds =       0.00 minutes
Total time:
	user time   =      29.02 seconds =       0.48 minutes
	system time =     105.72 seconds =       1.76 minutes
	total time  =         13 seconds =       0.22 minutes

*** tstart() called on Joses-MacBook-Pro-2.local
*** at Thu Jul 17 09:17:23 2025

         ------------------------------------------------------------
                                   SCF GRAD
                          Rob Parrish, Justin Turney,
                       Andy Simmonett, and Alex Sokolov
         ------------------------------------------------------------

  ==> Geometry <==

    Molecular point group: c2v
    Full point group: C_inf_v

    Geometry (in Angstrom), charge = -1, multiplicity = 1:

       Center              X                  Y                   Z               Mass
    ------------   -----------------  -----------------  -----------------  -----------------
         HE           0.000000000000     0.000000000000     3.484337514575     4.002603254130
         LI           0.000000000000     0.000000000000    -1.987801288918     7.016003436600

  Nuclear repulsion =    0.580223451567710

  ==> Basis Set <==

  Basis Set: CC-PVDZ
    Blend: CC-PVDZ
    Number of shells: 9
    Number of basis functions: 19
    Number of Cartesian functions: 20
    Spherical Harmonics?: true
    Max angular momentum: 2

  ==> DFJKGrad: Density-Fitted SCF Gradients <==

    Gradient:                    1
    J tasked:                  Yes
    K tasked:                  Yes
    wK tasked:                  No
    OpenMP threads:              1
    Integrals threads:           1
    Memory [MiB]:              375
    Schwarz Cutoff:          1E-12
    Fitting Condition:       1E-10

   => Auxiliary Basis Set <=

  Basis Set: (CC-PVDZ AUX)
    Blend: DEF2-UNIVERSAL-JKFIT
    Number of shells: 26
    Number of basis functions: 74
    Number of Cartesian functions: 85
    Spherical Harmonics?: true
    Max angular momentum: 3

  ==> DFT Potential <==

   => LibXC <=

    Version 6.2.2
    S. Lehtola, C. Steigemann, M. J.T. Oliveira, and M. A.L. Marques.,  SoftwareX 7, 1â€“5 (2018) (10.1016/j.softx.2017.11.002)

   => Composite Functional: B3LYP <=

    B3LYP Hyb-GGA Exchange-Correlation Functional

    P. J. Stephens, F. J. Devlin, C. F. Chabalowski, and M. J. Frisch.,  J. Phys. Chem. 98, 11623 (1994) (10.1021/j100096a001)

    Deriv               =              1
    GGA                 =           TRUE
    Meta                =          FALSE

    Exchange Hybrid     =           TRUE
    MP2 Hybrid          =          FALSE

   => Exchange Functionals <=

    0.0800   Slater exchange
    0.7200         Becke 88

   => Exact (HF) Exchange <=

    0.2000               HF

   => Correlation Functionals <=

    0.1900   Vosko, Wilk & Nusair (VWN5_RPA)
    0.8100   Lee, Yang & Parr

   => LibXC Density Thresholds  <==

    XC_HYB_GGA_XC_B3LYP:  1.00E-15

   => Molecular Quadrature <=

    Radial Scheme          =       TREUTLER
    Pruning Scheme         =           NONE
    Nuclear Scheme         =       TREUTLER

    Blocking Scheme        =         OCTREE
    BS radius alpha        =              1
    Pruning alpha          =              1
    Radial Points          =             75
    Spherical Points       =            302
    Total Points           =          44434
    Total Blocks           =            441
    Max Points             =            254
    Max Functions          =             19
    Weights Tolerance      =       1.00E-15

  -Total Gradient:
     Atom            X                  Y                   Z
    ------   -----------------  -----------------  -----------------
       1        0.000000000000    -0.000000000000    -0.000083888689
       2        0.000000000000    -0.000000000000     0.000060433735

*** tstop() called on Joses-MacBook-Pro-2.local at Thu Jul 17 09:17:23 2025
Module time:
	user time   =       0.29 seconds =       0.00 minutes
	system time =       0.73 seconds =       0.01 minutes
	total time  =          0 seconds =       0.00 minutes
Total time:
	user time   =      29.32 seconds =       0.49 minutes
	system time =     106.46 seconds =       1.77 minutes
	total time  =         13 seconds =       0.22 minutes

    			-----------------------------------------

    			 OPTKING 3.0: for geometry optimizations

    			     By R.A. King, Bethel University

    			        with contributions from

    			    A.V. Copan, J. Cayton, A. Heide

    			-----------------------------------------

	                            ===> Fragment 1 <==

	 Z (Atomic Numbers)          Masses                          Geom
	       2.000000             4.002603          0.00000000  0.00000000  6.58444363
	       3.000000             7.016003          0.00000000  0.00000000 -3.75640003

	 - Coordinate -           - BOHR/RAD -       - ANG/DEG -
	 R(1,2)           =        10.340844           5.472139

	        --- Internal Coordinate Step in ANG or DEG, aJ/ANG or AJ/DEG ---
	-------------------------------------------------------------------------------
	           Coordinate      Previous         Force          Change          New
	           ----------      --------        ------          ------        ------
	               R(1,2)       5.47214        0.00059        0.00259       5.47472
	-------------------------------------------------------------------------------

	                                 ==> Convergence Check <==

	Measures of convergence in internal coordinates in au.

	Criteria marked as inactive (o), active & met (*), and active & unmet ( ).

	----------------------------------------------------------------------------------------------
	   Step    Total Energy     Delta E     Max Force     RMS Force      Max Disp      RMS Disp
	----------------------------------------------------------------------------------------------
	  Convergence Criteria     1.00e-06 *    3.00e-04 *             o    1.20e-03 *             o
	----------------------------------------------------------------------------------------------
	    25     -10.41153551   -3.09e-07 *    7.22e-05 *    7.22e-05 o    4.89e-03      4.89e-03 o  ~
	----------------------------------------------------------------------------------------------

Next Geometry in Ang
	Fragment 1 (Ang)

	   He   0.0000000000   0.0000000000   3.4856303108
	   Li   0.0000000000   0.0000000000  -1.9890940851

    Final optimized geometry and variables:
    Molecular point group: c2v
    Full point group: C_inf_v

    Geometry (in Angstrom), charge = -1, multiplicity = 1:

    HE           0.000000000000     0.000000000000     3.484337514575
    LI           0.000000000000     0.000000000000    -1.987801288918

    Psi4 stopped on: Thursday, 17 July 2025 09:17AM
    Psi4 wall time for execution: 0:00:14.46

*** Psi4 exiting successfully. Buy a developer a beer!
