                               Psi4 1.9.1 release

  ==> Input File <==

--------------------------------------------------------------------------
molecule {
-1 1
N   0.00000        0.60000        0.00000
Ar   0.00000       -0.60000        0.00000
}

set {
basis              cc-pvdz
reference          uks
maxiter            500
geom_maxiter       500
DAMPING_PERCENTAGE 1
guess              SAP
}

optimize('b3lyp')
--------------------------------------------------------------------------

    Molecular point group: c2v
  Charge       = -1
  Multiplicity = 1
  Basis Set: CC-PVDZ
    Blend: CC-PVDZ
  Basis Set: (CC-PVDZ AUX)
    Blend: CC-PVDZ-JKFIT
  @DF-UKS Final Energy:  -581.58020718694058
    Total Energy =                       -581.5802071869406973
 Dipole X            :          0.0000000            0.0000000            0.0000000
 Dipole Y            :          0.0000000            0.0000000            0.0000000
 Dipole Z            :         -3.3435196            1.1631923           -2.1803273
 Magnitude           :                                                    2.1803273
    Molecular point group: c2v
  Basis Set: CC-PVDZ
    Blend: CC-PVDZ
  Basis Set: (CC-PVDZ AUX)
    Blend: CC-PVDZ-JKFIT
  Basis Set: CC-PVDZ
    Blend: CC-PVDZ
  Basis Set: (CC-PVDZ AUX)
    Blend: CC-PVDZ-JKFIT
  @DF-UKS Final Energy:  -581.75019519004002
    Total Energy =                       -581.7501951900400172
  Basis Set: CC-PVDZ
    Blend: CC-PVDZ
  Basis Set: (CC-PVDZ AUX)
    Blend: CC-PVDZ-JKFIT
  Basis Set: CC-PVDZ
    Blend: CC-PVDZ
  @DF-UKS Final Energy:  -581.84803979049320
    Total Energy =                       -581.8480397904932033
  @DF-UKS Final Energy:  -581.89387790866101
    Total Energy =                       -581.8938779086610111
  @DF-UKS Final Energy:  -581.93044792108833
    Total Energy =                       -581.9304479210884438
  @DF-UKS Final Energy:  -581.95772118348293
    Total Energy =                       -581.9577211834829313
  @DF-UKS Final Energy:  -581.97767195888753
    Total Energy =                       -581.9776719588874130
  @DF-UKS Final Energy:  -581.98701156734330
    Total Energy =                       -581.9870115673433020
  @DF-UKS Final Energy:  -581.99112374488425
    Total Energy =                       -581.9911237448842485
  @DF-UKS Final Energy:  -581.99267946376801
    Total Energy =                       -581.9926794637680132
  @DF-UKS Final Energy:  -581.99317314508050
    Total Energy =                       -581.9931731450806183
  @DF-UKS Final Energy:  -581.99327179989405
    Total Energy =                       -581.9932717998941598
  @DF-UKS Final Energy:  -581.99330125699225
    Total Energy =                       -581.9933012569924813
  Basis Set: (CC-PVDZ AUX)
    Blend: CC-PVDZ-JKFIT
  Basis Set: CC-PVDZ
    Blend: CC-PVDZ
  Basis Set: (CC-PVDZ AUX)
    Blend: CC-PVDZ-JKFIT
  @DF-UKS Final Energy:  -581.99330542760117
    Total Energy =                       -581.9933054276010580
  Basis Set: CC-PVDZ
    Blend: CC-PVDZ
  Basis Set: (CC-PVDZ AUX)
    Blend: CC-PVDZ-JKFIT
  Charge       = -1
  Multiplicity = 1
  Basis Set: CC-PVDZ
    Blend: CC-PVDZ
  Basis Set: (CC-PVDZ AUX)
    Blend: CC-PVDZ-JKFIT

    Orbital Energies [Eh]
    ---------------------

    Alpha Occupied:

       1A1  -114.918828     2A1   -13.921250     3A1   -10.954656
       1B2    -8.504637     1B1    -8.504637     4A1    -8.504324
       5A1    -0.783421     6A1    -0.269638     2B2    -0.242887
       2B1    -0.242887     7A1    -0.220303     3B1     0.187358
       3B2     0.187358

    Alpha Virtual:

       8A1     0.252659     4B2     0.757323     4B1     0.757323
       9A1     0.790616    10A1     0.895706    11A1     0.987907
       5B1     1.010664     5B2     1.010664     1A2     1.015385
      12A1     1.015389     6B2     1.130970     6B1     1.130970
      13A1     1.168466    14A1     1.428351     7B1     2.192204
       7B2     2.192204    15A1     2.222638     2A2     2.231108
      16A1     2.231147

    Beta Occupied:

       1A1  -114.918828     2A1   -13.921250     3A1   -10.954656
       1B2    -8.504637     1B1    -8.504637     4A1    -8.504324
       5A1    -0.783421     6A1    -0.269638     2B2    -0.242887
       2B1    -0.242887     7A1    -0.220303     3B1     0.187358
       3B2     0.187358

    Beta Virtual:

       8A1     0.252659     4B2     0.757323     4B1     0.757323
       9A1     0.790616    10A1     0.895706    11A1     0.987907
       5B1     1.010664     5B2     1.010664     1A2     1.015385
      12A1     1.015389     6B2     1.130970     6B1     1.130970
      13A1     1.168466    14A1     1.428351     7B1     2.192204
       7B2     2.192204    15A1     2.222638     2A2     2.231108
      16A1     2.231147

    Final Occupation by Irrep:
             A1    A2    B1    B2
    DOCC [     7,    0,    3,    3 ]
    SOCC [     0,    0,    0,    0 ]
    NA   [     7,    0,    3,    3 ]
    NB   [     7,    0,    3,    3 ]

  @DF-UKS Final Energy:  -581.99330610189281

   => Energetics <=

    Nuclear Repulsion Energy =             24.8270413593662127
    One-Electron Energy =                -858.4546535245547147
    Two-Electron Energy =                 282.2557555869138923
    DFT Exchange-Correlation Energy =     -30.6214495236183097
    Empirical Dispersion Energy =           0.0000000000000000
    VV10 Nonlocal Energy =                  0.0000000000000000
    Total Energy =                       -581.9933061018928129

  UHF NO Occupations:
  HONO-2 :    6 A1 2.0000000
  HONO-1 :    3 B1 2.0000000
  HONO-0 :    7 A1 2.0000000
  LUNO+0 :    8 A1 0.0000000
  LUNO+1 :    9 A1 0.0000000
  LUNO+2 :   10 A1 0.0000000
  LUNO+3 :    4 B2 0.0000000

Computation Completed

Properties will be evaluated at   0.000000,   0.000000,   0.000000 [a0]

Properties computed using the SCF density matrix

 Multipole Moments:

 ------------------------------------------------------------------------------------
     Multipole            Electronic (a.u.)      Nuclear  (a.u.)        Total (a.u.)
 ------------------------------------------------------------------------------------

 L = 1.  Multiply by 2.5417464519 to convert [e a0] to [Debye]
 Dipole X            :          0.0000000            0.0000000            0.0000000
 Dipole Y            :          0.0000000            0.0000000            0.0000000
 Dipole Z            :         -6.2235432            2.6032566           -3.6202866
 Magnitude           :                                                    3.6202866

 ------------------------------------------------------------------------------------

*** tstop() called on Joses-MacBook-Pro-2.local at Thu Jul 17 10:37:38 2025
Module time:
	user time   =       2.85 seconds =       0.05 minutes
	system time =       3.12 seconds =       0.05 minutes
	total time  =          0 seconds =       0.00 minutes
Total time:
	user time   =      76.14 seconds =       1.27 minutes
	system time =      75.67 seconds =       1.26 minutes
	total time  =         16 seconds =       0.27 minutes

*** tstart() called on Joses-MacBook-Pro-2.local
*** at Thu Jul 17 10:37:38 2025

         ------------------------------------------------------------
                                   SCF GRAD
                          Rob Parrish, Justin Turney,
                       Andy Simmonett, and Alex Sokolov
         ------------------------------------------------------------

  ==> Geometry <==

    Molecular point group: c2v
    Full point group: C_inf_v

    Geometry (in Angstrom), charge = -1, multiplicity = 1:

       Center              X                  Y                   Z               Mass
    ------------   -----------------  -----------------  -----------------  -----------------
         N            0.000000000000     0.000000000000     1.988759325281    14.003074004430
         AR           0.000000000000     0.000000000000    -0.696873955757    39.962383123700

  Nuclear repulsion =   24.827041359366213

  ==> Basis Set <==

  Basis Set: CC-PVDZ
    Blend: CC-PVDZ
    Number of shells: 14
    Number of basis functions: 32
    Number of Cartesian functions: 34
    Spherical Harmonics?: true
    Max angular momentum: 2

  ==> DFJKGrad: Density-Fitted SCF Gradients <==

    Gradient:                    1
    J tasked:                  Yes
    K tasked:                  Yes
    wK tasked:                  No
    OpenMP threads:              1
    Integrals threads:           1
    Memory [MiB]:              375
    Schwarz Cutoff:          1E-12
    Fitting Condition:       1E-10

   => Auxiliary Basis Set <=

  Basis Set: (CC-PVDZ AUX)
    Blend: CC-PVDZ-JKFIT
    Number of shells: 60
    Number of basis functions: 182
    Number of Cartesian functions: 211
    Spherical Harmonics?: true
    Max angular momentum: 3

  ==> DFT Potential <==

   => LibXC <=

    Version 6.2.2
    S. Lehtola, C. Steigemann, M. J.T. Oliveira, and M. A.L. Marques.,  SoftwareX 7, 1â€“5 (2018) (10.1016/j.softx.2017.11.002)

   => Composite Functional: B3LYP <=

    B3LYP Hyb-GGA Exchange-Correlation Functional

    P. J. Stephens, F. J. Devlin, C. F. Chabalowski, and M. J. Frisch.,  J. Phys. Chem. 98, 11623 (1994) (10.1021/j100096a001)

    Deriv               =              1
    GGA                 =           TRUE
    Meta                =          FALSE

    Exchange Hybrid     =           TRUE
    MP2 Hybrid          =          FALSE

   => Exchange Functionals <=

    0.0800   Slater exchange
    0.7200         Becke 88

   => Exact (HF) Exchange <=

    0.2000               HF

   => Correlation Functionals <=

    0.1900   Vosko, Wilk & Nusair (VWN5_RPA)
    0.8100   Lee, Yang & Parr

   => LibXC Density Thresholds  <==

    XC_HYB_GGA_XC_B3LYP:  1.00E-15

   => Molecular Quadrature <=

    Radial Scheme          =       TREUTLER
    Pruning Scheme         =           NONE
    Nuclear Scheme         =       TREUTLER

    Blocking Scheme        =         OCTREE
    BS radius alpha        =              1
    Pruning alpha          =              1
    Radial Points          =             75
    Spherical Points       =            302
    Total Points           =          40877
    Total Blocks           =            366
    Max Points             =            255
    Max Functions          =             32
    Weights Tolerance      =       1.00E-15

  -Total Gradient:
     Atom            X                  Y                   Z
    ------   -----------------  -----------------  -----------------
       1        0.000000000000     0.000000000000    -0.000045951624
       2        0.000000000000    -0.000000000000     0.000028213821

*** tstop() called on Joses-MacBook-Pro-2.local at Thu Jul 17 10:37:39 2025
Module time:
	user time   =       1.00 seconds =       0.02 minutes
	system time =       1.49 seconds =       0.02 minutes
	total time  =          1 seconds =       0.02 minutes
Total time:
	user time   =      77.15 seconds =       1.29 minutes
	system time =      77.16 seconds =       1.29 minutes
	total time  =         17 seconds =       0.28 minutes

    			-----------------------------------------

    			 OPTKING 3.0: for geometry optimizations

    			     By R.A. King, Bethel University

    			        with contributions from

    			    A.V. Copan, J. Cayton, A. Heide

    			-----------------------------------------

	                            ===> Fragment 1 <==

	 Z (Atomic Numbers)          Masses                          Geom
	       7.000000            14.003074          0.00000000  0.00000000  3.75821045
	      18.000000            39.962383          0.00000000  0.00000000 -1.31690092

	 - Coordinate -           - BOHR/RAD -       - ANG/DEG -
	 R(1,2)           =         5.075111           2.685633

	        --- Internal Coordinate Step in ANG or DEG, aJ/ANG or AJ/DEG ---
	-------------------------------------------------------------------------------
	           Coordinate      Previous         Force          Change          New
	           ----------      --------        ------          ------        ------
	               R(1,2)       2.68563        0.00031        0.00243       2.68807
	-------------------------------------------------------------------------------

	                                 ==> Convergence Check <==

	Measures of convergence in internal coordinates in au.

	Criteria marked as inactive (o), active & met (*), and active & unmet ( ).

	----------------------------------------------------------------------------------------------
	   Step    Total Energy     Delta E     Max Force     RMS Force      Max Disp      RMS Disp
	----------------------------------------------------------------------------------------------
	  Convergence Criteria     1.00e-06 *    3.00e-04 *             o    1.20e-03 *             o
	----------------------------------------------------------------------------------------------
	    15    -581.99330610   -6.74e-07 *    3.71e-05 *    3.71e-05 o    4.60e-03      4.60e-03 o  ~
	----------------------------------------------------------------------------------------------

Next Geometry in Ang
	Fragment 1 (Ang)

	    N   0.0000000000   0.0000000000   1.9899761653
	   Ar   0.0000000000   0.0000000000  -0.6980907957

    Final optimized geometry and variables:
    Molecular point group: c2v
    Full point group: C_inf_v

    Geometry (in Angstrom), charge = -1, multiplicity = 1:

    N            0.000000000000     0.000000000000     1.988759325281
    AR           0.000000000000     0.000000000000    -0.696873955757

    Psi4 stopped on: Thursday, 17 July 2025 10:37AM
    Psi4 wall time for execution: 0:00:16.94

*** Psi4 exiting successfully. Buy a developer a beer!
