                               Psi4 1.9.1 release

  ==> Input File <==

--------------------------------------------------------------------------
molecule {
-1 1
He   0.00000        0.60000        0.00000
Al   0.00000       -0.60000        0.00000
}

set {
basis              cc-pvdz
reference          uks
maxiter            500
geom_maxiter       500
DAMPING_PERCENTAGE 1
guess              SAP
}

optimize('b3lyp')
--------------------------------------------------------------------------

    Molecular point group: c2v
  Charge       = -1
  Multiplicity = 1
  Basis Set: CC-PVDZ
    Blend: CC-PVDZ
  Basis Set: (CC-PVDZ AUX)
    Blend: CC-PVDZ-JKFIT + DEF2-UNIVERSAL-JKFIT
  @DF-UKS Final Energy:  -245.08718608297170
    Total Energy =                       -245.0871860829716979
 Dipole X            :          0.0000000            0.0000000            0.0000000
 Dipole Y            :          0.0000000            0.0000000            0.0000000
 Dipole Z            :          1.2895208            0.1411971            1.4307179
 Magnitude           :                                                    1.4307179
    Molecular point group: c2v
  Basis Set: CC-PVDZ
    Blend: CC-PVDZ
  Basis Set: (CC-PVDZ AUX)
    Blend: CC-PVDZ-JKFIT + DEF2-UNIVERSAL-JKFIT
  Basis Set: CC-PVDZ
    Blend: CC-PVDZ
  Basis Set: (CC-PVDZ AUX)
    Blend: CC-PVDZ-JKFIT + DEF2-UNIVERSAL-JKFIT
  @DF-UKS Final Energy:  -245.18714491136075
    Total Energy =                       -245.1871449113607468
  Basis Set: CC-PVDZ
    Blend: CC-PVDZ
  Basis Set: (CC-PVDZ AUX)
    Blend: CC-PVDZ-JKFIT + DEF2-UNIVERSAL-JKFIT
  Basis Set: CC-PVDZ
    Blend: CC-PVDZ
  @DF-UKS Final Energy:  -245.20974601423617
    Total Energy =                       -245.2097460142361740
  @DF-UKS Final Energy:  -245.23070991215630
    Total Energy =                       -245.2307099121563283
  @DF-UKS Final Energy:  -245.24342920359371
    Total Energy =                       -245.2434292035937062
  @DF-UKS Final Energy:  -245.25159286364001
    Total Energy =                       -245.2515928636400417
  @DF-UKS Final Energy:  -245.25614863811592
    Total Energy =                       -245.2561486381159170
  @DF-UKS Final Energy:  -245.25850342063845
    Total Energy =                       -245.2585034206384194
  @DF-UKS Final Energy:  -245.25967643781081
    Total Energy =                       -245.2596764378108105
  @DF-UKS Final Energy:  -245.26024351457841
    Total Energy =                       -245.2602435145784057
  @DF-UKS Final Energy:  -245.26050345138609
    Total Energy =                       -245.2605034513860858
  @DF-UKS Final Energy:  -245.26061270685375
    Total Energy =                       -245.2606127068537489
  @DF-UKS Final Energy:  -245.26065260055714
    Total Energy =                       -245.2606526005571368
  @DF-UKS Final Energy:  -245.26066379710181
    Total Energy =                       -245.2606637971018131
  Basis Set: (CC-PVDZ AUX)
    Blend: CC-PVDZ-JKFIT + DEF2-UNIVERSAL-JKFIT
  Basis Set: CC-PVDZ
    Blend: CC-PVDZ
  Basis Set: (CC-PVDZ AUX)
    Blend: CC-PVDZ-JKFIT + DEF2-UNIVERSAL-JKFIT
  @DF-UKS Final Energy:  -245.26066500669518
    Total Energy =                       -245.2606650066951772
  Basis Set: CC-PVDZ
    Blend: CC-PVDZ
  Basis Set: (CC-PVDZ AUX)
    Blend: CC-PVDZ-JKFIT + DEF2-UNIVERSAL-JKFIT
  Charge       = -1
  Multiplicity = 1
  Basis Set: CC-PVDZ
    Blend: CC-PVDZ
  Basis Set: (CC-PVDZ AUX)
    Blend: CC-PVDZ-JKFIT + DEF2-UNIVERSAL-JKFIT

    Orbital Energies [Eh]
    ---------------------

    Alpha Occupied:

       1A1   -55.826335     2A1    -3.905438     3A1    -2.460770
       1B2    -2.460759     1B1    -2.451491     4A1    -0.528366
       5A1    -0.078276     2B1     0.105896

    Alpha Virtual:

       2B2     0.131337     6A1     0.133308     7A1     0.365629
       3B2     0.424445     8A1     0.429176     3B1     0.437561
       9A1     0.488916     4B2     0.489304     1A2     0.500275
       4B1     0.500275    10A1     0.509732    11A1     1.275607
       5B2     2.310931     5B1     2.311306    12A1     2.318225

    Beta Occupied:

       1A1   -55.826335     2A1    -3.905438     3A1    -2.460770
       1B2    -2.460759     1B1    -2.451491     4A1    -0.528366
       5A1    -0.078276     2B1     0.105896

    Beta Virtual:

       2B2     0.131337     6A1     0.133308     7A1     0.365629
       3B2     0.424445     8A1     0.429176     3B1     0.437561
       9A1     0.488916     4B2     0.489304     1A2     0.500275
       4B1     0.500275    10A1     0.509732    11A1     1.275607
       5B2     2.310931     5B1     2.311306    12A1     2.318225

    Final Occupation by Irrep:
             A1    A2    B1    B2
    DOCC [     5,    0,    2,    1 ]
    SOCC [     0,    0,    0,    0 ]
    NA   [     5,    0,    2,    1 ]
    NB   [     5,    0,    2,    1 ]

  @DF-UKS Final Energy:  -245.26066525710104

   => Energetics <=

    Nuclear Repulsion Energy =              3.6653691078530262
    One-Electron Energy =                -351.2269146683098597
    Two-Electron Energy =                 118.2831406161754870
    DFT Exchange-Correlation Energy =     -15.9822603128197276
    Empirical Dispersion Energy =           0.0000000000000000
    VV10 Nonlocal Energy =                  0.0000000000000000
    Total Energy =                       -245.2606652571010386

  UHF NO Occupations:
  HONO-2 :    4 A1 2.0000000
  HONO-1 :    2 B1 2.0000000
  HONO-0 :    5 A1 2.0000000
  LUNO+0 :    6 A1 0.0000000
  LUNO+1 :    2 B2 0.0000000
  LUNO+2 :    7 A1 0.0000000
  LUNO+3 :    8 A1 0.0000000

Computation Completed

Properties will be evaluated at   0.000000,   0.000000,   0.000000 [a0]

Properties computed using the SCF density matrix

 Multipole Moments:

 ------------------------------------------------------------------------------------
     Multipole            Electronic (a.u.)      Nuclear  (a.u.)        Total (a.u.)
 ------------------------------------------------------------------------------------

 L = 1.  Multiply by 2.5417464519 to convert [e a0] to [Debye]
 Dipole X            :          0.0000000            0.0000000            0.0000000
 Dipole Y            :          0.0000000            0.0000000            0.0000000
 Dipole Z            :          0.4907775            0.4416734            0.9324509
 Magnitude           :                                                    0.9324509

 ------------------------------------------------------------------------------------

*** tstop() called on Joses-MacBook-Pro-2.local at Thu Jul 17 09:22:31 2025
Module time:
	user time   =       1.93 seconds =       0.03 minutes
	system time =       3.43 seconds =       0.06 minutes
	total time  =          0 seconds =       0.00 minutes
Total time:
	user time   =      63.63 seconds =       1.06 minutes
	system time =      71.95 seconds =       1.20 minutes
	total time  =         13 seconds =       0.22 minutes

*** tstart() called on Joses-MacBook-Pro-2.local
*** at Thu Jul 17 09:22:31 2025

         ------------------------------------------------------------
                                   SCF GRAD
                          Rob Parrish, Justin Turney,
                       Andy Simmonett, and Alex Sokolov
         ------------------------------------------------------------

  ==> Geometry <==

    Molecular point group: c2v
    Full point group: C_inf_v

    Geometry (in Angstrom), charge = -1, multiplicity = 1:

       Center              X                  Y                   Z               Mass
    ------------   -----------------  -----------------  -----------------  -----------------
         HE           0.000000000000     0.000000000000     3.268767297297     4.002603254130
         AL           0.000000000000     0.000000000000    -0.484908546138    26.981538530000

  Nuclear repulsion =    3.665369107853026

  ==> Basis Set <==

  Basis Set: CC-PVDZ
    Blend: CC-PVDZ
    Number of shells: 11
    Number of basis functions: 23
    Number of Cartesian functions: 24
    Spherical Harmonics?: true
    Max angular momentum: 2

  ==> DFJKGrad: Density-Fitted SCF Gradients <==

    Gradient:                    1
    J tasked:                  Yes
    K tasked:                  Yes
    wK tasked:                  No
    OpenMP threads:              1
    Integrals threads:           1
    Memory [MiB]:              375
    Schwarz Cutoff:          1E-12
    Fitting Condition:       1E-10

   => Auxiliary Basis Set <=

  Basis Set: (CC-PVDZ AUX)
    Blend: CC-PVDZ-JKFIT + DEF2-UNIVERSAL-JKFIT
    Number of shells: 45
    Number of basis functions: 135
    Number of Cartesian functions: 155
    Spherical Harmonics?: true
    Max angular momentum: 3

  ==> DFT Potential <==

   => LibXC <=

    Version 6.2.2
    S. Lehtola, C. Steigemann, M. J.T. Oliveira, and M. A.L. Marques.,  SoftwareX 7, 1â€“5 (2018) (10.1016/j.softx.2017.11.002)

   => Composite Functional: B3LYP <=

    B3LYP Hyb-GGA Exchange-Correlation Functional

    P. J. Stephens, F. J. Devlin, C. F. Chabalowski, and M. J. Frisch.,  J. Phys. Chem. 98, 11623 (1994) (10.1021/j100096a001)

    Deriv               =              1
    GGA                 =           TRUE
    Meta                =          FALSE

    Exchange Hybrid     =           TRUE
    MP2 Hybrid          =          FALSE

   => Exchange Functionals <=

    0.0800   Slater exchange
    0.7200         Becke 88

   => Exact (HF) Exchange <=

    0.2000               HF

   => Correlation Functionals <=

    0.1900   Vosko, Wilk & Nusair (VWN5_RPA)
    0.8100   Lee, Yang & Parr

   => LibXC Density Thresholds  <==

    XC_HYB_GGA_XC_B3LYP:  1.00E-15

   => Molecular Quadrature <=

    Radial Scheme          =       TREUTLER
    Pruning Scheme         =           NONE
    Nuclear Scheme         =       TREUTLER

    Blocking Scheme        =         OCTREE
    BS radius alpha        =              1
    Pruning alpha          =              1
    Radial Points          =             75
    Spherical Points       =            302
    Total Points           =          43573
    Total Blocks           =            404
    Max Points             =            256
    Max Functions          =             23
    Weights Tolerance      =       1.00E-15

  -Total Gradient:
     Atom            X                  Y                   Z
    ------   -----------------  -----------------  -----------------
       1        0.000000000000     0.000000000000     0.000000333706
       2        0.000000000000     0.000000000000     0.000012253172

*** tstop() called on Joses-MacBook-Pro-2.local at Thu Jul 17 09:22:32 2025
Module time:
	user time   =       0.49 seconds =       0.01 minutes
	system time =       1.23 seconds =       0.02 minutes
	total time  =          1 seconds =       0.02 minutes
Total time:
	user time   =      64.12 seconds =       1.07 minutes
	system time =      73.20 seconds =       1.22 minutes
	total time  =         14 seconds =       0.23 minutes

    			-----------------------------------------

    			 OPTKING 3.0: for geometry optimizations

    			     By R.A. King, Bethel University

    			        with contributions from

    			    A.V. Copan, J. Cayton, A. Heide

    			-----------------------------------------

	                            ===> Fragment 1 <==

	 Z (Atomic Numbers)          Masses                          Geom
	       2.000000             4.002603          0.00000000  0.00000000  6.17707496
	      13.000000            26.981539          0.00000000  0.00000000 -0.91634435

	 - Coordinate -           - BOHR/RAD -       - ANG/DEG -
	 R(1,2)           =         7.093419           3.753676

	        --- Internal Coordinate Step in ANG or DEG, aJ/ANG or AJ/DEG ---
	-------------------------------------------------------------------------------
	           Coordinate      Previous         Force          Change          New
	           ----------      --------        ------          ------        ------
	               R(1,2)       3.75368        0.00005        0.00911       3.76279
	-------------------------------------------------------------------------------

	                                 ==> Convergence Check <==

	Measures of convergence in internal coordinates in au.

	Criteria marked as inactive (o), active & met (*), and active & unmet ( ).

	----------------------------------------------------------------------------------------------
	   Step    Total Energy     Delta E     Max Force     RMS Force      Max Disp      RMS Disp
	----------------------------------------------------------------------------------------------
	  Convergence Criteria     1.00e-06 *    3.00e-04 *             o    1.20e-03 *             o
	----------------------------------------------------------------------------------------------
	    16    -245.26066526   -2.50e-07 *    5.96e-06 *    5.96e-06 o    1.72e-02      1.72e-02 o  ~
	----------------------------------------------------------------------------------------------

Next Geometry in Ang
	Fragment 1 (Ang)

	   He   0.0000000000   0.0000000000   3.2733239707
	   Al   0.0000000000   0.0000000000  -0.4894652195

    Final optimized geometry and variables:
    Molecular point group: c2v
    Full point group: C_inf_v

    Geometry (in Angstrom), charge = -1, multiplicity = 1:

    HE           0.000000000000     0.000000000000     3.268767297297
    AL           0.000000000000     0.000000000000    -0.484908546138

    Psi4 stopped on: Thursday, 17 July 2025 09:22AM
    Psi4 wall time for execution: 0:00:14.13

*** Psi4 exiting successfully. Buy a developer a beer!
