                               Psi4 1.9.1 release

  ==> Input File <==

--------------------------------------------------------------------------
molecule {
-1 1
Al   0.00000        0.60000        0.00000
Si   0.00000       -0.60000        0.00000
}

set {
basis              cc-pvdz
reference          uks
maxiter            500
geom_maxiter       500
DAMPING_PERCENTAGE 1
guess              SAP
}

optimize('b3lyp')
--------------------------------------------------------------------------

    Molecular point group: c2v
  Charge       = -1
  Multiplicity = 1
  Basis Set: CC-PVDZ
    Blend: CC-PVDZ
  Basis Set: (CC-PVDZ AUX)
    Blend: CC-PVDZ-JKFIT
  @DF-UKS Final Energy:  -530.88289414139149
    Total Energy =                       -530.8828941413914890
 Dipole X            :          0.0000000            0.0000000            0.0000000
 Dipole Y            :          0.0000000            0.0000000            0.0000000
 Dipole Z            :          0.5107756           -0.5793738           -0.0685982
 Magnitude           :                                                    0.0685982
    Molecular point group: c2v
  Basis Set: CC-PVDZ
    Blend: CC-PVDZ
  Basis Set: (CC-PVDZ AUX)
    Blend: CC-PVDZ-JKFIT
  Basis Set: CC-PVDZ
    Blend: CC-PVDZ
  Basis Set: (CC-PVDZ AUX)
    Blend: CC-PVDZ-JKFIT
  @DF-UKS Final Energy:  -530.89760098440024
    Total Energy =                       -530.8976009844002419
  Basis Set: CC-PVDZ
    Blend: CC-PVDZ
  Basis Set: (CC-PVDZ AUX)
    Blend: CC-PVDZ-JKFIT
  Basis Set: CC-PVDZ
    Blend: CC-PVDZ
  @DF-UKS Final Energy:  -530.92599812561070
    Total Energy =                       -530.9259981256107039
  @DF-UKS Final Energy:  -531.02901979333183
    Total Energy =                       -531.0290197933318268
  @DF-UKS Final Energy:  -531.47495890774644
    Total Energy =                       -531.4749589077464407
  @DF-UKS Final Energy:  -531.69402755411556
    Total Energy =                       -531.6940275541155643
  @DF-UKS Final Energy:  -531.80486423171658
    Total Energy =                       -531.8048642317165786
  @DF-UKS Final Energy:  -531.84767548780871
    Total Energy =                       -531.8476754878087149
  @DF-UKS Final Energy:  -531.86277318475345
    Total Energy =                       -531.8627731847534506
  @DF-UKS Final Energy:  -531.86670178202030
    Total Energy =                       -531.8667017820203000
  @DF-UKS Final Energy:  -531.86723272943664
    Total Energy =                       -531.8672327294366369
  @DF-UKS Final Energy:  -531.86731397545543
    Total Energy =                       -531.8673139754554313
  @DF-UKS Final Energy:  -531.86732727178469
    Total Energy =                       -531.8673272717846885
  Basis Set: (CC-PVDZ AUX)
    Blend: CC-PVDZ-JKFIT
  Basis Set: CC-PVDZ
    Blend: CC-PVDZ
  Basis Set: (CC-PVDZ AUX)
    Blend: CC-PVDZ-JKFIT
  @DF-UKS Final Energy:  -531.86732982408307
    Total Energy =                       -531.8673298240830718
  Basis Set: CC-PVDZ
    Blend: CC-PVDZ
  Basis Set: (CC-PVDZ AUX)
    Blend: CC-PVDZ-JKFIT
  Charge       = -1
  Multiplicity = 1
  Basis Set: CC-PVDZ
    Blend: CC-PVDZ
  Basis Set: (CC-PVDZ AUX)
    Blend: CC-PVDZ-JKFIT

    Orbital Energies [Eh]
    ---------------------

    Alpha Occupied:

       1A1   -65.927160     2A1   -55.860801     3A1    -5.069859
       4A1    -3.942507     5A1    -3.432708     1B2    -3.425155
       1B1    -3.425155     6A1    -2.497960     2B1    -2.493140
       2B2    -2.493140     7A1    -0.247084     8A1    -0.091376
       3B2     0.027012     3B1     0.027012

    Alpha Virtual:

       9A1     0.054649     4B2     0.149902     4B1     0.149902
      10A1     0.218271    11A1     0.336490    12A1     0.384343
       5B1     0.386449     5B2     0.386449    13A1     0.452138
      14A1     0.456131     1A2     0.456131     6B2     0.459057
       6B1     0.459057     7B2     0.547805     7B1     0.547805
      15A1     0.596412    16A1     0.623936     2A2     0.623936
      17A1     0.739408     8B2     0.771401     8B1     0.771401
      18A1     1.021361

    Beta Occupied:

       1A1   -65.927160     2A1   -55.860801     3A1    -5.069859
       4A1    -3.942507     5A1    -3.432708     1B2    -3.425155
       1B1    -3.425155     6A1    -2.497960     2B1    -2.493140
       2B2    -2.493140     7A1    -0.247084     8A1    -0.091376
       3B2     0.027012     3B1     0.027012

    Beta Virtual:

       9A1     0.054649     4B2     0.149902     4B1     0.149902
      10A1     0.218271    11A1     0.336490    12A1     0.384343
       5B1     0.386449     5B2     0.386449    13A1     0.452138
      14A1     0.456131     1A2     0.456131     6B2     0.459057
       6B1     0.459057     7B2     0.547805     7B1     0.547805
      15A1     0.596412    16A1     0.623936     2A2     0.623936
      17A1     0.739408     8B2     0.771401     8B1     0.771401
      18A1     1.021361

    Final Occupation by Irrep:
             A1    A2    B1    B2
    DOCC [     8,    0,    3,    3 ]
    SOCC [     0,    0,    0,    0 ]
    NA   [     8,    0,    3,    3 ]
    NB   [     8,    0,    3,    3 ]

  @DF-UKS Final Energy:  -531.86732999107426

   => Energetics <=

    Nuclear Repulsion Energy =             43.0364186346856101
    One-Electron Energy =                -829.3343252567335639
    Two-Electron Energy =                 286.3673149779232290
    DFT Exchange-Correlation Energy =     -31.9367383469494328
    Empirical Dispersion Energy =           0.0000000000000000
    VV10 Nonlocal Energy =                  0.0000000000000000
    Total Energy =                       -531.8673299910742571

  UHF NO Occupations:
  HONO-2 :    6 A1 2.0000000
  HONO-1 :    7 A1 2.0000000
  HONO-0 :    8 A1 2.0000000
  LUNO+0 :    9 A1 0.0000000
  LUNO+1 :   10 A1 0.0000000
  LUNO+2 :   11 A1 0.0000000
  LUNO+3 :   12 A1 0.0000000

Computation Completed

Properties will be evaluated at   0.000000,   0.000000,   0.000000 [a0]

Properties computed using the SCF density matrix

 Multipole Moments:

 ------------------------------------------------------------------------------------
     Multipole            Electronic (a.u.)      Nuclear  (a.u.)        Total (a.u.)
 ------------------------------------------------------------------------------------

 L = 1.  Multiply by 2.5417464519 to convert [e a0] to [Debye]
 Dipole X            :          0.0000000            0.0000000            0.0000000
 Dipole Y            :          0.0000000            0.0000000            0.0000000
 Dipole Z            :          1.3660643           -1.0804732            0.2855910
 Magnitude           :                                                    0.2855910

 ------------------------------------------------------------------------------------

*** tstop() called on Joses-MacBook-Pro-2.local at Thu Jul 17 11:35:50 2025
Module time:
	user time   =      12.08 seconds =       0.20 minutes
	system time =       2.35 seconds =       0.04 minutes
	total time  =          2 seconds =       0.03 minutes
Total time:
	user time   =     345.69 seconds =       5.76 minutes
	system time =      53.33 seconds =       0.89 minutes
	total time  =         42 seconds =       0.70 minutes

*** tstart() called on Joses-MacBook-Pro-2.local
*** at Thu Jul 17 11:35:50 2025

         ------------------------------------------------------------
                                   SCF GRAD
                          Rob Parrish, Justin Turney,
                       Andy Simmonett, and Alex Sokolov
         ------------------------------------------------------------

  ==> Geometry <==

    Molecular point group: c2v
    Full point group: C_inf_v

    Geometry (in Angstrom), charge = -1, multiplicity = 1:

       Center              X                  Y                   Z               Mass
    ------------   -----------------  -----------------  -----------------  -----------------
         AL           0.000000000000     0.000000000000     1.139204796715    26.981538530000
         SI           0.000000000000     0.000000000000    -1.098673154038    27.976926534650

  Nuclear repulsion =   43.036418634685610

  ==> Basis Set <==

  Basis Set: CC-PVDZ
    Blend: CC-PVDZ
    Number of shells: 16
    Number of basis functions: 36
    Number of Cartesian functions: 38
    Spherical Harmonics?: true
    Max angular momentum: 2

  ==> DFJKGrad: Density-Fitted SCF Gradients <==

    Gradient:                    1
    J tasked:                  Yes
    K tasked:                  Yes
    wK tasked:                  No
    OpenMP threads:              1
    Integrals threads:           1
    Memory [MiB]:              375
    Schwarz Cutoff:          1E-12
    Fitting Condition:       1E-10

   => Auxiliary Basis Set <=

  Basis Set: (CC-PVDZ AUX)
    Blend: CC-PVDZ-JKFIT
    Number of shells: 72
    Number of basis functions: 224
    Number of Cartesian functions: 260
    Spherical Harmonics?: true
    Max angular momentum: 3

  ==> DFT Potential <==

   => LibXC <=

    Version 6.2.2
    S. Lehtola, C. Steigemann, M. J.T. Oliveira, and M. A.L. Marques.,  SoftwareX 7, 1â€“5 (2018) (10.1016/j.softx.2017.11.002)

   => Composite Functional: B3LYP <=

    B3LYP Hyb-GGA Exchange-Correlation Functional

    P. J. Stephens, F. J. Devlin, C. F. Chabalowski, and M. J. Frisch.,  J. Phys. Chem. 98, 11623 (1994) (10.1021/j100096a001)

    Deriv               =              1
    GGA                 =           TRUE
    Meta                =          FALSE

    Exchange Hybrid     =           TRUE
    MP2 Hybrid          =          FALSE

   => Exchange Functionals <=

    0.0800   Slater exchange
    0.7200         Becke 88

   => Exact (HF) Exchange <=

    0.2000               HF

   => Correlation Functionals <=

    0.1900   Vosko, Wilk & Nusair (VWN5_RPA)
    0.8100   Lee, Yang & Parr

   => LibXC Density Thresholds  <==

    XC_HYB_GGA_XC_B3LYP:  1.00E-15

   => Molecular Quadrature <=

    Radial Scheme          =       TREUTLER
    Pruning Scheme         =           NONE
    Nuclear Scheme         =       TREUTLER

    Blocking Scheme        =         OCTREE
    BS radius alpha        =              1
    Pruning alpha          =              1
    Radial Points          =             75
    Spherical Points       =            302
    Total Points           =          42377
    Total Blocks           =            409
    Max Points             =            255
    Max Functions          =             36
    Weights Tolerance      =       1.00E-15

  -Total Gradient:
     Atom            X                  Y                   Z
    ------   -----------------  -----------------  -----------------
       1        0.000000000000     0.000000000000    -0.000018024084
       2        0.000000000000     0.000000000000     0.000021908897

*** tstop() called on Joses-MacBook-Pro-2.local at Thu Jul 17 11:35:50 2025
Module time:
	user time   =       3.89 seconds =       0.06 minutes
	system time =       1.78 seconds =       0.03 minutes
	total time  =          0 seconds =       0.00 minutes
Total time:
	user time   =     349.58 seconds =       5.83 minutes
	system time =      55.11 seconds =       0.92 minutes
	total time  =         42 seconds =       0.70 minutes

    			-----------------------------------------

    			 OPTKING 3.0: for geometry optimizations

    			     By R.A. King, Bethel University

    			        with contributions from

    			    A.V. Copan, J. Cayton, A. Heide

    			-----------------------------------------

	                            ===> Fragment 1 <==

	 Z (Atomic Numbers)          Masses                          Geom
	      13.000000            26.981539          0.00000000  0.00000000  2.15278507
	      14.000000            27.976927          0.00000000  0.00000000 -2.07619136

	 - Coordinate -           - BOHR/RAD -       - ANG/DEG -
	 R(1,2)           =         4.228976           2.237878

	        --- Internal Coordinate Step in ANG or DEG, aJ/ANG or AJ/DEG ---
	-------------------------------------------------------------------------------
	           Coordinate      Previous         Force          Change          New
	           ----------      --------        ------          ------        ------
	               R(1,2)       2.23788        0.00016        0.00009       2.23797
	-------------------------------------------------------------------------------

	                                 ==> Convergence Check <==

	Measures of convergence in internal coordinates in au.

	Criteria marked as inactive (o), active & met (*), and active & unmet ( ).

	----------------------------------------------------------------------------------------------
	   Step    Total Energy     Delta E     Max Force     RMS Force      Max Disp      RMS Disp
	----------------------------------------------------------------------------------------------
	  Convergence Criteria     1.00e-06 *    3.00e-04 *             o    1.20e-03 *             o
	----------------------------------------------------------------------------------------------
	    15    -531.86732999   -1.67e-07 *    2.00e-05 *    2.00e-05 o    1.67e-04 *    1.67e-04 o  ~
	----------------------------------------------------------------------------------------------

Next Geometry in Ang
	Fragment 1 (Ang)

	   Al   0.0000000000   0.0000000000   1.1392489942
	   Si   0.0000000000   0.0000000000  -1.0987173515

    Final optimized geometry and variables:
    Molecular point group: c2v
    Full point group: C_inf_v

    Geometry (in Angstrom), charge = -1, multiplicity = 1:

    AL           0.000000000000     0.000000000000     1.139204796715
    SI           0.000000000000     0.000000000000    -1.098673154038

    Psi4 stopped on: Thursday, 17 July 2025 11:35AM
    Psi4 wall time for execution: 0:00:43.10

*** Psi4 exiting successfully. Buy a developer a beer!
