                               Psi4 1.9.1 release

  ==> Input File <==

--------------------------------------------------------------------------
molecule {
-1 1
Na   0.00000        0.60000        0.00000
Mg   0.00000       -0.60000        0.00000
}

set {
basis              cc-pvdz
reference          uks
maxiter            500
geom_maxiter       500
DAMPING_PERCENTAGE 1
guess              SAP
}

optimize('b3lyp')
--------------------------------------------------------------------------

    Molecular point group: c2v
  Charge       = -1
  Multiplicity = 1
  Basis Set: CC-PVDZ
    Blend: CC-PVDZ
  Basis Set: (CC-PVDZ AUX)
    Blend: DEF2-UNIVERSAL-JKFIT
  @DF-UKS Final Energy:  -361.74358136297110
    Total Energy =                       -361.7435813629710992
 Dipole X            :          0.0000000            0.0000000            0.0000000
 Dipole Y            :          0.0000000            0.0000000            0.0000000
 Dipole Z            :          0.6769901           -0.5813069            0.0956831
 Magnitude           :                                                    0.0956831
    Molecular point group: c2v
  Basis Set: CC-PVDZ
    Blend: CC-PVDZ
  Basis Set: (CC-PVDZ AUX)
    Blend: DEF2-UNIVERSAL-JKFIT
  Basis Set: CC-PVDZ
    Blend: CC-PVDZ
  Basis Set: (CC-PVDZ AUX)
    Blend: DEF2-UNIVERSAL-JKFIT
  @DF-UKS Final Energy:  -361.75022488411065
    Total Energy =                       -361.7502248841106507
  Basis Set: CC-PVDZ
    Blend: CC-PVDZ
  Basis Set: (CC-PVDZ AUX)
    Blend: DEF2-UNIVERSAL-JKFIT
  Basis Set: CC-PVDZ
    Blend: CC-PVDZ
  @DF-UKS Final Energy:  -361.76304727307871
    Total Energy =                       -361.7630472730787119
  @DF-UKS Final Energy:  -361.80957038996462
    Total Energy =                       -361.8095703899646196
  @DF-UKS Final Energy:  -362.02156969432798
    Total Energy =                       -362.0215696943279795
  @DF-UKS Final Energy:  -362.12806522483754
    Total Energy =                       -362.1280652248375418
  @DF-UKS Final Energy:  -362.20444394864637
    Total Energy =                       -362.2044439486464285
  @DF-UKS Final Energy:  -362.26409256979485
    Total Energy =                       -362.2640925697948546
  @DF-UKS Final Energy:  -362.30266098148741
    Total Energy =                       -362.3026609814874064
  @DF-UKS Final Energy:  -362.36590750971868
    Total Energy =                       -362.3659075097186815
  @DF-UKS Final Energy:  -362.39561268507714
    Total Energy =                       -362.3956126850771966
  @DF-UKS Final Energy:  -362.39667630947918
    Total Energy =                       -362.3966763094791759
  @DF-UKS Final Energy:  -362.40419320751266
    Total Energy =                       -362.4041932075126624
  @DF-UKS Final Energy:  -362.40445170635746
    Total Energy =                       -362.4044517063574062
  @DF-UKS Final Energy:  -362.40757755938080
    Total Energy =                       -362.4075775593807975
  @DF-UKS Final Energy:  -362.40763118803221
    Total Energy =                       -362.4076311880322692
  @DF-UKS Final Energy:  -362.40873892677257
    Total Energy =                       -362.4087389267725712
  @DF-UKS Final Energy:  -362.40897966411700
    Total Energy =                       -362.4089796641169983
  @DF-UKS Final Energy:  -362.40903360226838
    Total Energy =                       -362.4090336022683800
  Basis Set: (CC-PVDZ AUX)
    Blend: DEF2-UNIVERSAL-JKFIT
  Basis Set: CC-PVDZ
    Blend: CC-PVDZ
  Basis Set: (CC-PVDZ AUX)
    Blend: DEF2-UNIVERSAL-JKFIT
  @DF-UKS Final Energy:  -362.40903733875291
    Total Energy =                       -362.4090373387529098
  Basis Set: CC-PVDZ
    Blend: CC-PVDZ
  Basis Set: (CC-PVDZ AUX)
    Blend: DEF2-UNIVERSAL-JKFIT
  Charge       = -1
  Multiplicity = 1
  Basis Set: CC-PVDZ
    Blend: CC-PVDZ
  Basis Set: (CC-PVDZ AUX)
    Blend: DEF2-UNIVERSAL-JKFIT

    Orbital Energies [Eh]
    ---------------------

    Alpha Occupied:

       1A1   -46.679931     2A1   -38.292150     3A1    -2.960407
       4A1    -2.038755     1B1    -1.704302     1B2    -1.704302
       5A1    -1.702810     2B1    -0.970200     2B2    -0.970200
       6A1    -0.969872     7A1    -0.066552     8A1     0.025885

    Alpha Virtual:

       3B1     0.081835     3B2     0.081835     9A1     0.087847
       4B1     0.109256     4B2     0.109256    10A1     0.121981
      11A1     0.179974     5B1     0.210468     5B2     0.210468
      12A1     0.217278    13A1     0.260607     6B1     0.295707
       6B2     0.295707    14A1     0.305437     7B1     0.312225
       7B2     0.312225    15A1     0.312562     1A2     0.312562
      16A1     0.386667    17A1     0.457569     2A2     0.457571
       8B1     0.493125     8B2     0.493125    18A1     0.584088

    Beta Occupied:

       1A1   -46.679931     2A1   -38.292150     3A1    -2.960407
       4A1    -2.038755     1B1    -1.704302     1B2    -1.704302
       5A1    -1.702810     2B1    -0.970200     2B2    -0.970200
       6A1    -0.969872     7A1    -0.066552     8A1     0.025885

    Beta Virtual:

       3B1     0.081835     3B2     0.081835     9A1     0.087847
       4B1     0.109256     4B2     0.109256    10A1     0.121981
      11A1     0.179974     5B1     0.210468     5B2     0.210468
      12A1     0.217278    13A1     0.260607     6B1     0.295707
       6B2     0.295707    14A1     0.305437     7B1     0.312225
       7B2     0.312225    15A1     0.312562     1A2     0.312562
      16A1     0.386667    17A1     0.457569     2A2     0.457571
       8B1     0.493125     8B2     0.493125    18A1     0.584088

    Final Occupation by Irrep:
             A1    A2    B1    B2
    DOCC [     8,    0,    2,    2 ]
    SOCC [     0,    0,    0,    0 ]
    NA   [     8,    0,    2,    2 ]
    NB   [     8,    0,    2,    2 ]

  @DF-UKS Final Energy:  -362.40903755007440

   => Energetics <=

    Nuclear Repulsion Energy =             18.0465661761371763
    One-Electron Energy =                -546.9721254686753582
    Two-Electron Energy =                 191.5247338451581527
    DFT Exchange-Correlation Energy =     -25.0082121026943796
    Empirical Dispersion Energy =           0.0000000000000000
    VV10 Nonlocal Energy =                  0.0000000000000000
    Total Energy =                       -362.4090375500744017

  UHF NO Occupations:
  HONO-2 :    6 A1 2.0000000
  HONO-1 :    7 A1 2.0000000
  HONO-0 :    8 A1 2.0000000
  LUNO+0 :    9 A1 0.0000000
  LUNO+1 :   10 A1 0.0000000
  LUNO+2 :    3 B1 0.0000000
  LUNO+3 :   11 A1 0.0000000

Computation Completed

Properties will be evaluated at   0.000000,   0.000000,   0.000000 [a0]

Properties computed using the SCF density matrix

 Multipole Moments:

 ------------------------------------------------------------------------------------
     Multipole            Electronic (a.u.)      Nuclear  (a.u.)        Total (a.u.)
 ------------------------------------------------------------------------------------

 L = 1.  Multiply by 2.5417464519 to convert [e a0] to [Debye]
 Dipole X            :          0.0000000            0.0000000            0.0000000
 Dipole Y            :          0.0000000            0.0000000            0.0000000
 Dipole Z            :          0.0728170           -1.8750150           -1.8021979
 Magnitude           :                                                    1.8021979

 ------------------------------------------------------------------------------------

*** tstop() called on Joses-MacBook-Pro-2.local at Thu Jul 17 11:07:45 2025
Module time:
	user time   =       7.91 seconds =       0.13 minutes
	system time =       2.89 seconds =       0.05 minutes
	total time  =          1 seconds =       0.02 minutes
Total time:
	user time   =     265.83 seconds =       4.43 minutes
	system time =      98.80 seconds =       1.65 minutes
	total time  =         35 seconds =       0.58 minutes

*** tstart() called on Joses-MacBook-Pro-2.local
*** at Thu Jul 17 11:07:45 2025

         ------------------------------------------------------------
                                   SCF GRAD
                          Rob Parrish, Justin Turney,
                       Andy Simmonett, and Alex Sokolov
         ------------------------------------------------------------

  ==> Geometry <==

    Molecular point group: c2v
    Full point group: C_inf_v

    Geometry (in Angstrom), charge = -1, multiplicity = 1:

       Center              X                  Y                   Z               Mass
    ------------   -----------------  -----------------  -----------------  -----------------
         NA           0.000000000000     0.000000000000     1.976313886264    22.989769282000
         MG           0.000000000000     0.000000000000    -1.894305661337    23.985041697000

  Nuclear repulsion =   18.046566176137176

  ==> Basis Set <==

  Basis Set: CC-PVDZ
    Blend: CC-PVDZ
    Number of shells: 16
    Number of basis functions: 36
    Number of Cartesian functions: 38
    Spherical Harmonics?: true
    Max angular momentum: 2

  ==> DFJKGrad: Density-Fitted SCF Gradients <==

    Gradient:                    1
    J tasked:                  Yes
    K tasked:                  Yes
    wK tasked:                  No
    OpenMP threads:              1
    Integrals threads:           1
    Memory [MiB]:              375
    Schwarz Cutoff:          1E-12
    Fitting Condition:       1E-10

   => Auxiliary Basis Set <=

  Basis Set: (CC-PVDZ AUX)
    Blend: DEF2-UNIVERSAL-JKFIT
    Number of shells: 68
    Number of basis functions: 224
    Number of Cartesian functions: 274
    Spherical Harmonics?: true
    Max angular momentum: 4

  ==> DFT Potential <==

   => LibXC <=

    Version 6.2.2
    S. Lehtola, C. Steigemann, M. J.T. Oliveira, and M. A.L. Marques.,  SoftwareX 7, 1â€“5 (2018) (10.1016/j.softx.2017.11.002)

   => Composite Functional: B3LYP <=

    B3LYP Hyb-GGA Exchange-Correlation Functional

    P. J. Stephens, F. J. Devlin, C. F. Chabalowski, and M. J. Frisch.,  J. Phys. Chem. 98, 11623 (1994) (10.1021/j100096a001)

    Deriv               =              1
    GGA                 =           TRUE
    Meta                =          FALSE

    Exchange Hybrid     =           TRUE
    MP2 Hybrid          =          FALSE

   => Exchange Functionals <=

    0.0800   Slater exchange
    0.7200         Becke 88

   => Exact (HF) Exchange <=

    0.2000               HF

   => Correlation Functionals <=

    0.1900   Vosko, Wilk & Nusair (VWN5_RPA)
    0.8100   Lee, Yang & Parr

   => LibXC Density Thresholds  <==

    XC_HYB_GGA_XC_B3LYP:  1.00E-15

   => Molecular Quadrature <=

    Radial Scheme          =       TREUTLER
    Pruning Scheme         =           NONE
    Nuclear Scheme         =       TREUTLER

    Blocking Scheme        =         OCTREE
    BS radius alpha        =              1
    Pruning alpha          =              1
    Radial Points          =             75
    Spherical Points       =            302
    Total Points           =          43658
    Total Blocks           =            466
    Max Points             =            255
    Max Functions          =             36
    Weights Tolerance      =       1.00E-15

  -Total Gradient:
     Atom            X                  Y                   Z
    ------   -----------------  -----------------  -----------------
       1        0.000000000000     0.000000000000    -0.000005340368
       2       -0.000000000000     0.000000000000     0.000015776739

*** tstop() called on Joses-MacBook-Pro-2.local at Thu Jul 17 11:07:46 2025
Module time:
	user time   =       2.93 seconds =       0.05 minutes
	system time =       1.45 seconds =       0.02 minutes
	total time  =          1 seconds =       0.02 minutes
Total time:
	user time   =     268.76 seconds =       4.48 minutes
	system time =     100.25 seconds =       1.67 minutes
	total time  =         36 seconds =       0.60 minutes

    			-----------------------------------------

    			 OPTKING 3.0: for geometry optimizations

    			     By R.A. King, Bethel University

    			        with contributions from

    			    A.V. Copan, J. Cayton, A. Heide

    			-----------------------------------------

	                            ===> Fragment 1 <==

	 Z (Atomic Numbers)          Masses                          Geom
	      11.000000            22.989769          0.00000000  0.00000000  3.73469198
	      12.000000            23.985042          0.00000000  0.00000000 -3.57971890

	 - Coordinate -           - BOHR/RAD -       - ANG/DEG -
	 R(1,2)           =         7.314411           3.870620

	        --- Internal Coordinate Step in ANG or DEG, aJ/ANG or AJ/DEG ---
	-------------------------------------------------------------------------------
	           Coordinate      Previous         Force          Change          New
	           ----------      --------        ------          ------        ------
	               R(1,2)       3.87062        0.00009        0.00176       3.87238
	-------------------------------------------------------------------------------

	                                 ==> Convergence Check <==

	Measures of convergence in internal coordinates in au.

	Criteria marked as inactive (o), active & met (*), and active & unmet ( ).

	----------------------------------------------------------------------------------------------
	   Step    Total Energy     Delta E     Max Force     RMS Force      Max Disp      RMS Disp
	----------------------------------------------------------------------------------------------
	  Convergence Criteria     1.00e-06 *    3.00e-04 *             o    1.20e-03 *             o
	----------------------------------------------------------------------------------------------
	    21    -362.40903755   -2.11e-07 *    1.06e-05 *    1.06e-05 o    3.33e-03      3.33e-03 o  ~
	----------------------------------------------------------------------------------------------

Next Geometry in Ang
	Fragment 1 (Ang)

	   Na   0.0000000000   0.0000000000   1.9771951806
	   Mg   0.0000000000   0.0000000000  -1.8951869557

    Final optimized geometry and variables:
    Molecular point group: c2v
    Full point group: C_inf_v

    Geometry (in Angstrom), charge = -1, multiplicity = 1:

    NA           0.000000000000     0.000000000000     1.976313886264
    MG           0.000000000000     0.000000000000    -1.894305661337

    Psi4 stopped on: Thursday, 17 July 2025 11:07AM
    Psi4 wall time for execution: 0:00:36.97

*** Psi4 exiting successfully. Buy a developer a beer!
