                               Psi4 1.9.1 release

  ==> Input File <==

--------------------------------------------------------------------------
molecule {
-1 1
Mg   0.00000        0.60000        0.00000
P   0.00000       -0.60000        0.00000
}

set {
basis              cc-pvdz
reference          uks
maxiter            500
geom_maxiter       500
DAMPING_PERCENTAGE 1
guess              SAP
}

optimize('b3lyp')
--------------------------------------------------------------------------

    Molecular point group: c2v
  Charge       = -1
  Multiplicity = 1
  Basis Set: CC-PVDZ
    Blend: CC-PVDZ
  Basis Set: (CC-PVDZ AUX)
    Blend: CC-PVDZ-JKFIT + DEF2-UNIVERSAL-JKFIT
  @DF-UKS Final Energy:  -540.47216756142063
    Total Energy =                       -540.4721675614206333
 Dipole X            :          0.0000000            0.0000000            0.0000000
 Dipole Y            :          0.0000000            0.0000000            0.0000000
 Dipole Z            :         -1.0378564            0.4914021           -0.5464543
 Magnitude           :                                                    0.5464543
    Molecular point group: c2v
  Basis Set: CC-PVDZ
    Blend: CC-PVDZ
  Basis Set: (CC-PVDZ AUX)
    Blend: CC-PVDZ-JKFIT + DEF2-UNIVERSAL-JKFIT
  Basis Set: CC-PVDZ
    Blend: CC-PVDZ
  Basis Set: (CC-PVDZ AUX)
    Blend: CC-PVDZ-JKFIT + DEF2-UNIVERSAL-JKFIT
  @DF-UKS Final Energy:  -540.48572383009321
    Total Energy =                       -540.4857238300932067
  Basis Set: CC-PVDZ
    Blend: CC-PVDZ
  Basis Set: (CC-PVDZ AUX)
    Blend: CC-PVDZ-JKFIT + DEF2-UNIVERSAL-JKFIT
  Basis Set: CC-PVDZ
    Blend: CC-PVDZ
  @DF-UKS Final Energy:  -540.51189111267786
    Total Energy =                       -540.5118911126778585
  @DF-UKS Final Energy:  -540.60678993668387
    Total Energy =                       -540.6067899366838674
  @DF-UKS Final Energy:  -541.02293437759363
    Total Energy =                       -541.0229343775936286
  @DF-UKS Final Energy:  -541.23762666829941
    Total Energy =                       -541.2376266682994128
  @DF-UKS Final Energy:  -541.35293801234582
    Total Energy =                       -541.3529380123458168
  @DF-UKS Final Energy:  -541.39748317156500
    Total Energy =                       -541.3974831715649998
  @DF-UKS Final Energy:  -541.41405582030075
    Total Energy =                       -541.4140558203007458
  @DF-UKS Final Energy:  -541.41871634388008
    Total Energy =                       -541.4187163438800781
  @DF-UKS Final Energy:  -541.41941701113706
    Total Energy =                       -541.4194170111370568
  @DF-UKS Final Energy:  -541.41953608347660
    Total Energy =                       -541.4195360834766007
  @DF-UKS Final Energy:  -541.41956088195025
    Total Energy =                       -541.4195608819502468
  Basis Set: (CC-PVDZ AUX)
    Blend: CC-PVDZ-JKFIT + DEF2-UNIVERSAL-JKFIT
  Basis Set: CC-PVDZ
    Blend: CC-PVDZ
  Basis Set: (CC-PVDZ AUX)
    Blend: CC-PVDZ-JKFIT + DEF2-UNIVERSAL-JKFIT
  @DF-UKS Final Energy:  -541.41956262401561
    Total Energy =                       -541.4195626240156116
  Basis Set: CC-PVDZ
    Blend: CC-PVDZ
  Basis Set: (CC-PVDZ AUX)
    Blend: CC-PVDZ-JKFIT + DEF2-UNIVERSAL-JKFIT
  Charge       = -1
  Multiplicity = 1
  Basis Set: CC-PVDZ
    Blend: CC-PVDZ
  Basis Set: (CC-PVDZ AUX)
    Blend: CC-PVDZ-JKFIT + DEF2-UNIVERSAL-JKFIT

    Orbital Energies [Eh]
    ---------------------

    Alpha Occupied:

       1A1   -76.840292     2A1   -46.643736     3A1    -6.306791
       4A1    -4.472964     1B2    -4.464583     1B1    -4.464583
       5A1    -2.927965     6A1    -1.672738     2B2    -1.670711
       2B1    -1.670711     7A1    -0.302766     8A1    -0.044276
       3B2     0.021734     3B1     0.021734

    Alpha Virtual:

       9A1     0.060579     4B2     0.146088     4B1     0.146088
      10A1     0.187563    11A1     0.245627     5B1     0.313100
       5B2     0.313100    12A1     0.390201     1A2     0.490668
      13A1     0.490668     6B2     0.491954     6B1     0.491954
      14A1     0.508918     7B2     0.683509     7B1     0.683509
      15A1     0.712859     2A2     0.755806    16A1     0.755811
      17A1     0.824149     8B2     0.881593     8B1     0.881593
      18A1     1.177222

    Beta Occupied:

       1A1   -76.840292     2A1   -46.643736     3A1    -6.306791
       4A1    -4.472964     1B2    -4.464583     1B1    -4.464583
       5A1    -2.927965     6A1    -1.672738     2B2    -1.670711
       2B1    -1.670711     7A1    -0.302766     8A1    -0.044276
       3B2     0.021734     3B1     0.021734

    Beta Virtual:

       9A1     0.060579     4B2     0.146088     4B1     0.146088
      10A1     0.187563    11A1     0.245627     5B1     0.313100
       5B2     0.313100    12A1     0.390201     1A2     0.490668
      13A1     0.490668     6B2     0.491954     6B1     0.491954
      14A1     0.508918     7B2     0.683509     7B1     0.683509
      15A1     0.712859     2A2     0.755806    16A1     0.755811
      17A1     0.824149     8B2     0.881593     8B1     0.881593
      18A1     1.177222

    Final Occupation by Irrep:
             A1    A2    B1    B2
    DOCC [     8,    0,    3,    3 ]
    SOCC [     0,    0,    0,    0 ]
    NA   [     8,    0,    3,    3 ]
    NB   [     8,    0,    3,    3 ]

  @DF-UKS Final Energy:  -541.41956274958807

   => Energetics <=

    Nuclear Repulsion Energy =             41.9232041497168453
    One-Electron Energy =                -840.9065986909128014
    Two-Electron Energy =                 289.6913188753898112
    DFT Exchange-Correlation Energy =     -32.1274870837820004
    Empirical Dispersion Energy =           0.0000000000000000
    VV10 Nonlocal Energy =                  0.0000000000000000
    Total Energy =                       -541.4195627495880672

  UHF NO Occupations:
  HONO-2 :    3 B1 2.0000000
  HONO-1 :    7 A1 2.0000000
  HONO-0 :    8 A1 2.0000000
  LUNO+0 :    9 A1 0.0000000
  LUNO+1 :   10 A1 0.0000000
  LUNO+2 :   11 A1 0.0000000
  LUNO+3 :   12 A1 0.0000000

Computation Completed

Properties will be evaluated at   0.000000,   0.000000,   0.000000 [a0]

Properties computed using the SCF density matrix

 Multipole Moments:

 ------------------------------------------------------------------------------------
     Multipole            Electronic (a.u.)      Nuclear  (a.u.)        Total (a.u.)
 ------------------------------------------------------------------------------------

 L = 1.  Multiply by 2.5417464519 to convert [e a0] to [Debye]
 Dipole X            :          0.0000000            0.0000000            0.0000000
 Dipole Y            :          0.0000000            0.0000000            0.0000000
 Dipole Z            :         -0.2601917            0.9304113            0.6702196
 Magnitude           :                                                    0.6702196

 ------------------------------------------------------------------------------------

*** tstop() called on Joses-MacBook-Pro-2.local at Thu Jul 17 11:26:35 2025
Module time:
	user time   =       6.41 seconds =       0.11 minutes
	system time =       2.48 seconds =       0.04 minutes
	total time  =          1 seconds =       0.02 minutes
Total time:
	user time   =     186.62 seconds =       3.11 minutes
	system time =      71.01 seconds =       1.18 minutes
	total time  =         25 seconds =       0.42 minutes

*** tstart() called on Joses-MacBook-Pro-2.local
*** at Thu Jul 17 11:26:35 2025

         ------------------------------------------------------------
                                   SCF GRAD
                          Rob Parrish, Justin Turney,
                       Andy Simmonett, and Alex Sokolov
         ------------------------------------------------------------

  ==> Geometry <==

    Molecular point group: c2v
    Full point group: C_inf_v

    Geometry (in Angstrom), charge = -1, multiplicity = 1:

       Center              X                  Y                   Z               Mass
    ------------   -----------------  -----------------  -----------------  -----------------
         MG           0.000000000000     0.000000000000     1.280489012026    23.985041697000
         P            0.000000000000     0.000000000000    -0.991567712943    30.973761998420

  Nuclear repulsion =   41.923204149716845

  ==> Basis Set <==

  Basis Set: CC-PVDZ
    Blend: CC-PVDZ
    Number of shells: 16
    Number of basis functions: 36
    Number of Cartesian functions: 38
    Spherical Harmonics?: true
    Max angular momentum: 2

  ==> DFJKGrad: Density-Fitted SCF Gradients <==

    Gradient:                    1
    J tasked:                  Yes
    K tasked:                  Yes
    wK tasked:                  No
    OpenMP threads:              1
    Integrals threads:           1
    Memory [MiB]:              375
    Schwarz Cutoff:          1E-12
    Fitting Condition:       1E-10

   => Auxiliary Basis Set <=

  Basis Set: (CC-PVDZ AUX)
    Blend: CC-PVDZ-JKFIT + DEF2-UNIVERSAL-JKFIT
    Number of shells: 70
    Number of basis functions: 224
    Number of Cartesian functions: 267
    Spherical Harmonics?: true
    Max angular momentum: 4

  ==> DFT Potential <==

   => LibXC <=

    Version 6.2.2
    S. Lehtola, C. Steigemann, M. J.T. Oliveira, and M. A.L. Marques.,  SoftwareX 7, 1â€“5 (2018) (10.1016/j.softx.2017.11.002)

   => Composite Functional: B3LYP <=

    B3LYP Hyb-GGA Exchange-Correlation Functional

    P. J. Stephens, F. J. Devlin, C. F. Chabalowski, and M. J. Frisch.,  J. Phys. Chem. 98, 11623 (1994) (10.1021/j100096a001)

    Deriv               =              1
    GGA                 =           TRUE
    Meta                =          FALSE

    Exchange Hybrid     =           TRUE
    MP2 Hybrid          =          FALSE

   => Exchange Functionals <=

    0.0800   Slater exchange
    0.7200         Becke 88

   => Exact (HF) Exchange <=

    0.2000               HF

   => Correlation Functionals <=

    0.1900   Vosko, Wilk & Nusair (VWN5_RPA)
    0.8100   Lee, Yang & Parr

   => LibXC Density Thresholds  <==

    XC_HYB_GGA_XC_B3LYP:  1.00E-15

   => Molecular Quadrature <=

    Radial Scheme          =       TREUTLER
    Pruning Scheme         =           NONE
    Nuclear Scheme         =       TREUTLER

    Blocking Scheme        =         OCTREE
    BS radius alpha        =              1
    Pruning alpha          =              1
    Radial Points          =             75
    Spherical Points       =            302
    Total Points           =          43004
    Total Blocks           =            420
    Max Points             =            256
    Max Functions          =             36
    Weights Tolerance      =       1.00E-15

  -Total Gradient:
     Atom            X                  Y                   Z
    ------   -----------------  -----------------  -----------------
       1        0.000000000000    -0.000000000000    -0.000006185458
       2        0.000000000000     0.000000000000     0.000035492557

*** tstop() called on Joses-MacBook-Pro-2.local at Thu Jul 17 11:26:35 2025
Module time:
	user time   =       2.33 seconds =       0.04 minutes
	system time =       2.02 seconds =       0.03 minutes
	total time  =          0 seconds =       0.00 minutes
Total time:
	user time   =     188.95 seconds =       3.15 minutes
	system time =      73.03 seconds =       1.22 minutes
	total time  =         25 seconds =       0.42 minutes

    			-----------------------------------------

    			 OPTKING 3.0: for geometry optimizations

    			     By R.A. King, Bethel University

    			        with contributions from

    			    A.V. Copan, J. Cayton, A. Heide

    			-----------------------------------------

	                            ===> Fragment 1 <==

	 Z (Atomic Numbers)          Masses                          Geom
	      12.000000            23.985042          0.00000000  0.00000000  2.41977354
	      15.000000            30.973762          0.00000000  0.00000000 -1.87379141

	 - Coordinate -           - BOHR/RAD -       - ANG/DEG -
	 R(1,2)           =         4.293565           2.272057

	        --- Internal Coordinate Step in ANG or DEG, aJ/ANG or AJ/DEG ---
	-------------------------------------------------------------------------------
	           Coordinate      Previous         Force          Change          New
	           ----------      --------        ------          ------        ------
	               R(1,2)       2.27206        0.00017        0.00010       2.27216
	-------------------------------------------------------------------------------

	                                 ==> Convergence Check <==

	Measures of convergence in internal coordinates in au.

	Criteria marked as inactive (o), active & met (*), and active & unmet ( ).

	----------------------------------------------------------------------------------------------
	   Step    Total Energy     Delta E     Max Force     RMS Force      Max Disp      RMS Disp
	----------------------------------------------------------------------------------------------
	  Convergence Criteria     1.00e-06 *    3.00e-04 *             o    1.20e-03 *             o
	----------------------------------------------------------------------------------------------
	    15    -541.41956275   -1.26e-07 *    2.08e-05 *    2.08e-05 o    1.97e-04 *    1.97e-04 o  ~
	----------------------------------------------------------------------------------------------

Next Geometry in Ang
	Fragment 1 (Ang)

	   Mg   0.0000000000   0.0000000000   1.2805412599
	    P   0.0000000000   0.0000000000  -0.9916199609

    Final optimized geometry and variables:
    Molecular point group: c2v
    Full point group: C_inf_v

    Geometry (in Angstrom), charge = -1, multiplicity = 1:

    MG           0.000000000000     0.000000000000     1.280489012026
    P            0.000000000000     0.000000000000    -0.991567712943

    Psi4 stopped on: Thursday, 17 July 2025 11:26AM
    Psi4 wall time for execution: 0:00:26.11

*** Psi4 exiting successfully. Buy a developer a beer!
