                               Psi4 1.9.1 release

  ==> Input File <==

--------------------------------------------------------------------------
molecule {
-1 1
He   0.00000        0.60000        0.00000
Na   0.00000       -0.60000        0.00000
}

set {
basis              cc-pvdz
reference          uks
maxiter            500
geom_maxiter       500
DAMPING_PERCENTAGE 1
guess              SAP
}

optimize('b3lyp')
--------------------------------------------------------------------------

    Molecular point group: c2v
  Charge       = -1
  Multiplicity = 1
  Basis Set: CC-PVDZ
    Blend: CC-PVDZ
  Basis Set: (CC-PVDZ AUX)
    Blend: DEF2-UNIVERSAL-JKFIT
  @DF-UKS Final Energy:  -165.04051875934650
    Total Energy =                       -165.0405187593465257
 Dipole X            :          0.0000000            0.0000000            0.0000000
 Dipole Y            :          0.0000000            0.0000000            0.0000000
 Dipole Z            :          1.0907665            0.1638984            1.2546649
 Magnitude           :                                                    1.2546649
    Molecular point group: c2v
  Basis Set: CC-PVDZ
    Blend: CC-PVDZ
  Basis Set: (CC-PVDZ AUX)
    Blend: DEF2-UNIVERSAL-JKFIT
  Basis Set: CC-PVDZ
    Blend: CC-PVDZ
  Basis Set: (CC-PVDZ AUX)
    Blend: DEF2-UNIVERSAL-JKFIT
  @DF-UKS Final Energy:  -165.14736796174188
    Total Energy =                       -165.1473679617418782
  Basis Set: CC-PVDZ
    Blend: CC-PVDZ
  Basis Set: (CC-PVDZ AUX)
    Blend: DEF2-UNIVERSAL-JKFIT
  Basis Set: CC-PVDZ
    Blend: CC-PVDZ
  @DF-UKS Final Energy:  -165.16567624074509
    Total Energy =                       -165.1656762407450856
  @DF-UKS Final Energy:  -165.18125094970239
    Total Energy =                       -165.1812509497023882
  @DF-UKS Final Energy:  -165.18953889561345
    Total Energy =                       -165.1895388956134525
  @DF-UKS Final Energy:  -165.19537689624525
    Total Energy =                       -165.1953768962452216
  @DF-UKS Final Energy:  -165.20017504512310
    Total Energy =                       -165.2001750451231032
  @DF-UKS Final Energy:  -165.20482473038956
    Total Energy =                       -165.2048247303895607
  @DF-UKS Final Energy:  -165.20512814435261
    Total Energy =                       -165.2051281443526420
  @DF-UKS Final Energy:  -165.20907632651441
    Total Energy =                       -165.2090763265144062
  @DF-UKS Final Energy:  -165.20923592712430
    Total Energy =                       -165.2092359271242969
  @DF-UKS Final Energy:  -165.21160500296418
    Total Energy =                       -165.2116050029641485
  @DF-UKS Final Energy:  -165.21167813605695
    Total Energy =                       -165.2116781360569462
  @DF-UKS Final Energy:  -165.21308893089204
    Total Energy =                       -165.2130889308920416
  @DF-UKS Final Energy:  -165.21311988084238
    Total Energy =                       -165.2131198808423846
  @DF-UKS Final Energy:  -165.21393627336525
    Total Energy =                       -165.2139362733652774
  @DF-UKS Final Energy:  -165.21394866534888
    Total Energy =                       -165.2139486653488802
  @DF-UKS Final Energy:  -165.21441367201567
    Total Energy =                       -165.2144136720156666
  @DF-UKS Final Energy:  -165.21441827040539
    Total Energy =                       -165.2144182704053890
  @DF-UKS Final Energy:  -165.21442281375312
    Total Energy =                       -165.2144228137530888
  @DF-UKS Final Energy:  -165.21467451533272
    Total Energy =                       -165.2146745153327174
  @DF-UKS Final Energy:  -165.21467597166608
    Total Energy =                       -165.2146759716661109
  @DF-UKS Final Energy:  -165.21467741048801
    Total Energy =                       -165.2146774104880365
  @DF-UKS Final Energy:  -165.21467883195044
    Total Energy =                       -165.2146788319504367
  @DF-UKS Final Energy:  -165.21468023618516
    Total Energy =                       -165.2146802361851883
  Basis Set: (CC-PVDZ AUX)
    Blend: DEF2-UNIVERSAL-JKFIT
  Basis Set: CC-PVDZ
    Blend: CC-PVDZ
  Basis Set: (CC-PVDZ AUX)
    Blend: DEF2-UNIVERSAL-JKFIT
  @DF-UKS Final Energy:  -165.21479285952353
    Total Energy =                       -165.2147928595235271
  Basis Set: CC-PVDZ
    Blend: CC-PVDZ
  Basis Set: (CC-PVDZ AUX)
    Blend: DEF2-UNIVERSAL-JKFIT
  Charge       = -1
  Multiplicity = 1
  Basis Set: CC-PVDZ
    Blend: CC-PVDZ
  Basis Set: (CC-PVDZ AUX)
    Blend: DEF2-UNIVERSAL-JKFIT

    Orbital Energies [Eh]
    ---------------------

    Alpha Occupied:

       1A1   -38.276330     2A1    -2.023622     3A1    -0.954935
       1B2    -0.954928     1B1    -0.954928     4A1    -0.554229
       5A1     0.037275

    Alpha Virtual:

       2B2     0.102780     2B1     0.102780     6A1     0.104742
       7A1     0.186965     3B2     0.223714     3B1     0.223714
       8A1     0.225199     1A2     0.326532     9A1     0.326532
       4B2     0.326539     4B1     0.326539    10A1     0.326540
      11A1     1.234086     5B1     2.285035     5B2     2.285035
      12A1     2.286547

    Beta Occupied:

       1A1   -38.276330     2A1    -2.023622     3A1    -0.954935
       1B2    -0.954928     1B1    -0.954928     4A1    -0.554229
       5A1     0.037275

    Beta Virtual:

       2B2     0.102780     2B1     0.102780     6A1     0.104742
       7A1     0.186965     3B1     0.223714     3B2     0.223714
       8A1     0.225199     1A2     0.326532     9A1     0.326532
       4B2     0.326539     4B1     0.326539    10A1     0.326540
      11A1     1.234086     5B1     2.285035     5B2     2.285035
      12A1     2.286547

    Final Occupation by Irrep:
             A1    A2    B1    B2
    DOCC [     5,    0,    1,    1 ]
    SOCC [     0,    0,    0,    0 ]
    NA   [     5,    0,    1,    1 ]
    NB   [     5,    0,    1,    1 ]

  @DF-UKS Final Energy:  -165.21479326156907

   => Energetics <=

    Nuclear Repulsion Energy =              2.1654670384534631
    One-Electron Energy =                -238.3786403295259504
    Two-Electron Energy =                  83.5988597471371548
    DFT Exchange-Correlation Energy =     -12.6004797176337249
    Empirical Dispersion Energy =           0.0000000000000000
    VV10 Nonlocal Energy =                  0.0000000000000000
    Total Energy =                       -165.2147932615690706

  UHF NO Occupations:
  HONO-2 :    4 A1 2.0000000
  HONO-1 :    1 B1 2.0000000
  HONO-0 :    5 A1 2.0000000
  LUNO+0 :    6 A1 0.0000000
  LUNO+1 :    7 A1 0.0000000
  LUNO+2 :    8 A1 0.0000000
  LUNO+3 :    2 B2 0.0000000

Computation Completed

Properties will be evaluated at   0.000000,   0.000000,   0.000000 [a0]

Properties computed using the SCF density matrix

 Multipole Moments:

 ------------------------------------------------------------------------------------
     Multipole            Electronic (a.u.)      Nuclear  (a.u.)        Total (a.u.)
 ------------------------------------------------------------------------------------

 L = 1.  Multiply by 2.5417464519 to convert [e a0] to [Debye]
 Dipole X            :          0.0000000            0.0000000            0.0000000
 Dipole Y            :          0.0000000            0.0000000            0.0000000
 Dipole Z            :          0.8666042            0.7342867            1.6008909
 Magnitude           :                                                    1.6008909

 ------------------------------------------------------------------------------------

*** tstop() called on Joses-MacBook-Pro-2.local at Thu Jul 17 09:21:08 2025
Module time:
	user time   =       1.48 seconds =       0.02 minutes
	system time =       2.52 seconds =       0.04 minutes
	total time  =          1 seconds =       0.02 minutes
Total time:
	user time   =     108.39 seconds =       1.81 minutes
	system time =     104.93 seconds =       1.75 minutes
	total time  =         22 seconds =       0.37 minutes

*** tstart() called on Joses-MacBook-Pro-2.local
*** at Thu Jul 17 09:21:08 2025

         ------------------------------------------------------------
                                   SCF GRAD
                          Rob Parrish, Justin Turney,
                       Andy Simmonett, and Alex Sokolov
         ------------------------------------------------------------

  ==> Geometry <==

    Molecular point group: c2v
    Full point group: C_inf_v

    Geometry (in Angstrom), charge = -1, multiplicity = 1:

       Center              X                  Y                   Z               Mass
    ------------   -----------------  -----------------  -----------------  -----------------
         HE           0.000000000000     0.000000000000     4.578948823778     4.002603254130
         NA           0.000000000000     0.000000000000    -0.797211804857    22.989769282000

  Nuclear repulsion =    2.165467038453463

  ==> Basis Set <==

  Basis Set: CC-PVDZ
    Blend: CC-PVDZ
    Number of shells: 11
    Number of basis functions: 23
    Number of Cartesian functions: 24
    Spherical Harmonics?: true
    Max angular momentum: 2

  ==> DFJKGrad: Density-Fitted SCF Gradients <==

    Gradient:                    1
    J tasked:                  Yes
    K tasked:                  Yes
    wK tasked:                  No
    OpenMP threads:              1
    Integrals threads:           1
    Memory [MiB]:              375
    Schwarz Cutoff:          1E-12
    Fitting Condition:       1E-10

   => Auxiliary Basis Set <=

  Basis Set: (CC-PVDZ AUX)
    Blend: DEF2-UNIVERSAL-JKFIT
    Number of shells: 43
    Number of basis functions: 135
    Number of Cartesian functions: 162
    Spherical Harmonics?: true
    Max angular momentum: 4

  ==> DFT Potential <==

   => LibXC <=

    Version 6.2.2
    S. Lehtola, C. Steigemann, M. J.T. Oliveira, and M. A.L. Marques.,  SoftwareX 7, 1â€“5 (2018) (10.1016/j.softx.2017.11.002)

   => Composite Functional: B3LYP <=

    B3LYP Hyb-GGA Exchange-Correlation Functional

    P. J. Stephens, F. J. Devlin, C. F. Chabalowski, and M. J. Frisch.,  J. Phys. Chem. 98, 11623 (1994) (10.1021/j100096a001)

    Deriv               =              1
    GGA                 =           TRUE
    Meta                =          FALSE

    Exchange Hybrid     =           TRUE
    MP2 Hybrid          =          FALSE

   => Exchange Functionals <=

    0.0800   Slater exchange
    0.7200         Becke 88

   => Exact (HF) Exchange <=

    0.2000               HF

   => Correlation Functionals <=

    0.1900   Vosko, Wilk & Nusair (VWN5_RPA)
    0.8100   Lee, Yang & Parr

   => LibXC Density Thresholds  <==

    XC_HYB_GGA_XC_B3LYP:  1.00E-15

   => Molecular Quadrature <=

    Radial Scheme          =       TREUTLER
    Pruning Scheme         =           NONE
    Nuclear Scheme         =       TREUTLER

    Blocking Scheme        =         OCTREE
    BS radius alpha        =              1
    Pruning alpha          =              1
    Radial Points          =             75
    Spherical Points       =            302
    Total Points           =          43933
    Total Blocks           =            436
    Max Points             =            256
    Max Functions          =             23
    Weights Tolerance      =       1.00E-15

  -Total Gradient:
     Atom            X                  Y                   Z
    ------   -----------------  -----------------  -----------------
       1        0.000000000000    -0.000000000000    -0.000158883155
       2        0.000000000000     0.000000000000     0.000132421471

*** tstop() called on Joses-MacBook-Pro-2.local at Thu Jul 17 09:21:08 2025
Module time:
	user time   =       0.46 seconds =       0.01 minutes
	system time =       1.56 seconds =       0.03 minutes
	total time  =          0 seconds =       0.00 minutes
Total time:
	user time   =     108.86 seconds =       1.81 minutes
	system time =     106.49 seconds =       1.77 minutes
	total time  =         22 seconds =       0.37 minutes

    			-----------------------------------------

    			 OPTKING 3.0: for geometry optimizations

    			     By R.A. King, Bethel University

    			        with contributions from

    			    A.V. Copan, J. Cayton, A. Heide

    			-----------------------------------------

	                            ===> Fragment 1 <==

	 Z (Atomic Numbers)          Masses                          Geom
	       2.000000             4.002603          0.00000000  0.00000000  8.65295922
	      11.000000            22.989769          0.00000000  0.00000000 -1.50651198

	 - Coordinate -           - BOHR/RAD -       - ANG/DEG -
	 R(1,2)           =        10.159471           5.376161

	        --- Internal Coordinate Step in ANG or DEG, aJ/ANG or AJ/DEG ---
	-------------------------------------------------------------------------------
	           Coordinate      Previous         Force          Change          New
	           ----------      --------        ------          ------        ------
	               R(1,2)       5.37616        0.00120        0.00165       5.37782
	-------------------------------------------------------------------------------

	                                 ==> Convergence Check <==

	Measures of convergence in internal coordinates in au.

	Criteria marked as inactive (o), active & met (*), and active & unmet ( ).

	----------------------------------------------------------------------------------------------
	   Step    Total Energy     Delta E     Max Force     RMS Force      Max Disp      RMS Disp
	----------------------------------------------------------------------------------------------
	  Convergence Criteria     1.00e-06 *    3.00e-04 *             o    1.20e-03 *             o
	----------------------------------------------------------------------------------------------
	    27    -165.21479326   -4.02e-07 *    1.46e-04 *    1.46e-04 o    3.13e-03      3.13e-03 o  ~
	----------------------------------------------------------------------------------------------

Next Geometry in Ang
	Fragment 1 (Ang)

	   He   0.0000000000   0.0000000000   4.5797762253
	   Na   0.0000000000   0.0000000000  -0.7980392063

    Final optimized geometry and variables:
    Molecular point group: c2v
    Full point group: C_inf_v

    Geometry (in Angstrom), charge = -1, multiplicity = 1:

    HE           0.000000000000     0.000000000000     4.578948823778
    NA           0.000000000000     0.000000000000    -0.797211804857

    Psi4 stopped on: Thursday, 17 July 2025 09:21AM
    Psi4 wall time for execution: 0:00:22.90

*** Psi4 exiting successfully. Buy a developer a beer!
