                               Psi4 1.9.1 release

  ==> Input File <==

--------------------------------------------------------------------------
molecule {
-1 1
Be   0.00000        0.60000        0.00000
Al   0.00000       -0.60000        0.00000
}

set {
basis              cc-pvdz
reference          uks
maxiter            500
geom_maxiter       500
DAMPING_PERCENTAGE 1
guess              SAP
}

optimize('b3lyp')
--------------------------------------------------------------------------

    Molecular point group: c2v
  Charge       = -1
  Multiplicity = 1
  Basis Set: CC-PVDZ
    Blend: CC-PVDZ
  Basis Set: (CC-PVDZ AUX)
    Blend: CC-PVDZ-JKFIT + DEF2-UNIVERSAL-JKFIT
  @DF-UKS Final Energy:  -256.59739661668624
    Total Energy =                       -256.5973966166862397
 Dipole X            :          0.0000000            0.0000000            0.0000000
 Dipole Y            :          0.0000000            0.0000000            0.0000000
 Dipole Z            :          0.0465326           -0.5816474           -0.5351148
 Magnitude           :                                                    0.5351148
    Molecular point group: c2v
  Basis Set: CC-PVDZ
    Blend: CC-PVDZ
  Basis Set: (CC-PVDZ AUX)
    Blend: CC-PVDZ-JKFIT + DEF2-UNIVERSAL-JKFIT
  Basis Set: CC-PVDZ
    Blend: CC-PVDZ
  Basis Set: (CC-PVDZ AUX)
    Blend: CC-PVDZ-JKFIT + DEF2-UNIVERSAL-JKFIT
  @DF-UKS Final Energy:  -256.69912887168510
    Total Energy =                       -256.6991288716851045
  Basis Set: CC-PVDZ
    Blend: CC-PVDZ
  Basis Set: (CC-PVDZ AUX)
    Blend: CC-PVDZ-JKFIT + DEF2-UNIVERSAL-JKFIT
  Basis Set: CC-PVDZ
    Blend: CC-PVDZ
  @DF-UKS Final Energy:  -256.80783676082717
    Total Energy =                       -256.8078367608271719
  @DF-UKS Final Energy:  -256.96359054845880
    Total Energy =                       -256.9635905484587965
  @DF-UKS Final Energy:  -257.06530928389316
    Total Energy =                       -257.0653092838931570
  @DF-UKS Final Energy:  -257.07536531877685
    Total Energy =                       -257.0753653187768464
  @DF-UKS Final Energy:  -257.08467862408503
    Total Energy =                       -257.0846786240850292
  @DF-UKS Final Energy:  -257.08652702724652
    Total Energy =                       -257.0865270272465182
  @DF-UKS Final Energy:  -257.08699205309949
    Total Energy =                       -257.0869920530994932
  @DF-UKS Final Energy:  -257.08708959538279
    Total Energy =                       -257.0870895953827926
  Basis Set: (CC-PVDZ AUX)
    Blend: CC-PVDZ-JKFIT + DEF2-UNIVERSAL-JKFIT
  Basis Set: CC-PVDZ
    Blend: CC-PVDZ
  Basis Set: (CC-PVDZ AUX)
    Blend: CC-PVDZ-JKFIT + DEF2-UNIVERSAL-JKFIT
  @DF-UKS Final Energy:  -257.08709602440041
    Total Energy =                       -257.0870960244004095
  Basis Set: CC-PVDZ
    Blend: CC-PVDZ
  Basis Set: (CC-PVDZ AUX)
    Blend: CC-PVDZ-JKFIT + DEF2-UNIVERSAL-JKFIT
  Charge       = -1
  Multiplicity = 1
  Basis Set: CC-PVDZ
    Blend: CC-PVDZ
  Basis Set: (CC-PVDZ AUX)
    Blend: CC-PVDZ-JKFIT + DEF2-UNIVERSAL-JKFIT

    Orbital Energies [Eh]
    ---------------------

    Alpha Occupied:

       1A1   -55.855374     2A1    -3.935374     3A1    -3.861729
       1B1    -2.490874     4A1    -2.487914     1B2    -2.484040
       5A1    -0.144302     6A1    -0.019987     2B2     0.057685

    Alpha Virtual:

       2B1     0.087714     7A1     0.092640     3B1     0.162932
       3B2     0.165959     8A1     0.228399     9A1     0.322736
      10A1     0.354147     4B1     0.362735     4B2     0.366791
       5B1     0.414388     5B2     0.422294    11A1     0.425840
       1A2     0.462987    12A1     0.465773     6B1     0.489465
       6B2     0.499065    13A1     0.519583     2A2     0.692524
      14A1     0.694709    15A1     0.721783     7B1     0.820097
       7B2     0.829081    16A1     0.970930

    Beta Occupied:

       1A1   -55.855374     2A1    -3.935374     3A1    -3.861729
       1B1    -2.490874     4A1    -2.487914     1B2    -2.484040
       5A1    -0.144302     6A1    -0.019987     2B2     0.057685

    Beta Virtual:

       2B1     0.087714     7A1     0.092640     3B1     0.162932
       3B2     0.165959     8A1     0.228399     9A1     0.322736
      10A1     0.354147     4B1     0.362735     4B2     0.366791
       5B1     0.414388     5B2     0.422294    11A1     0.425840
       1A2     0.462987    12A1     0.465773     6B1     0.489465
       6B2     0.499065    13A1     0.519583     2A2     0.692524
      14A1     0.694709    15A1     0.721783     7B1     0.820097
       7B2     0.829081    16A1     0.970930

    Final Occupation by Irrep:
             A1    A2    B1    B2
    DOCC [     6,    0,    1,    2 ]
    SOCC [     0,    0,    0,    0 ]
    NA   [     6,    0,    1,    2 ]
    NB   [     6,    0,    1,    2 ]

  @DF-UKS Final Energy:  -257.08709647479407

   => Energetics <=

    Nuclear Repulsion Energy =             11.7356878013149224
    One-Electron Energy =                -382.7763342073020567
    Two-Electron Energy =                 131.3371572907138614
    DFT Exchange-Correlation Energy =     -17.3836073595207665
    Empirical Dispersion Energy =           0.0000000000000000
    VV10 Nonlocal Energy =                  0.0000000000000000
    Total Energy =                       -257.0870964747940661

  UHF NO Occupations:
  HONO-2 :    5 A1 2.0000000
  HONO-1 :    1 B1 2.0000000
  HONO-0 :    6 A1 2.0000000
  LUNO+0 :    7 A1 0.0000000
  LUNO+1 :    3 B2 0.0000000
  LUNO+2 :    8 A1 0.0000000
  LUNO+3 :    2 B1 0.0000000

Computation Completed

Properties will be evaluated at   0.000000,   0.000000,   0.000000 [a0]

Properties computed using the SCF density matrix

 Multipole Moments:

 ------------------------------------------------------------------------------------
     Multipole            Electronic (a.u.)      Nuclear  (a.u.)        Total (a.u.)
 ------------------------------------------------------------------------------------

 L = 1.  Multiply by 2.5417464519 to convert [e a0] to [Debye]
 Dipole X            :          0.0000000            0.0000000            0.0000000
 Dipole Y            :          0.0000000            0.0000000            0.0000000
 Dipole Z            :          0.3102317           -1.1365131           -0.8262814
 Magnitude           :                                                    0.8262814

 ------------------------------------------------------------------------------------

*** tstop() called on Joses-MacBook-Pro-2.local at Thu Jul 17 09:43:54 2025
Module time:
	user time   =       3.42 seconds =       0.06 minutes
	system time =       2.77 seconds =       0.05 minutes
	total time  =          1 seconds =       0.02 minutes
Total time:
	user time   =      59.74 seconds =       1.00 minutes
	system time =      63.77 seconds =       1.06 minutes
	total time  =         12 seconds =       0.20 minutes

*** tstart() called on Joses-MacBook-Pro-2.local
*** at Thu Jul 17 09:43:54 2025

         ------------------------------------------------------------
                                   SCF GRAD
                          Rob Parrish, Justin Turney,
                       Andy Simmonett, and Alex Sokolov
         ------------------------------------------------------------

  ==> Geometry <==

    Molecular point group: c2v
    Full point group: C_inf_v

    Geometry (in Angstrom), charge = -1, multiplicity = 1:

       Center              X                  Y                   Z               Mass
    ------------   -----------------  -----------------  -----------------  -----------------
         BE           0.000000000000     0.000000000000     1.757664113629     9.012183065000
         AL           0.000000000000     0.000000000000    -0.587082561700    26.981538530000

  Nuclear repulsion =   11.735687801314922

  ==> Basis Set <==

  Basis Set: CC-PVDZ
    Blend: CC-PVDZ
    Number of shells: 14
    Number of basis functions: 32
    Number of Cartesian functions: 34
    Spherical Harmonics?: true
    Max angular momentum: 2

  ==> DFJKGrad: Density-Fitted SCF Gradients <==

    Gradient:                    1
    J tasked:                  Yes
    K tasked:                  Yes
    wK tasked:                  No
    OpenMP threads:              1
    Integrals threads:           1
    Memory [MiB]:              375
    Schwarz Cutoff:          1E-12
    Fitting Condition:       1E-10

   => Auxiliary Basis Set <=

  Basis Set: (CC-PVDZ AUX)
    Blend: CC-PVDZ-JKFIT + DEF2-UNIVERSAL-JKFIT
    Number of shells: 53
    Number of basis functions: 163
    Number of Cartesian functions: 190
    Spherical Harmonics?: true
    Max angular momentum: 3

  ==> DFT Potential <==

   => LibXC <=

    Version 6.2.2
    S. Lehtola, C. Steigemann, M. J.T. Oliveira, and M. A.L. Marques.,  SoftwareX 7, 1â€“5 (2018) (10.1016/j.softx.2017.11.002)

   => Composite Functional: B3LYP <=

    B3LYP Hyb-GGA Exchange-Correlation Functional

    P. J. Stephens, F. J. Devlin, C. F. Chabalowski, and M. J. Frisch.,  J. Phys. Chem. 98, 11623 (1994) (10.1021/j100096a001)

    Deriv               =              1
    GGA                 =           TRUE
    Meta                =          FALSE

    Exchange Hybrid     =           TRUE
    MP2 Hybrid          =          FALSE

   => Exchange Functionals <=

    0.0800   Slater exchange
    0.7200         Becke 88

   => Exact (HF) Exchange <=

    0.2000               HF

   => Correlation Functionals <=

    0.1900   Vosko, Wilk & Nusair (VWN5_RPA)
    0.8100   Lee, Yang & Parr

   => LibXC Density Thresholds  <==

    XC_HYB_GGA_XC_B3LYP:  1.00E-15

   => Molecular Quadrature <=

    Radial Scheme          =       TREUTLER
    Pruning Scheme         =           NONE
    Nuclear Scheme         =       TREUTLER

    Blocking Scheme        =         OCTREE
    BS radius alpha        =              1
    Pruning alpha          =              1
    Radial Points          =             75
    Spherical Points       =            302
    Total Points           =          42463
    Total Blocks           =            402
    Max Points             =            256
    Max Functions          =             32
    Weights Tolerance      =       1.00E-15

  -Total Gradient:
     Atom            X                  Y                   Z
    ------   -----------------  -----------------  -----------------
       1       -0.000000000000     0.000000000000    -0.000058709936
       2        0.000000000000    -0.000000000000     0.000053341304

*** tstop() called on Joses-MacBook-Pro-2.local at Thu Jul 17 09:43:54 2025
Module time:
	user time   =       0.98 seconds =       0.02 minutes
	system time =       1.52 seconds =       0.03 minutes
	total time  =          0 seconds =       0.00 minutes
Total time:
	user time   =      60.72 seconds =       1.01 minutes
	system time =      65.29 seconds =       1.09 minutes
	total time  =         12 seconds =       0.20 minutes

    			-----------------------------------------

    			 OPTKING 3.0: for geometry optimizations

    			     By R.A. King, Bethel University

    			        with contributions from

    			    A.V. Copan, J. Cayton, A. Heide

    			-----------------------------------------

	                            ===> Fragment 1 <==

	 Z (Atomic Numbers)          Masses                          Geom
	       4.000000             9.012183          0.00000000  0.00000000  3.32150380
	      13.000000            26.981539          0.00000000  0.00000000 -1.10942525

	 - Coordinate -           - BOHR/RAD -       - ANG/DEG -
	 R(1,2)           =         4.430929           2.344747

	        --- Internal Coordinate Step in ANG or DEG, aJ/ANG or AJ/DEG ---
	-------------------------------------------------------------------------------
	           Coordinate      Previous         Force          Change          New
	           ----------      --------        ------          ------        ------
	               R(1,2)       2.34475        0.00046        0.00055       2.34530
	-------------------------------------------------------------------------------

	                                 ==> Convergence Check <==

	Measures of convergence in internal coordinates in au.

	Criteria marked as inactive (o), active & met (*), and active & unmet ( ).

	----------------------------------------------------------------------------------------------
	   Step    Total Energy     Delta E     Max Force     RMS Force      Max Disp      RMS Disp
	----------------------------------------------------------------------------------------------
	  Convergence Criteria     1.00e-06 *    3.00e-04 *             o    1.20e-03 *             o
	----------------------------------------------------------------------------------------------
	    12    -257.08709647   -4.50e-07 *    5.60e-05 *    5.60e-05 o    1.04e-03 *    1.04e-03 o  ~
	----------------------------------------------------------------------------------------------

Next Geometry in Ang
	Fragment 1 (Ang)

	   Be   0.0000000000   0.0000000000   1.7579401015
	   Al   0.0000000000   0.0000000000  -0.5873585496

    Final optimized geometry and variables:
    Molecular point group: c2v
    Full point group: C_inf_v

    Geometry (in Angstrom), charge = -1, multiplicity = 1:

    BE           0.000000000000     0.000000000000     1.757664113629
    AL           0.000000000000     0.000000000000    -0.587082561700

    Psi4 stopped on: Thursday, 17 July 2025 09:43AM
    Psi4 wall time for execution: 0:00:12.86

*** Psi4 exiting successfully. Buy a developer a beer!
