                               Psi4 1.9.1 release

  ==> Input File <==

--------------------------------------------------------------------------
molecule {
-1 1
Li   0.00000        0.60000        0.00000
Mg   0.00000       -0.60000        0.00000
}

set {
basis              cc-pvdz
reference          uks
maxiter            500
geom_maxiter       500
DAMPING_PERCENTAGE 1
guess              SAP
}

optimize('b3lyp')
--------------------------------------------------------------------------

    Molecular point group: c2v
  Charge       = -1
  Multiplicity = 1
  Basis Set: CC-PVDZ
    Blend: CC-PVDZ
  Basis Set: (CC-PVDZ AUX)
    Blend: DEF2-UNIVERSAL-JKFIT
  @DF-UKS Final Energy:  -207.24429008007903
    Total Energy =                       -207.2442900800789971
 Dipole X            :          0.0000000            0.0000000            0.0000000
 Dipole Y            :          0.0000000            0.0000000            0.0000000
 Dipole Z            :          0.0365226           -0.8951087           -0.8585861
 Magnitude           :                                                    0.8585861
    Molecular point group: c2v
  Basis Set: CC-PVDZ
    Blend: CC-PVDZ
  Basis Set: (CC-PVDZ AUX)
    Blend: DEF2-UNIVERSAL-JKFIT
  Basis Set: CC-PVDZ
    Blend: CC-PVDZ
  Basis Set: (CC-PVDZ AUX)
    Blend: DEF2-UNIVERSAL-JKFIT
  @DF-UKS Final Energy:  -207.29065203266092
    Total Energy =                       -207.2906520326609154
  Basis Set: CC-PVDZ
    Blend: CC-PVDZ
  Basis Set: (CC-PVDZ AUX)
    Blend: DEF2-UNIVERSAL-JKFIT
  Basis Set: CC-PVDZ
    Blend: CC-PVDZ
  @DF-UKS Final Energy:  -207.34902752218622
    Total Energy =                       -207.3490275221862191
  @DF-UKS Final Energy:  -207.43547255612143
    Total Energy =                       -207.4354725561214536
  @DF-UKS Final Energy:  -207.49517430689690
    Total Energy =                       -207.4951743068968995
  @DF-UKS Final Energy:  -207.52865581278044
    Total Energy =                       -207.5286558127804426
  @DF-UKS Final Energy:  -207.54309538730971
    Total Energy =                       -207.5430953873097337
  @DF-UKS Final Energy:  -207.54832735129219
    Total Energy =                       -207.5483273512921869
  @DF-UKS Final Energy:  -207.54971111984659
    Total Energy =                       -207.5497111198465916
  @DF-UKS Final Energy:  -207.54991866097581
    Total Energy =                       -207.5499186609758056
  Basis Set: (CC-PVDZ AUX)
    Blend: DEF2-UNIVERSAL-JKFIT
  Basis Set: CC-PVDZ
    Blend: CC-PVDZ
  Basis Set: (CC-PVDZ AUX)
    Blend: DEF2-UNIVERSAL-JKFIT
  @DF-UKS Final Energy:  -207.54992948823909
    Total Energy =                       -207.5499294882390870
  Basis Set: CC-PVDZ
    Blend: CC-PVDZ
  Basis Set: (CC-PVDZ AUX)
    Blend: DEF2-UNIVERSAL-JKFIT
  Charge       = -1
  Multiplicity = 1
  Basis Set: CC-PVDZ
    Blend: CC-PVDZ
  Basis Set: (CC-PVDZ AUX)
    Blend: DEF2-UNIVERSAL-JKFIT

    Orbital Energies [Eh]
    ---------------------

    Alpha Occupied:

       1A1   -46.672890     2A1    -2.953833     3A1    -1.903043
       4A1    -1.698522     1B1    -1.698188     1B2    -1.695128
       5A1    -0.068206     2B2     0.052557

    Alpha Virtual:

       6A1     0.053398     2B1     0.083290     7A1     0.093145
       3B2     0.121089     3B1     0.128366     8A1     0.131348
       4B2     0.188985     4B1     0.197609     9A1     0.204401
      10A1     0.236405     5B1     0.307139    11A1     0.308527
       5B2     0.308919    12A1     0.355720     1A2     0.356414
      13A1     0.364220     6B2     0.380102     6B1     0.383781
       2A2     0.491783    14A1     0.493442    15A1     0.525973
       7B1     0.604644     7B2     0.606904    16A1     0.803635

    Beta Occupied:

       1A1   -46.672890     2A1    -2.953833     3A1    -1.903043
       4A1    -1.698522     1B1    -1.698188     1B2    -1.695128
       5A1    -0.068206     2B2     0.052557

    Beta Virtual:

       6A1     0.053398     2B1     0.083290     7A1     0.093145
       3B2     0.121089     3B1     0.128366     8A1     0.131348
       4B2     0.188985     4B1     0.197609     9A1     0.204401
      10A1     0.236405     5B1     0.307139    11A1     0.308527
       5B2     0.308919    12A1     0.355720     1A2     0.356414
      13A1     0.364220     6B2     0.380102     6B1     0.383781
       2A2     0.491783    14A1     0.493442    15A1     0.525973
       7B1     0.604644     7B2     0.606904    16A1     0.803635

    Final Occupation by Irrep:
             A1    A2    B1    B2
    DOCC [     5,    0,    1,    2 ]
    SOCC [     0,    0,    0,    0 ]
    NA   [     5,    0,    1,    2 ]
    NB   [     5,    0,    1,    2 ]

  @DF-UKS Final Energy:  -207.54993008269173

   => Energetics <=

    Nuclear Repulsion Energy =              7.2612141054147852
    One-Electron Energy =                -305.7248551301204884
    Two-Electron Energy =                 105.7664549806088843
    DFT Exchange-Correlation Energy =     -14.8527440385949188
    Empirical Dispersion Energy =           0.0000000000000000
    VV10 Nonlocal Energy =                  0.0000000000000000
    Total Energy =                       -207.5499300826917022

  UHF NO Occupations:
  HONO-2 :    4 A1 2.0000000
  HONO-1 :    5 A1 2.0000000
  HONO-0 :    2 B2 2.0000000
  LUNO+0 :    3 B2 0.0000000
  LUNO+1 :    2 B1 0.0000000
  LUNO+2 :    6 A1 0.0000000
  LUNO+3 :    7 A1 0.0000000

Computation Completed

Properties will be evaluated at   0.000000,   0.000000,   0.000000 [a0]

Properties computed using the SCF density matrix

 Multipole Moments:

 ------------------------------------------------------------------------------------
     Multipole            Electronic (a.u.)      Nuclear  (a.u.)        Total (a.u.)
 ------------------------------------------------------------------------------------

 L = 1.  Multiply by 2.5417464519 to convert [e a0] to [Debye]
 Dipole X            :          0.0000000            0.0000000            0.0000000
 Dipole Y            :          0.0000000            0.0000000            0.0000000
 Dipole Z            :          0.2480849           -1.9569914           -1.7089064
 Magnitude           :                                                    1.7089064

 ------------------------------------------------------------------------------------

*** tstop() called on Joses-MacBook-Pro-2.local at Thu Jul 17 09:32:40 2025
Module time:
	user time   =       2.68 seconds =       0.04 minutes
	system time =       4.00 seconds =       0.07 minutes
	total time  =          0 seconds =       0.00 minutes
Total time:
	user time   =      58.25 seconds =       0.97 minutes
	system time =      70.23 seconds =       1.17 minutes
	total time  =         12 seconds =       0.20 minutes

*** tstart() called on Joses-MacBook-Pro-2.local
*** at Thu Jul 17 09:32:40 2025

         ------------------------------------------------------------
                                   SCF GRAD
                          Rob Parrish, Justin Turney,
                       Andy Simmonett, and Alex Sokolov
         ------------------------------------------------------------

  ==> Geometry <==

    Molecular point group: c2v
    Full point group: C_inf_v

    Geometry (in Angstrom), charge = -1, multiplicity = 1:

       Center              X                  Y                   Z               Mass
    ------------   -----------------  -----------------  -----------------  -----------------
         LI           0.000000000000     0.000000000000     2.029824701845     7.016003436600
         MG           0.000000000000     0.000000000000    -0.593755777611    23.985041697000

  Nuclear repulsion =    7.261214105414785

  ==> Basis Set <==

  Basis Set: CC-PVDZ
    Blend: CC-PVDZ
    Number of shells: 14
    Number of basis functions: 32
    Number of Cartesian functions: 34
    Spherical Harmonics?: true
    Max angular momentum: 2

  ==> DFJKGrad: Density-Fitted SCF Gradients <==

    Gradient:                    1
    J tasked:                  Yes
    K tasked:                  Yes
    wK tasked:                  No
    OpenMP threads:              1
    Integrals threads:           1
    Memory [MiB]:              375
    Schwarz Cutoff:          1E-12
    Fitting Condition:       1E-10

   => Auxiliary Basis Set <=

  Basis Set: (CC-PVDZ AUX)
    Blend: DEF2-UNIVERSAL-JKFIT
    Number of shells: 51
    Number of basis functions: 163
    Number of Cartesian functions: 197
    Spherical Harmonics?: true
    Max angular momentum: 4

  ==> DFT Potential <==

   => LibXC <=

    Version 6.2.2
    S. Lehtola, C. Steigemann, M. J.T. Oliveira, and M. A.L. Marques.,  SoftwareX 7, 1â€“5 (2018) (10.1016/j.softx.2017.11.002)

   => Composite Functional: B3LYP <=

    B3LYP Hyb-GGA Exchange-Correlation Functional

    P. J. Stephens, F. J. Devlin, C. F. Chabalowski, and M. J. Frisch.,  J. Phys. Chem. 98, 11623 (1994) (10.1021/j100096a001)

    Deriv               =              1
    GGA                 =           TRUE
    Meta                =          FALSE

    Exchange Hybrid     =           TRUE
    MP2 Hybrid          =          FALSE

   => Exchange Functionals <=

    0.0800   Slater exchange
    0.7200         Becke 88

   => Exact (HF) Exchange <=

    0.2000               HF

   => Correlation Functionals <=

    0.1900   Vosko, Wilk & Nusair (VWN5_RPA)
    0.8100   Lee, Yang & Parr

   => LibXC Density Thresholds  <==

    XC_HYB_GGA_XC_B3LYP:  1.00E-15

   => Molecular Quadrature <=

    Radial Scheme          =       TREUTLER
    Pruning Scheme         =           NONE
    Nuclear Scheme         =       TREUTLER

    Blocking Scheme        =         OCTREE
    BS radius alpha        =              1
    Pruning alpha          =              1
    Radial Points          =             75
    Spherical Points       =            302
    Total Points           =          43831
    Total Blocks           =            452
    Max Points             =            254
    Max Functions          =             32
    Weights Tolerance      =       1.00E-15

  -Total Gradient:
     Atom            X                  Y                   Z
    ------   -----------------  -----------------  -----------------
       1        0.000000000000    -0.000000000000    -0.000039222105
       2        0.000000000000     0.000000000000     0.000035593952

*** tstop() called on Joses-MacBook-Pro-2.local at Thu Jul 17 09:32:41 2025
Module time:
	user time   =       0.81 seconds =       0.01 minutes
	system time =       2.16 seconds =       0.04 minutes
	total time  =          1 seconds =       0.02 minutes
Total time:
	user time   =      59.06 seconds =       0.98 minutes
	system time =      72.39 seconds =       1.21 minutes
	total time  =         13 seconds =       0.22 minutes

    			-----------------------------------------

    			 OPTKING 3.0: for geometry optimizations

    			     By R.A. King, Bethel University

    			        with contributions from

    			    A.V. Copan, J. Cayton, A. Heide

    			-----------------------------------------

	                            ===> Fragment 1 <==

	 Z (Atomic Numbers)          Masses                          Geom
	       3.000000             7.016003          0.00000000  0.00000000  3.83581277
	      12.000000            23.985042          0.00000000  0.00000000 -1.12203581

	 - Coordinate -           - BOHR/RAD -       - ANG/DEG -
	 R(1,2)           =         4.957849           2.623580

	        --- Internal Coordinate Step in ANG or DEG, aJ/ANG or AJ/DEG ---
	-------------------------------------------------------------------------------
	           Coordinate      Previous         Force          Change          New
	           ----------      --------        ------          ------        ------
	               R(1,2)       2.62358        0.00031        0.00073       2.62431
	-------------------------------------------------------------------------------

	                                 ==> Convergence Check <==

	Measures of convergence in internal coordinates in au.

	Criteria marked as inactive (o), active & met (*), and active & unmet ( ).

	----------------------------------------------------------------------------------------------
	   Step    Total Energy     Delta E     Max Force     RMS Force      Max Disp      RMS Disp
	----------------------------------------------------------------------------------------------
	  Convergence Criteria     1.00e-06 *    3.00e-04 *             o    1.20e-03 *             o
	----------------------------------------------------------------------------------------------
	    12    -207.54993008   -5.94e-07 *    3.74e-05 *    3.74e-05 o    1.39e-03      1.39e-03 o  ~
	----------------------------------------------------------------------------------------------

Next Geometry in Ang
	Fragment 1 (Ang)

	   Li   0.0000000000   0.0000000000   2.0301916166
	   Mg   0.0000000000   0.0000000000  -0.5941226924

    Final optimized geometry and variables:
    Molecular point group: c2v
    Full point group: C_inf_v

    Geometry (in Angstrom), charge = -1, multiplicity = 1:

    LI           0.000000000000     0.000000000000     2.029824701845
    MG           0.000000000000     0.000000000000    -0.593755777611

    Psi4 stopped on: Thursday, 17 July 2025 09:32AM
    Psi4 wall time for execution: 0:00:13.60

*** Psi4 exiting successfully. Buy a developer a beer!
