                               Psi4 1.9.1 release

  ==> Input File <==

--------------------------------------------------------------------------
molecule {
-1 1
H   0.00000        0.60000        0.00000
Ar   0.00000       -0.60000        0.00000
}

set {
basis              cc-pvdz
reference          uks
maxiter            500
geom_maxiter       500
DAMPING_PERCENTAGE 1
guess              SAP
}

optimize('b3lyp')
--------------------------------------------------------------------------

    Molecular point group: c2v
  Charge       = -1
  Multiplicity = 1
  Basis Set: CC-PVDZ
    Blend: CC-PVDZ
  Basis Set: (CC-PVDZ AUX)
    Blend: CC-PVDZ-JKFIT
  @DF-UKS Final Energy:  -527.74449657867865
    Total Energy =                       -527.7444965786786497
 Dipole X            :          0.0000000            0.0000000            0.0000000
 Dipole Y            :          0.0000000            0.0000000            0.0000000
 Dipole Z            :         -4.1103101            1.2078060           -2.9025041
 Magnitude           :                                                    2.9025041
    Molecular point group: c2v
  Basis Set: CC-PVDZ
    Blend: CC-PVDZ
  Basis Set: (CC-PVDZ AUX)
    Blend: CC-PVDZ-JKFIT
  Basis Set: CC-PVDZ
    Blend: CC-PVDZ
  Basis Set: (CC-PVDZ AUX)
    Blend: CC-PVDZ-JKFIT
  @DF-UKS Final Energy:  -527.87722190260888
    Total Energy =                       -527.8772219026088806
  Basis Set: CC-PVDZ
    Blend: CC-PVDZ
  Basis Set: (CC-PVDZ AUX)
    Blend: CC-PVDZ-JKFIT
  Basis Set: CC-PVDZ
    Blend: CC-PVDZ
  @DF-UKS Final Energy:  -527.94845063451805
    Total Energy =                       -527.9484506345180534
  @DF-UKS Final Energy:  -527.98816655439668
    Total Energy =                       -527.9881665543965710
  @DF-UKS Final Energy:  -528.00902251713842
    Total Energy =                       -528.0090225171384191
  @DF-UKS Final Energy:  -528.02021003080029
    Total Energy =                       -528.0202100308003992
  @DF-UKS Final Energy:  -528.02627618166127
    Total Energy =                       -528.0262761816611601
  @DF-UKS Final Energy:  -528.02950548696401
    Total Energy =                       -528.0295054869640126
  @DF-UKS Final Energy:  -528.03107156221608
    Total Energy =                       -528.0310715622160842
  @DF-UKS Final Energy:  -528.03171735273077
    Total Energy =                       -528.0317173527307659
  @DF-UKS Final Energy:  -528.03193181249242
    Total Energy =                       -528.0319318124924166
  @DF-UKS Final Energy:  -528.03198366588492
    Total Energy =                       -528.0319836658849226
  @DF-UKS Final Energy:  -528.03199018473947
    Total Energy =                       -528.0319901847394704
  Basis Set: (CC-PVDZ AUX)
    Blend: CC-PVDZ-JKFIT
  Basis Set: CC-PVDZ
    Blend: CC-PVDZ
  Basis Set: (CC-PVDZ AUX)
    Blend: CC-PVDZ-JKFIT
  @DF-UKS Final Energy:  -528.03199125183460
    Total Energy =                       -528.0319912518345973
  Basis Set: CC-PVDZ
    Blend: CC-PVDZ
  Basis Set: (CC-PVDZ AUX)
    Blend: CC-PVDZ-JKFIT
  Charge       = -1
  Multiplicity = 1
  Basis Set: CC-PVDZ
    Blend: CC-PVDZ
  Basis Set: (CC-PVDZ AUX)
    Blend: CC-PVDZ-JKFIT

    Orbital Energies [Eh]
    ---------------------

    Alpha Occupied:

       1A1  -114.949352     2A1   -10.985479     1B1    -8.535514
       1B2    -8.535514     3A1    -8.534988     4A1    -0.814218
       2B2    -0.273780     2B1    -0.273780     5A1    -0.268011
       6A1     0.140494

    Alpha Virtual:

       7A1     0.725585     3B2     0.727319     3B1     0.727319
       8A1     0.835187     9A1     0.916434    10A1     0.984153
       1A2     0.984154     4B1     0.987244     4B2     0.987244
      11A1     0.991460     5B1     1.712132     5B2     1.712132
      12A1     1.712774

    Beta Occupied:

       1A1  -114.949352     2A1   -10.985479     1B1    -8.535514
       1B2    -8.535514     3A1    -8.534988     4A1    -0.814218
       2B2    -0.273780     2B1    -0.273780     5A1    -0.268011
       6A1     0.140494

    Beta Virtual:

       7A1     0.725585     3B2     0.727319     3B1     0.727319
       8A1     0.835187     9A1     0.916434    10A1     0.984153
       1A2     0.984154     4B1     0.987244     4B2     0.987244
      11A1     0.991460     5B1     1.712132     5B2     1.712132
      12A1     1.712774

    Final Occupation by Irrep:
             A1    A2    B1    B2
    DOCC [     6,    0,    2,    2 ]
    SOCC [     0,    0,    0,    0 ]
    NA   [     6,    0,    2,    2 ]
    NB   [     6,    0,    2,    2 ]

  @DF-UKS Final Energy:  -528.03199131866052

   => Energetics <=

    Nuclear Repulsion Energy =              2.6482837362364746
    One-Electron Energy =                -737.3096502504868113
    Two-Electron Energy =                 231.9590636620874307
    DFT Exchange-Correlation Energy =     -25.3296884664977640
    Empirical Dispersion Energy =           0.0000000000000000
    VV10 Nonlocal Energy =                  0.0000000000000000
    Total Energy =                       -528.0319913186606300

  UHF NO Occupations:
  HONO-2 :    4 A1 2.0000000
  HONO-1 :    5 A1 2.0000000
  HONO-0 :    6 A1 2.0000000
  LUNO+0 :    7 A1 0.0000000
  LUNO+1 :    3 B2 0.0000000
  LUNO+2 :    8 A1 0.0000000
  LUNO+3 :    1 A2 0.0000000

Computation Completed

Properties will be evaluated at   0.000000,   0.000000,   0.000000 [a0]

Properties computed using the SCF density matrix

 Multipole Moments:

 ------------------------------------------------------------------------------------
     Multipole            Electronic (a.u.)      Nuclear  (a.u.)        Total (a.u.)
 ------------------------------------------------------------------------------------

 L = 1.  Multiply by 2.5417464519 to convert [e a0] to [Debye]
 Dipole X            :          0.0000000            0.0000000            0.0000000
 Dipole Y            :          0.0000000            0.0000000            0.0000000
 Dipole Z            :        -10.1355416            3.6201375           -6.5154041
 Magnitude           :                                                    6.5154041

 ------------------------------------------------------------------------------------

*** tstop() called on Joses-MacBook-Pro-2.local at Thu Jul 17 09:16:42 2025
Module time:
	user time   =       2.37 seconds =       0.04 minutes
	system time =       2.31 seconds =       0.04 minutes
	total time  =          0 seconds =       0.00 minutes
Total time:
	user time   =      53.91 seconds =       0.90 minutes
	system time =      59.83 seconds =       1.00 minutes
	total time  =         10 seconds =       0.17 minutes

*** tstart() called on Joses-MacBook-Pro-2.local
*** at Thu Jul 17 09:16:42 2025

         ------------------------------------------------------------
                                   SCF GRAD
                          Rob Parrish, Justin Turney,
                       Andy Simmonett, and Alex Sokolov
         ------------------------------------------------------------

  ==> Geometry <==

    Molecular point group: c2v
    Full point group: C_inf_v

    Geometry (in Angstrom), charge = -1, multiplicity = 1:

       Center              X                  Y                   Z               Mass
    ------------   -----------------  -----------------  -----------------  -----------------
         H            0.000000000000     0.000000000000     3.508264534199     1.007825032230
         AR           0.000000000000     0.000000000000    -0.088476125318    39.962383123700

  Nuclear repulsion =    2.648283736236475

  ==> Basis Set <==

  Basis Set: CC-PVDZ
    Blend: CC-PVDZ
    Number of shells: 11
    Number of basis functions: 23
    Number of Cartesian functions: 24
    Spherical Harmonics?: true
    Max angular momentum: 2

  ==> DFJKGrad: Density-Fitted SCF Gradients <==

    Gradient:                    1
    J tasked:                  Yes
    K tasked:                  Yes
    wK tasked:                  No
    OpenMP threads:              1
    Integrals threads:           1
    Memory [MiB]:              375
    Schwarz Cutoff:          1E-12
    Fitting Condition:       1E-10

   => Auxiliary Basis Set <=

  Basis Set: (CC-PVDZ AUX)
    Blend: CC-PVDZ-JKFIT
    Number of shells: 45
    Number of basis functions: 135
    Number of Cartesian functions: 155
    Spherical Harmonics?: true
    Max angular momentum: 3

  ==> DFT Potential <==

   => LibXC <=

    Version 6.2.2
    S. Lehtola, C. Steigemann, M. J.T. Oliveira, and M. A.L. Marques.,  SoftwareX 7, 1â€“5 (2018) (10.1016/j.softx.2017.11.002)

   => Composite Functional: B3LYP <=

    B3LYP Hyb-GGA Exchange-Correlation Functional

    P. J. Stephens, F. J. Devlin, C. F. Chabalowski, and M. J. Frisch.,  J. Phys. Chem. 98, 11623 (1994) (10.1021/j100096a001)

    Deriv               =              1
    GGA                 =           TRUE
    Meta                =          FALSE

    Exchange Hybrid     =           TRUE
    MP2 Hybrid          =          FALSE

   => Exchange Functionals <=

    0.0800   Slater exchange
    0.7200         Becke 88

   => Exact (HF) Exchange <=

    0.2000               HF

   => Correlation Functionals <=

    0.1900   Vosko, Wilk & Nusair (VWN5_RPA)
    0.8100   Lee, Yang & Parr

   => LibXC Density Thresholds  <==

    XC_HYB_GGA_XC_B3LYP:  1.00E-15

   => Molecular Quadrature <=

    Radial Scheme          =       TREUTLER
    Pruning Scheme         =           NONE
    Nuclear Scheme         =       TREUTLER

    Blocking Scheme        =         OCTREE
    BS radius alpha        =              1
    Pruning alpha          =              1
    Radial Points          =             75
    Spherical Points       =            302
    Total Points           =          42572
    Total Blocks           =            391
    Max Points             =            254
    Max Functions          =             23
    Weights Tolerance      =       1.00E-15

  -Total Gradient:
     Atom            X                  Y                   Z
    ------   -----------------  -----------------  -----------------
       1       -0.000000000000     0.000000000000    -0.000002797676
       2        0.000000000000     0.000000000000     0.000002770679

*** tstop() called on Joses-MacBook-Pro-2.local at Thu Jul 17 09:16:42 2025
Module time:
	user time   =       0.59 seconds =       0.01 minutes
	system time =       0.92 seconds =       0.02 minutes
	total time  =          0 seconds =       0.00 minutes
Total time:
	user time   =      54.50 seconds =       0.91 minutes
	system time =      60.76 seconds =       1.01 minutes
	total time  =         10 seconds =       0.17 minutes

    			-----------------------------------------

    			 OPTKING 3.0: for geometry optimizations

    			     By R.A. King, Bethel University

    			        with contributions from

    			    A.V. Copan, J. Cayton, A. Heide

    			-----------------------------------------

	                            ===> Fragment 1 <==

	 Z (Atomic Numbers)          Masses                          Geom
	       1.000000             1.007825          0.00000000  0.00000000  6.62965915
	      18.000000            39.962383          0.00000000  0.00000000 -0.16719565

	 - Coordinate -           - BOHR/RAD -       - ANG/DEG -
	 R(1,2)           =         6.796855           3.596741

	        --- Internal Coordinate Step in ANG or DEG, aJ/ANG or AJ/DEG ---
	-------------------------------------------------------------------------------
	           Coordinate      Previous         Force          Change          New
	           ----------      --------        ------          ------        ------
	               R(1,2)       3.59674        0.00002        0.00086       3.59760
	-------------------------------------------------------------------------------

	                                 ==> Convergence Check <==

	Measures of convergence in internal coordinates in au.

	Criteria marked as inactive (o), active & met (*), and active & unmet ( ).

	----------------------------------------------------------------------------------------------
	   Step    Total Energy     Delta E     Max Force     RMS Force      Max Disp      RMS Disp
	----------------------------------------------------------------------------------------------
	  Convergence Criteria     1.00e-06 *    3.00e-04 *             o    1.20e-03 *             o
	----------------------------------------------------------------------------------------------
	    15    -528.03199132   -6.68e-08 *    2.78e-06 *    2.78e-06 o    1.62e-03      1.62e-03 o  ~
	----------------------------------------------------------------------------------------------

Next Geometry in Ang
	Fragment 1 (Ang)

	    H   0.0000000000   0.0000000000   3.5086923045
	   Ar   0.0000000000   0.0000000000  -0.0889038956

    Final optimized geometry and variables:
    Molecular point group: c2v
    Full point group: C_inf_v

    Geometry (in Angstrom), charge = -1, multiplicity = 1:

    H            0.000000000000     0.000000000000     3.508264534199
    AR           0.000000000000     0.000000000000    -0.088476125318

    Psi4 stopped on: Thursday, 17 July 2025 09:16AM
    Psi4 wall time for execution: 0:00:11.41

*** Psi4 exiting successfully. Buy a developer a beer!
