                               Psi4 1.9.1 release

  ==> Input File <==

--------------------------------------------------------------------------
molecule {
-1 1
F   0.00000        0.60000        0.00000
Ar   0.00000       -0.60000        0.00000
}

set {
basis              cc-pvdz
reference          uks
maxiter            500
geom_maxiter       500
DAMPING_PERCENTAGE 1
guess              SAP
}

optimize('b3lyp')
--------------------------------------------------------------------------

    Molecular point group: c2v
  Charge       = -1
  Multiplicity = 1
  Basis Set: CC-PVDZ
    Blend: CC-PVDZ
  Basis Set: (CC-PVDZ AUX)
    Blend: CC-PVDZ-JKFIT
  @DF-UKS Final Energy:  -626.46145628566705
    Total Energy =                       -626.4614562856669409
 Dipole X            :          0.0000000            0.0000000            0.0000000
 Dipole Y            :          0.0000000            0.0000000            0.0000000
 Dipole Z            :          0.1677946            0.6803766            0.8481712
 Magnitude           :                                                    0.8481712
    Molecular point group: c2v
  Basis Set: CC-PVDZ
    Blend: CC-PVDZ
  Basis Set: (CC-PVDZ AUX)
    Blend: CC-PVDZ-JKFIT
  Basis Set: CC-PVDZ
    Blend: CC-PVDZ
  Basis Set: (CC-PVDZ AUX)
    Blend: CC-PVDZ-JKFIT
  @DF-UKS Final Energy:  -626.80126434699014
    Total Energy =                       -626.8012643469901377
  Basis Set: CC-PVDZ
    Blend: CC-PVDZ
  Basis Set: (CC-PVDZ AUX)
    Blend: CC-PVDZ-JKFIT
  Basis Set: CC-PVDZ
    Blend: CC-PVDZ
  @DF-UKS Final Energy:  -627.04816338899184
    Total Energy =                       -627.0481633889917248
  @DF-UKS Final Energy:  -627.19465062478685
    Total Energy =                       -627.1946506247867319
  @DF-UKS Final Energy:  -627.25936093755615
    Total Energy =                       -627.2593609375562664
  @DF-UKS Final Energy:  -627.29156679506639
    Total Energy =                       -627.2915667950663874
  @DF-UKS Final Energy:  -627.30704594992005
    Total Energy =                       -627.3070459499200524
  @DF-UKS Final Energy:  -627.31413033681429
    Total Energy =                       -627.3141303368142871
  @DF-UKS Final Energy:  -627.31704657457954
    Total Energy =                       -627.3170465745794218
  @DF-UKS Final Energy:  -627.31802873833101
    Total Energy =                       -627.3180287383310088
  @DF-UKS Final Energy:  -627.31822280500251
    Total Energy =                       -627.3182228050025060
  @DF-UKS Final Energy:  -627.31827435154651
    Total Energy =                       -627.3182743515465063
  Basis Set: (CC-PVDZ AUX)
    Blend: CC-PVDZ-JKFIT
  Basis Set: CC-PVDZ
    Blend: CC-PVDZ
  Basis Set: (CC-PVDZ AUX)
    Blend: CC-PVDZ-JKFIT
  @DF-UKS Final Energy:  -627.31827999944437
    Total Energy =                       -627.3182799994443712
  Basis Set: CC-PVDZ
    Blend: CC-PVDZ
  Basis Set: (CC-PVDZ AUX)
    Blend: CC-PVDZ-JKFIT
  Charge       = -1
  Multiplicity = 1
  Basis Set: CC-PVDZ
    Blend: CC-PVDZ
  Basis Set: (CC-PVDZ AUX)
    Blend: CC-PVDZ-JKFIT

    Orbital Energies [Eh]
    ---------------------

    Alpha Occupied:

       1A1  -114.902455     2A1   -24.099080     3A1   -10.938734
       1B2    -8.488957     1B1    -8.488957     4A1    -8.487784
       5A1    -0.768826     6A1    -0.566353     2B1    -0.230502
       2B2    -0.230502     7A1    -0.218747     8A1     0.147103
       3B1     0.147752     3B2     0.147752

    Alpha Virtual:

       4B1     0.767082     4B2     0.767082     9A1     0.794243
      10A1     0.927042     1A2     1.027766    11A1     1.027768
      12A1     1.033571     5B1     1.034129     5B2     1.034129
       6B1     1.612535     6B2     1.612535    13A1     1.680115
      14A1     2.023408     7B1     4.134510     7B2     4.134510
      15A1     4.135107     2A2     4.135120    16A1     4.137131

    Beta Occupied:

       1A1  -114.902455     2A1   -24.099080     3A1   -10.938734
       1B2    -8.488957     1B1    -8.488957     4A1    -8.487784
       5A1    -0.768826     6A1    -0.566353     2B1    -0.230502
       2B2    -0.230502     7A1    -0.218747     8A1     0.147103
       3B1     0.147752     3B2     0.147752

    Beta Virtual:

       4B1     0.767082     4B2     0.767082     9A1     0.794243
      10A1     0.927042     1A2     1.027766    11A1     1.027768
      12A1     1.033571     5B1     1.034129     5B2     1.034129
       6B2     1.612535     6B1     1.612535    13A1     1.680115
      14A1     2.023408     7B1     4.134510     7B2     4.134510
      15A1     4.135107     2A2     4.135120    16A1     4.137131

    Final Occupation by Irrep:
             A1    A2    B1    B2
    DOCC [     8,    0,    3,    3 ]
    SOCC [     0,    0,    0,    0 ]
    NA   [     8,    0,    3,    3 ]
    NB   [     8,    0,    3,    3 ]

  @DF-UKS Final Energy:  -627.31828061581086

   => Energetics <=

    Nuclear Repulsion Energy =             30.6506928434063965
    One-Electron Energy =                -938.0259988178468120
    Two-Electron Energy =                 313.7136286738916624
    DFT Exchange-Correlation Energy =     -33.6566033152621173
    Empirical Dispersion Energy =           0.0000000000000000
    VV10 Nonlocal Energy =                  0.0000000000000000
    Total Energy =                       -627.3182806158108633

  UHF NO Occupations:
  HONO-2 :    7 A1 2.0000000
  HONO-1 :    8 A1 2.0000000
  HONO-0 :    3 B1 2.0000000
  LUNO+0 :    9 A1 0.0000000
  LUNO+1 :   10 A1 0.0000000
  LUNO+2 :    4 B2 0.0000000
  LUNO+3 :    5 B2 0.0000000

Computation Completed

Properties will be evaluated at   0.000000,   0.000000,   0.000000 [a0]

Properties computed using the SCF density matrix

 Multipole Moments:

 ------------------------------------------------------------------------------------
     Multipole            Electronic (a.u.)      Nuclear  (a.u.)        Total (a.u.)
 ------------------------------------------------------------------------------------

 L = 1.  Multiply by 2.5417464519 to convert [e a0] to [Debye]
 Dipole X            :          0.0000000            0.0000000            0.0000000
 Dipole Y            :          0.0000000            0.0000000            0.0000000
 Dipole Z            :         -4.9180658            1.5857838           -3.3322820
 Magnitude           :                                                    3.3322820

 ------------------------------------------------------------------------------------

*** tstop() called on Joses-MacBook-Pro-2.local at Thu Jul 17 10:56:41 2025
Module time:
	user time   =       2.96 seconds =       0.05 minutes
	system time =       2.98 seconds =       0.05 minutes
	total time  =          0 seconds =       0.00 minutes
Total time:
	user time   =      65.82 seconds =       1.10 minutes
	system time =      72.15 seconds =       1.20 minutes
	total time  =         14 seconds =       0.23 minutes

*** tstart() called on Joses-MacBook-Pro-2.local
*** at Thu Jul 17 10:56:41 2025

         ------------------------------------------------------------
                                   SCF GRAD
                          Rob Parrish, Justin Turney,
                       Andy Simmonett, and Alex Sokolov
         ------------------------------------------------------------

  ==> Geometry <==

    Molecular point group: c2v
    Full point group: C_inf_v

    Geometry (in Angstrom), charge = -1, multiplicity = 1:

       Center              X                  Y                   Z               Mass
    ------------   -----------------  -----------------  -----------------  -----------------
         F            0.000000000000     0.000000000000     1.895675354618    18.998403162730
         AR           0.000000000000     0.000000000000    -0.901217641130    39.962383123700

  Nuclear repulsion =   30.650692843406397

  ==> Basis Set <==

  Basis Set: CC-PVDZ
    Blend: CC-PVDZ
    Number of shells: 14
    Number of basis functions: 32
    Number of Cartesian functions: 34
    Spherical Harmonics?: true
    Max angular momentum: 2

  ==> DFJKGrad: Density-Fitted SCF Gradients <==

    Gradient:                    1
    J tasked:                  Yes
    K tasked:                  Yes
    wK tasked:                  No
    OpenMP threads:              1
    Integrals threads:           1
    Memory [MiB]:              375
    Schwarz Cutoff:          1E-12
    Fitting Condition:       1E-10

   => Auxiliary Basis Set <=

  Basis Set: (CC-PVDZ AUX)
    Blend: CC-PVDZ-JKFIT
    Number of shells: 60
    Number of basis functions: 182
    Number of Cartesian functions: 211
    Spherical Harmonics?: true
    Max angular momentum: 3

  ==> DFT Potential <==

   => LibXC <=

    Version 6.2.2
    S. Lehtola, C. Steigemann, M. J.T. Oliveira, and M. A.L. Marques.,  SoftwareX 7, 1â€“5 (2018) (10.1016/j.softx.2017.11.002)

   => Composite Functional: B3LYP <=

    B3LYP Hyb-GGA Exchange-Correlation Functional

    P. J. Stephens, F. J. Devlin, C. F. Chabalowski, and M. J. Frisch.,  J. Phys. Chem. 98, 11623 (1994) (10.1021/j100096a001)

    Deriv               =              1
    GGA                 =           TRUE
    Meta                =          FALSE

    Exchange Hybrid     =           TRUE
    MP2 Hybrid          =          FALSE

   => Exchange Functionals <=

    0.0800   Slater exchange
    0.7200         Becke 88

   => Exact (HF) Exchange <=

    0.2000               HF

   => Correlation Functionals <=

    0.1900   Vosko, Wilk & Nusair (VWN5_RPA)
    0.8100   Lee, Yang & Parr

   => LibXC Density Thresholds  <==

    XC_HYB_GGA_XC_B3LYP:  1.00E-15

   => Molecular Quadrature <=

    Radial Scheme          =       TREUTLER
    Pruning Scheme         =           NONE
    Nuclear Scheme         =       TREUTLER

    Blocking Scheme        =         OCTREE
    BS radius alpha        =              1
    Pruning alpha          =              1
    Radial Points          =             75
    Spherical Points       =            302
    Total Points           =          41467
    Total Blocks           =            374
    Max Points             =            256
    Max Functions          =             32
    Weights Tolerance      =       1.00E-15

  -Total Gradient:
     Atom            X                  Y                   Z
    ------   -----------------  -----------------  -----------------
       1        0.000000000000    -0.000000000000    -0.000052196986
       2        0.000000000000    -0.000000000000     0.000047699420

*** tstop() called on Joses-MacBook-Pro-2.local at Thu Jul 17 10:56:42 2025
Module time:
	user time   =       1.46 seconds =       0.02 minutes
	system time =       0.80 seconds =       0.01 minutes
	total time  =          1 seconds =       0.02 minutes
Total time:
	user time   =      67.28 seconds =       1.12 minutes
	system time =      72.96 seconds =       1.22 minutes
	total time  =         15 seconds =       0.25 minutes

    			-----------------------------------------

    			 OPTKING 3.0: for geometry optimizations

    			     By R.A. King, Bethel University

    			        with contributions from

    			    A.V. Copan, J. Cayton, A. Heide

    			-----------------------------------------

	                            ===> Fragment 1 <==

	 Z (Atomic Numbers)          Masses                          Geom
	       9.000000            18.998403          0.00000000  0.00000000  3.58230724
	      18.000000            39.962383          0.00000000  0.00000000 -1.70305452

	 - Coordinate -           - BOHR/RAD -       - ANG/DEG -
	 R(1,2)           =         5.285362           2.796893

	        --- Internal Coordinate Step in ANG or DEG, aJ/ANG or AJ/DEG ---
	-------------------------------------------------------------------------------
	           Coordinate      Previous         Force          Change          New
	           ----------      --------        ------          ------        ------
	               R(1,2)       2.79689        0.00041        0.00178       2.79867
	-------------------------------------------------------------------------------

	                                 ==> Convergence Check <==

	Measures of convergence in internal coordinates in au.

	Criteria marked as inactive (o), active & met (*), and active & unmet ( ).

	----------------------------------------------------------------------------------------------
	   Step    Total Energy     Delta E     Max Force     RMS Force      Max Disp      RMS Disp
	----------------------------------------------------------------------------------------------
	  Convergence Criteria     1.00e-06 *    3.00e-04 *             o    1.20e-03 *             o
	----------------------------------------------------------------------------------------------
	    14    -627.31828062   -6.16e-07 *    4.99e-05 *    4.99e-05 o    3.37e-03      3.37e-03 o  ~
	----------------------------------------------------------------------------------------------

Next Geometry in Ang
	Fragment 1 (Ang)

	    F   0.0000000000   0.0000000000   1.8965661692
	   Ar   0.0000000000   0.0000000000  -0.9021084557

    Final optimized geometry and variables:
    Molecular point group: c2v
    Full point group: C_inf_v

    Geometry (in Angstrom), charge = -1, multiplicity = 1:

    F            0.000000000000     0.000000000000     1.895675354618
    AR           0.000000000000     0.000000000000    -0.901217641130

    Psi4 stopped on: Thursday, 17 July 2025 10:56AM
    Psi4 wall time for execution: 0:00:15.11

*** Psi4 exiting successfully. Buy a developer a beer!
