                               Psi4 1.9.1 release

  ==> Input File <==

--------------------------------------------------------------------------
molecule {
-1 1
C   0.00000        0.60000        0.00000
Al   0.00000       -0.60000        0.00000
}

set {
basis              cc-pvdz
reference          uks
maxiter            500
geom_maxiter       500
DAMPING_PERCENTAGE 1
guess              SAP
}

optimize('b3lyp')
--------------------------------------------------------------------------

    Molecular point group: c2v
  Charge       = -1
  Multiplicity = 1
  Basis Set: CC-PVDZ
    Blend: CC-PVDZ
  Basis Set: (CC-PVDZ AUX)
    Blend: CC-PVDZ-JKFIT
  @DF-UKS Final Energy:  -279.96471033629729
    Total Energy =                       -279.9647103362972302
 Dipole X            :          0.0000000            0.0000000            0.0000000
 Dipole Y            :          0.0000000            0.0000000            0.0000000
 Dipole Z            :         -0.4842723            0.3425940           -0.1416783
 Magnitude           :                                                    0.1416783
    Molecular point group: c2v
  Basis Set: CC-PVDZ
    Blend: CC-PVDZ
  Basis Set: (CC-PVDZ AUX)
    Blend: CC-PVDZ-JKFIT
  Basis Set: CC-PVDZ
    Blend: CC-PVDZ
  Basis Set: (CC-PVDZ AUX)
    Blend: CC-PVDZ-JKFIT
  @DF-UKS Final Energy:  -280.15195247233584
    Total Energy =                       -280.1519524723358359
  Basis Set: CC-PVDZ
    Blend: CC-PVDZ
  Basis Set: (CC-PVDZ AUX)
    Blend: CC-PVDZ-JKFIT
  Basis Set: CC-PVDZ
    Blend: CC-PVDZ
  @DF-UKS Final Energy:  -280.27322049191559
    Total Energy =                       -280.2732204919155947
  @DF-UKS Final Energy:  -280.32554306565032
    Total Energy =                       -280.3255430656503222
  @DF-UKS Final Energy:  -280.34283678650627
    Total Energy =                       -280.3428367865062683
  @DF-UKS Final Energy:  -280.34653610357509
    Total Energy =                       -280.3465361035749766
  @DF-UKS Final Energy:  -280.34766711993598
    Total Energy =                       -280.3476671199359771
  @DF-UKS Final Energy:  -280.34781970814845
    Total Energy =                       -280.3478197081485064
  @DF-UKS Final Energy:  -280.34784201564298
    Total Energy =                       -280.3478420156429820
  Basis Set: (CC-PVDZ AUX)
    Blend: CC-PVDZ-JKFIT
  Basis Set: CC-PVDZ
    Blend: CC-PVDZ
  Basis Set: (CC-PVDZ AUX)
    Blend: CC-PVDZ-JKFIT
  @DF-UKS Final Energy:  -280.34784577580143
    Total Energy =                       -280.3478457758014315
  Basis Set: CC-PVDZ
    Blend: CC-PVDZ
  Basis Set: (CC-PVDZ AUX)
    Blend: CC-PVDZ-JKFIT
  Charge       = -1
  Multiplicity = 1
  Basis Set: CC-PVDZ
    Blend: CC-PVDZ
  Basis Set: (CC-PVDZ AUX)
    Blend: CC-PVDZ-JKFIT

    Orbital Energies [Eh]
    ---------------------

    Alpha Occupied:

       1A1   -55.824846     2A1    -9.995643     3A1    -3.909136
       4A1    -2.463881     1B2    -2.460050     1B1    -2.460050
       5A1    -0.319396     6A1    -0.066605     2B1     0.027821
       2B2     0.027821

    Alpha Virtual:

       7A1     0.075139     3B1     0.181403     3B2     0.181403
       8A1     0.241077     9A1     0.360931     4B1     0.420746
       4B2     0.420746    10A1     0.479984     1A2     0.491464
      11A1     0.491465     5B2     0.570389     5B1     0.570389
      12A1     0.635844     6B1     0.777096     6B2     0.777096
      13A1     0.959909    14A1     1.103257     2A2     1.453620
      15A1     1.453624     7B1     1.584448     7B2     1.584448
      16A1     1.848104

    Beta Occupied:

       1A1   -55.824846     2A1    -9.995643     3A1    -3.909136
       4A1    -2.463881     1B2    -2.460050     1B1    -2.460050
       5A1    -0.319396     6A1    -0.066605     2B1     0.027821
       2B2     0.027821

    Beta Virtual:

       7A1     0.075139     3B1     0.181403     3B2     0.181403
       8A1     0.241077     9A1     0.360931     4B1     0.420746
       4B2     0.420746    10A1     0.479984     1A2     0.491464
      11A1     0.491465     5B2     0.570389     5B1     0.570389
      12A1     0.635844     6B1     0.777096     6B2     0.777096
      13A1     0.959909    14A1     1.103257     2A2     1.453620
      15A1     1.453624     7B1     1.584448     7B2     1.584448
      16A1     1.848104

    Final Occupation by Irrep:
             A1    A2    B1    B2
    DOCC [     6,    0,    2,    2 ]
    SOCC [     0,    0,    0,    0 ]
    NA   [     6,    0,    2,    2 ]
    NB   [     6,    0,    2,    2 ]

  @DF-UKS Final Energy:  -280.34784596085723

   => Energetics <=

    Nuclear Repulsion Energy =             22.8681243874546709
    One-Electron Energy =                -437.6542349114157560
    Two-Electron Energy =                 153.8595440509798493
    DFT Exchange-Correlation Energy =     -19.4212794878759354
    Empirical Dispersion Energy =           0.0000000000000000
    VV10 Nonlocal Energy =                  0.0000000000000000
    Total Energy =                       -280.3478459608571711

  UHF NO Occupations:
  HONO-2 :    4 A1 2.0000000
  HONO-1 :    5 A1 2.0000000
  HONO-0 :    6 A1 2.0000000
  LUNO+0 :    7 A1 0.0000000
  LUNO+1 :    3 B2 0.0000000
  LUNO+2 :    8 A1 0.0000000
  LUNO+3 :    3 B1 0.0000000

Computation Completed

Properties will be evaluated at   0.000000,   0.000000,   0.000000 [a0]

Properties computed using the SCF density matrix

 Multipole Moments:

 ------------------------------------------------------------------------------------
     Multipole            Electronic (a.u.)      Nuclear  (a.u.)        Total (a.u.)
 ------------------------------------------------------------------------------------

 L = 1.  Multiply by 2.5417464519 to convert [e a0] to [Debye]
 Dipole X            :          0.0000000            0.0000000            0.0000000
 Dipole Y            :          0.0000000            0.0000000            0.0000000
 Dipole Z            :         -1.3319559            0.5153042           -0.8166517
 Magnitude           :                                                    0.8166517

 ------------------------------------------------------------------------------------

*** tstop() called on Joses-MacBook-Pro-2.local at Thu Jul 17 10:19:41 2025
Module time:
	user time   =       3.71 seconds =       0.06 minutes
	system time =       3.24 seconds =       0.05 minutes
	total time  =          1 seconds =       0.02 minutes
Total time:
	user time   =      59.96 seconds =       1.00 minutes
	system time =      55.54 seconds =       0.93 minutes
	total time  =         11 seconds =       0.18 minutes

*** tstart() called on Joses-MacBook-Pro-2.local
*** at Thu Jul 17 10:19:41 2025

         ------------------------------------------------------------
                                   SCF GRAD
                          Rob Parrish, Justin Turney,
                       Andy Simmonett, and Alex Sokolov
         ------------------------------------------------------------

  ==> Geometry <==

    Molecular point group: c2v
    Full point group: C_inf_v

    Geometry (in Angstrom), charge = -1, multiplicity = 1:

       Center              X                  Y                   Z               Mass
    ------------   -----------------  -----------------  -----------------  -----------------
         C            0.000000000000     0.000000000000     1.249317788949    12.000000000000
         AL           0.000000000000     0.000000000000    -0.555632268735    26.981538530000

  Nuclear repulsion =   22.868124387454671

  ==> Basis Set <==

  Basis Set: CC-PVDZ
    Blend: CC-PVDZ
    Number of shells: 14
    Number of basis functions: 32
    Number of Cartesian functions: 34
    Spherical Harmonics?: true
    Max angular momentum: 2

  ==> DFJKGrad: Density-Fitted SCF Gradients <==

    Gradient:                    1
    J tasked:                  Yes
    K tasked:                  Yes
    wK tasked:                  No
    OpenMP threads:              1
    Integrals threads:           1
    Memory [MiB]:              375
    Schwarz Cutoff:          1E-12
    Fitting Condition:       1E-10

   => Auxiliary Basis Set <=

  Basis Set: (CC-PVDZ AUX)
    Blend: CC-PVDZ-JKFIT
    Number of shells: 60
    Number of basis functions: 182
    Number of Cartesian functions: 211
    Spherical Harmonics?: true
    Max angular momentum: 3

  ==> DFT Potential <==

   => LibXC <=

    Version 6.2.2
    S. Lehtola, C. Steigemann, M. J.T. Oliveira, and M. A.L. Marques.,  SoftwareX 7, 1â€“5 (2018) (10.1016/j.softx.2017.11.002)

   => Composite Functional: B3LYP <=

    B3LYP Hyb-GGA Exchange-Correlation Functional

    P. J. Stephens, F. J. Devlin, C. F. Chabalowski, and M. J. Frisch.,  J. Phys. Chem. 98, 11623 (1994) (10.1021/j100096a001)

    Deriv               =              1
    GGA                 =           TRUE
    Meta                =          FALSE

    Exchange Hybrid     =           TRUE
    MP2 Hybrid          =          FALSE

   => Exchange Functionals <=

    0.0800   Slater exchange
    0.7200         Becke 88

   => Exact (HF) Exchange <=

    0.2000               HF

   => Correlation Functionals <=

    0.1900   Vosko, Wilk & Nusair (VWN5_RPA)
    0.8100   Lee, Yang & Parr

   => LibXC Density Thresholds  <==

    XC_HYB_GGA_XC_B3LYP:  1.00E-15

   => Molecular Quadrature <=

    Radial Scheme          =       TREUTLER
    Pruning Scheme         =           NONE
    Nuclear Scheme         =       TREUTLER

    Blocking Scheme        =         OCTREE
    BS radius alpha        =              1
    Pruning alpha          =              1
    Radial Points          =             75
    Spherical Points       =            302
    Total Points           =          43252
    Total Blocks           =            404
    Max Points             =            255
    Max Functions          =             32
    Weights Tolerance      =       1.00E-15

  -Total Gradient:
     Atom            X                  Y                   Z
    ------   -----------------  -----------------  -----------------
       1        0.000000000000     0.000000000000    -0.000044110929
       2        0.000000000000     0.000000000000     0.000029454053

*** tstop() called on Joses-MacBook-Pro-2.local at Thu Jul 17 10:19:41 2025
Module time:
	user time   =       0.81 seconds =       0.01 minutes
	system time =       1.66 seconds =       0.03 minutes
	total time  =          0 seconds =       0.00 minutes
Total time:
	user time   =      60.77 seconds =       1.01 minutes
	system time =      57.20 seconds =       0.95 minutes
	total time  =         11 seconds =       0.18 minutes

    			-----------------------------------------

    			 OPTKING 3.0: for geometry optimizations

    			     By R.A. King, Bethel University

    			        with contributions from

    			    A.V. Copan, J. Cayton, A. Heide

    			-----------------------------------------

	                            ===> Fragment 1 <==

	 Z (Atomic Numbers)          Masses                          Geom
	       6.000000            12.000000          0.00000000  0.00000000  2.36086846
	      13.000000            26.981539          0.00000000  0.00000000 -1.04999281

	 - Coordinate -           - BOHR/RAD -       - ANG/DEG -
	 R(1,2)           =         3.410861           1.804950

	        --- Internal Coordinate Step in ANG or DEG, aJ/ANG or AJ/DEG ---
	-------------------------------------------------------------------------------
	           Coordinate      Previous         Force          Change          New
	           ----------      --------        ------          ------        ------
	               R(1,2)       1.80495        0.00030        0.00009       1.80504
	-------------------------------------------------------------------------------

	                                 ==> Convergence Check <==

	Measures of convergence in internal coordinates in au.

	Criteria marked as inactive (o), active & met (*), and active & unmet ( ).

	----------------------------------------------------------------------------------------------
	   Step    Total Energy     Delta E     Max Force     RMS Force      Max Disp      RMS Disp
	----------------------------------------------------------------------------------------------
	  Convergence Criteria     1.00e-06 *    3.00e-04 *             o    1.20e-03 *             o
	----------------------------------------------------------------------------------------------
	    11    -280.34784596   -1.85e-07 *    3.68e-05 *    3.68e-05 o    1.68e-04 *    1.68e-04 o  ~
	----------------------------------------------------------------------------------------------

Next Geometry in Ang
	Fragment 1 (Ang)

	    C   0.0000000000   0.0000000000   1.2493623234
	   Al   0.0000000000   0.0000000000  -0.5556768032

    Final optimized geometry and variables:
    Molecular point group: c2v
    Full point group: C_inf_v

    Geometry (in Angstrom), charge = -1, multiplicity = 1:

    C            0.000000000000     0.000000000000     1.249317788949
    AL           0.000000000000     0.000000000000    -0.555632268735

    Psi4 stopped on: Thursday, 17 July 2025 10:19AM
    Psi4 wall time for execution: 0:00:12.24

*** Psi4 exiting successfully. Buy a developer a beer!
