                               Psi4 1.9.1 release

  ==> Input File <==

--------------------------------------------------------------------------
molecule {
-1 1
P   0.00000        0.60000        0.00000
Ar   0.00000       -0.60000        0.00000
}

set {
basis              cc-pvdz
reference          uks
maxiter            500
geom_maxiter       500
DAMPING_PERCENTAGE 1
guess              SAP
}

optimize('b3lyp')
--------------------------------------------------------------------------

    Molecular point group: c2v
  Charge       = -1
  Multiplicity = 1
  Basis Set: CC-PVDZ
    Blend: CC-PVDZ
  Basis Set: (CC-PVDZ AUX)
    Blend: CC-PVDZ-JKFIT
  @DF-UKS Final Energy:  -867.30221352687977
    Total Energy =                       -867.3022135268797683
 Dipole X            :          0.0000000            0.0000000            0.0000000
 Dipole Y            :          0.0000000            0.0000000            0.0000000
 Dipole Z            :         -4.3708431            1.3397069           -3.0311362
 Magnitude           :                                                    3.0311362
    Molecular point group: c2v
  Basis Set: CC-PVDZ
    Blend: CC-PVDZ
  Basis Set: (CC-PVDZ AUX)
    Blend: CC-PVDZ-JKFIT
  Basis Set: CC-PVDZ
    Blend: CC-PVDZ
  Basis Set: (CC-PVDZ AUX)
    Blend: CC-PVDZ-JKFIT
  @DF-UKS Final Energy:  -867.34872520999659
    Total Energy =                       -867.3487252099965872
  Basis Set: CC-PVDZ
    Blend: CC-PVDZ
  Basis Set: (CC-PVDZ AUX)
    Blend: CC-PVDZ-JKFIT
  Basis Set: CC-PVDZ
    Blend: CC-PVDZ
  @DF-UKS Final Energy:  -867.43443107903965
    Total Energy =                       -867.4344310790396548
  @DF-UKS Final Energy:  -867.70876565032313
    Total Energy =                       -867.7087656503230164
  @DF-UKS Final Energy:  -868.24840555835613
    Total Energy =                       -868.2484055583560121
  @DF-UKS Final Energy:  -868.44821172495665
    Total Energy =                       -868.4482117249566500
  @DF-UKS Final Energy:  -868.58357574709476
    Total Energy =                       -868.5835757470947556
  @DF-UKS Final Energy:  -868.66564725773969
    Total Energy =                       -868.6656472577396926
  @DF-UKS Final Energy:  -868.71353417343971
    Total Energy =                       -868.7135341734397116
  @DF-UKS Final Energy:  -868.74068483652127
    Total Energy =                       -868.7406848365212682
  @DF-UKS Final Energy:  -868.75575902888397
    Total Energy =                       -868.7557590288838583
  @DF-UKS Final Energy:  -868.76368296590601
    Total Energy =                       -868.7636829659060140
  @DF-UKS Final Energy:  -868.76759994884060
    Total Energy =                       -868.7675999488407115
  @DF-UKS Final Energy:  -868.76941074105002
    Total Energy =                       -868.7694107410500237
  @DF-UKS Final Energy:  -868.77018978329590
    Total Energy =                       -868.7701897832957911
  @DF-UKS Final Energy:  -868.77049618788715
    Total Energy =                       -868.7704961878871472
  @DF-UKS Final Energy:  -868.77060031297879
    Total Energy =                       -868.7706003129786723
  @DF-UKS Final Energy:  -868.77062382002441
    Total Energy =                       -868.7706238200244115
  @DF-UKS Final Energy:  -868.77063194241100
    Total Energy =                       -868.7706319424110006
  Basis Set: (CC-PVDZ AUX)
    Blend: CC-PVDZ-JKFIT
  Basis Set: CC-PVDZ
    Blend: CC-PVDZ
  Basis Set: (CC-PVDZ AUX)
    Blend: CC-PVDZ-JKFIT
  @DF-UKS Final Energy:  -868.77063323353855
    Total Energy =                       -868.7706332335385468
  Basis Set: CC-PVDZ
    Blend: CC-PVDZ
  Basis Set: (CC-PVDZ AUX)
    Blend: CC-PVDZ-JKFIT
  Charge       = -1
  Multiplicity = 1
  Basis Set: CC-PVDZ
    Blend: CC-PVDZ
  Basis Set: (CC-PVDZ AUX)
    Blend: CC-PVDZ-JKFIT

    Orbital Energies [Eh]
    ---------------------

    Alpha Occupied:

       1A1  -114.964635     2A1   -76.783049     3A1   -11.000680
       1B1    -8.550551     1B2    -8.550551     4A1    -8.550532
       5A1    -6.246208     6A1    -4.419383     2B2    -4.400914
       2B1    -4.400914     7A1    -0.829013     8A1    -0.287811
       3B1    -0.287064     3B2    -0.287064     9A1    -0.222387
       4B1     0.094266     4B2     0.094266

    Alpha Virtual:

      10A1     0.125683    11A1     0.604646    12A1     0.669022
       5B2     0.686288     5B1     0.686288    13A1     0.730942
       6B2     0.738759     6B1     0.738759     7B1     0.788672
       7B2     0.788672    14A1     0.804865     1A2     0.810877
      15A1     0.810880    16A1     0.945648    17A1     0.970877
       2A2     0.970898     8B1     0.972934     8B2     0.972934
      18A1     1.041461

    Beta Occupied:

       1A1  -114.964635     2A1   -76.783049     3A1   -11.000680
       1B1    -8.550551     1B2    -8.550551     4A1    -8.550532
       5A1    -6.246208     6A1    -4.419383     2B2    -4.400914
       2B1    -4.400914     7A1    -0.829013     8A1    -0.287811
       3B1    -0.287064     3B2    -0.287064     9A1    -0.222387
       4B1     0.094266     4B2     0.094266

    Beta Virtual:

      10A1     0.125683    11A1     0.604646    12A1     0.669022
       5B2     0.686288     5B1     0.686288    13A1     0.730942
       6B2     0.738759     6B1     0.738759     7B1     0.788672
       7B2     0.788672    14A1     0.804865     1A2     0.810877
      15A1     0.810880    16A1     0.945648    17A1     0.970877
       2A2     0.970898     8B1     0.972934     8B2     0.972934
      18A1     1.041461

    Final Occupation by Irrep:
             A1    A2    B1    B2
    DOCC [     9,    0,    4,    4 ]
    SOCC [     0,    0,    0,    0 ]
    NA   [     9,    0,    4,    4 ]
    NB   [     9,    0,    4,    4 ]

  @DF-UKS Final Energy:  -868.77063345487795

   => Energetics <=

    Nuclear Repulsion Energy =             41.7616200449791393
    One-Electron Energy =               -1290.7752743907465174
    Two-Electron Energy =                 423.9982556868595225
    DFT Exchange-Correlation Energy =     -43.7552347959699404
    Empirical Dispersion Energy =           0.0000000000000000
    VV10 Nonlocal Energy =                  0.0000000000000000
    Total Energy =                       -868.7706334548779523

  UHF NO Occupations:
  HONO-2 :    3 B2 2.0000000
  HONO-1 :    9 A1 2.0000000
  HONO-0 :    4 B2 2.0000000
  LUNO+0 :   10 A1 0.0000000
  LUNO+1 :    5 B2 0.0000000
  LUNO+2 :   11 A1 0.0000000
  LUNO+3 :    5 B1 0.0000000

Computation Completed

Properties will be evaluated at   0.000000,   0.000000,   0.000000 [a0]

Properties computed using the SCF density matrix

 Multipole Moments:

 ------------------------------------------------------------------------------------
     Multipole            Electronic (a.u.)      Nuclear  (a.u.)        Total (a.u.)
 ------------------------------------------------------------------------------------

 L = 1.  Multiply by 2.5417464519 to convert [e a0] to [Debye]
 Dipole X            :          0.0000000            0.0000000            0.0000000
 Dipole Y            :          0.0000000            0.0000000            0.0000000
 Dipole Z            :         -7.4200587            3.8195843           -3.6004745
 Magnitude           :                                                    3.6004745

 ------------------------------------------------------------------------------------

*** tstop() called on Joses-MacBook-Pro-2.local at Thu Jul 17 12:04:03 2025
Module time:
	user time   =       4.55 seconds =       0.08 minutes
	system time =       1.43 seconds =       0.02 minutes
	total time  =          0 seconds =       0.00 minutes
Total time:
	user time   =     241.55 seconds =       4.03 minutes
	system time =      62.95 seconds =       1.05 minutes
	total time  =         29 seconds =       0.48 minutes

*** tstart() called on Joses-MacBook-Pro-2.local
*** at Thu Jul 17 12:04:03 2025

         ------------------------------------------------------------
                                   SCF GRAD
                          Rob Parrish, Justin Turney,
                       Andy Simmonett, and Alex Sokolov
         ------------------------------------------------------------

  ==> Geometry <==

    Molecular point group: c2v
    Full point group: C_inf_v

    Geometry (in Angstrom), charge = -1, multiplicity = 1:

       Center              X                  Y                   Z               Mass
    ------------   -----------------  -----------------  -----------------  -----------------
         P            0.000000000000     0.000000000000     1.927397779624    30.973761998420
         AR           0.000000000000     0.000000000000    -1.493873874277    39.962383123700

  Nuclear repulsion =   41.761620044979139

  ==> Basis Set <==

  Basis Set: CC-PVDZ
    Blend: CC-PVDZ
    Number of shells: 16
    Number of basis functions: 36
    Number of Cartesian functions: 38
    Spherical Harmonics?: true
    Max angular momentum: 2

  ==> DFJKGrad: Density-Fitted SCF Gradients <==

    Gradient:                    1
    J tasked:                  Yes
    K tasked:                  Yes
    wK tasked:                  No
    OpenMP threads:              1
    Integrals threads:           1
    Memory [MiB]:              375
    Schwarz Cutoff:          1E-12
    Fitting Condition:       1E-10

   => Auxiliary Basis Set <=

  Basis Set: (CC-PVDZ AUX)
    Blend: CC-PVDZ-JKFIT
    Number of shells: 72
    Number of basis functions: 224
    Number of Cartesian functions: 260
    Spherical Harmonics?: true
    Max angular momentum: 3

  ==> DFT Potential <==

   => LibXC <=

    Version 6.2.2
    S. Lehtola, C. Steigemann, M. J.T. Oliveira, and M. A.L. Marques.,  SoftwareX 7, 1â€“5 (2018) (10.1016/j.softx.2017.11.002)

   => Composite Functional: B3LYP <=

    B3LYP Hyb-GGA Exchange-Correlation Functional

    P. J. Stephens, F. J. Devlin, C. F. Chabalowski, and M. J. Frisch.,  J. Phys. Chem. 98, 11623 (1994) (10.1021/j100096a001)

    Deriv               =              1
    GGA                 =           TRUE
    Meta                =          FALSE

    Exchange Hybrid     =           TRUE
    MP2 Hybrid          =          FALSE

   => Exchange Functionals <=

    0.0800   Slater exchange
    0.7200         Becke 88

   => Exact (HF) Exchange <=

    0.2000               HF

   => Correlation Functionals <=

    0.1900   Vosko, Wilk & Nusair (VWN5_RPA)
    0.8100   Lee, Yang & Parr

   => LibXC Density Thresholds  <==

    XC_HYB_GGA_XC_B3LYP:  1.00E-15

   => Molecular Quadrature <=

    Radial Scheme          =       TREUTLER
    Pruning Scheme         =           NONE
    Nuclear Scheme         =       TREUTLER

    Blocking Scheme        =         OCTREE
    BS radius alpha        =              1
    Pruning alpha          =              1
    Radial Points          =             75
    Spherical Points       =            302
    Total Points           =          40962
    Total Blocks           =            380
    Max Points             =            254
    Max Functions          =             36
    Weights Tolerance      =       1.00E-15

  -Total Gradient:
     Atom            X                  Y                   Z
    ------   -----------------  -----------------  -----------------
       1        0.000000000000    -0.000000000000    -0.000013637941
       2        0.000000000000    -0.000000000000     0.000010177580

*** tstop() called on Joses-MacBook-Pro-2.local at Thu Jul 17 12:04:04 2025
Module time:
	user time   =       2.47 seconds =       0.04 minutes
	system time =       0.64 seconds =       0.01 minutes
	total time  =          1 seconds =       0.02 minutes
Total time:
	user time   =     244.03 seconds =       4.07 minutes
	system time =      63.59 seconds =       1.06 minutes
	total time  =         30 seconds =       0.50 minutes

    			-----------------------------------------

    			 OPTKING 3.0: for geometry optimizations

    			     By R.A. King, Bethel University

    			        with contributions from

    			    A.V. Copan, J. Cayton, A. Heide

    			-----------------------------------------

	                            ===> Fragment 1 <==

	 Z (Atomic Numbers)          Masses                          Geom
	      15.000000            30.973762          0.00000000  0.00000000  3.64225394
	      18.000000            39.962383          0.00000000  0.00000000 -2.82301249

	 - Coordinate -           - BOHR/RAD -       - ANG/DEG -
	 R(1,2)           =         6.465266           3.421272

	        --- Internal Coordinate Step in ANG or DEG, aJ/ANG or AJ/DEG ---
	-------------------------------------------------------------------------------
	           Coordinate      Previous         Force          Change          New
	           ----------      --------        ------          ------        ------
	               R(1,2)       3.42127        0.00010        0.00386       3.42513
	-------------------------------------------------------------------------------

	                                 ==> Convergence Check <==

	Measures of convergence in internal coordinates in au.

	Criteria marked as inactive (o), active & met (*), and active & unmet ( ).

	----------------------------------------------------------------------------------------------
	   Step    Total Energy     Delta E     Max Force     RMS Force      Max Disp      RMS Disp
	----------------------------------------------------------------------------------------------
	  Convergence Criteria     1.00e-06 *    3.00e-04 *             o    1.20e-03 *             o
	----------------------------------------------------------------------------------------------
	    21    -868.77063345   -2.21e-07 *    1.19e-05 *    1.19e-05 o    7.29e-03      7.29e-03 o  ~
	----------------------------------------------------------------------------------------------

Next Geometry in Ang
	Fragment 1 (Ang)

	    P   0.0000000000   0.0000000000   1.9293273035
	   Ar   0.0000000000   0.0000000000  -1.4958033981

    Final optimized geometry and variables:
    Molecular point group: c2v
    Full point group: C_inf_v

    Geometry (in Angstrom), charge = -1, multiplicity = 1:

    P            0.000000000000     0.000000000000     1.927397779624
    AR           0.000000000000     0.000000000000    -1.493873874277

    Psi4 stopped on: Thursday, 17 July 2025 12:04PM
    Psi4 wall time for execution: 0:00:30.23

*** Psi4 exiting successfully. Buy a developer a beer!
