                               Psi4 1.9.1 release

  ==> Input File <==

--------------------------------------------------------------------------
molecule {
-1 1
Na   0.00000        0.60000        0.00000
S   0.00000       -0.60000        0.00000
}

set {
basis              cc-pvdz
reference          uks
maxiter            500
geom_maxiter       500
DAMPING_PERCENTAGE 1
guess              SAP
}

optimize('b3lyp')
--------------------------------------------------------------------------

    Molecular point group: c2v
  Charge       = -1
  Multiplicity = 1
  Basis Set: CC-PVDZ
    Blend: CC-PVDZ
  Basis Set: (CC-PVDZ AUX)
    Blend: CC-PVDZ-JKFIT + DEF2-UNIVERSAL-JKFIT
  @DF-UKS Final Energy:  -559.62399397710362
    Total Energy =                       -559.6239939771036234
 Dipole X            :          0.0000000            0.0000000            0.0000000
 Dipole Y            :          0.0000000            0.0000000            0.0000000
 Dipole Z            :         -0.9331682           -0.6660660           -1.5992342
 Magnitude           :                                                    1.5992342
    Molecular point group: c2v
  Basis Set: CC-PVDZ
    Blend: CC-PVDZ
  Basis Set: (CC-PVDZ AUX)
    Blend: CC-PVDZ-JKFIT + DEF2-UNIVERSAL-JKFIT
  Basis Set: CC-PVDZ
    Blend: CC-PVDZ
  Basis Set: (CC-PVDZ AUX)
    Blend: CC-PVDZ-JKFIT + DEF2-UNIVERSAL-JKFIT
  @DF-UKS Final Energy:  -559.63600530232873
    Total Energy =                       -559.6360053023287264
  Basis Set: CC-PVDZ
    Blend: CC-PVDZ
  Basis Set: (CC-PVDZ AUX)
    Blend: CC-PVDZ-JKFIT + DEF2-UNIVERSAL-JKFIT
  Basis Set: CC-PVDZ
    Blend: CC-PVDZ
  @DF-UKS Final Energy:  -559.65917010098042
    Total Energy =                       -559.6591701009804183
  @DF-UKS Final Energy:  -559.74303631594171
    Total Energy =                       -559.7430363159417084
  @DF-UKS Final Energy:  -560.11651316085386
    Total Energy =                       -560.1165131608538559
  @DF-UKS Final Energy:  -560.32588669146969
    Total Energy =                       -560.3258866914696910
  @DF-UKS Final Energy:  -560.45657426654043
    Total Energy =                       -560.4565742665404287
  @DF-UKS Final Energy:  -560.51113985630377
    Total Energy =                       -560.5111398563037710
  @DF-UKS Final Energy:  -560.53268526053273
    Total Energy =                       -560.5326852605326167
  @DF-UKS Final Energy:  -560.54006541642593
    Total Energy =                       -560.5400654164259322
  @DF-UKS Final Energy:  -560.54189881196942
    Total Energy =                       -560.5418988119694177
  @DF-UKS Final Energy:  -560.54211446741783
    Total Energy =                       -560.5421144674178322
  @DF-UKS Final Energy:  -560.54214129035142
    Total Energy =                       -560.5421412903514238
  Basis Set: (CC-PVDZ AUX)
    Blend: CC-PVDZ-JKFIT + DEF2-UNIVERSAL-JKFIT
  Basis Set: CC-PVDZ
    Blend: CC-PVDZ
  Basis Set: (CC-PVDZ AUX)
    Blend: CC-PVDZ-JKFIT + DEF2-UNIVERSAL-JKFIT
  @DF-UKS Final Energy:  -560.54214461312665
    Total Energy =                       -560.5421446131266521
  Basis Set: CC-PVDZ
    Blend: CC-PVDZ
  Basis Set: (CC-PVDZ AUX)
    Blend: CC-PVDZ-JKFIT + DEF2-UNIVERSAL-JKFIT
  Charge       = -1
  Multiplicity = 1
  Basis Set: CC-PVDZ
    Blend: CC-PVDZ
  Basis Set: (CC-PVDZ AUX)
    Blend: CC-PVDZ-JKFIT + DEF2-UNIVERSAL-JKFIT

    Orbital Energies [Eh]
    ---------------------

    Alpha Occupied:

       1A1   -88.590763     2A1   -38.284114     3A1    -7.647618
       4A1    -5.610571     1B1    -5.606449     1B2    -5.606449
       5A1    -2.035587     2B2    -0.966783     2B1    -0.966783
       6A1    -0.966354     7A1    -0.368524     8A1    -0.004560
       3B2     0.016008     3B1     0.016008

    Alpha Virtual:

       9A1     0.064248     4B1     0.115194     4B2     0.115194
      10A1     0.135760    11A1     0.181091     5B1     0.219723
       5B2     0.219723    12A1     0.283139    13A1     0.324178
       1A2     0.324178     6B1     0.361388     6B2     0.361388
      14A1     0.436368     7B2     0.800569     7B1     0.800569
      15A1     0.807767    16A1     0.884666    17A1     0.907995
       2A2     0.908010     8B2     0.962065     8B1     0.962065
      18A1     1.179667

    Beta Occupied:

       1A1   -88.590763     2A1   -38.284114     3A1    -7.647618
       4A1    -5.610571     1B1    -5.606449     1B2    -5.606449
       5A1    -2.035587     2B2    -0.966783     2B1    -0.966783
       6A1    -0.966354     7A1    -0.368524     8A1    -0.004560
       3B2     0.016008     3B1     0.016008

    Beta Virtual:

       9A1     0.064248     4B1     0.115194     4B2     0.115194
      10A1     0.135760    11A1     0.181091     5B1     0.219723
       5B2     0.219723    12A1     0.283139    13A1     0.324178
       1A2     0.324178     6B1     0.361388     6B2     0.361388
      14A1     0.436368     7B2     0.800569     7B1     0.800569
      15A1     0.807767    16A1     0.884666    17A1     0.907995
       2A2     0.908010     8B2     0.962065     8B1     0.962065
      18A1     1.179667

    Final Occupation by Irrep:
             A1    A2    B1    B2
    DOCC [     8,    0,    3,    3 ]
    SOCC [     0,    0,    0,    0 ]
    NA   [     8,    0,    3,    3 ]
    NB   [     8,    0,    3,    3 ]

  @DF-UKS Final Energy:  -560.54214496585394

   => Energetics <=

    Nuclear Repulsion Energy =             38.7314508956823289
    One-Electron Energy =                -862.1410900850262351
    Two-Electron Energy =                 295.3701296339993405
    DFT Exchange-Correlation Energy =     -32.5026354105094057
    Empirical Dispersion Energy =           0.0000000000000000
    VV10 Nonlocal Energy =                  0.0000000000000000
    Total Energy =                       -560.5421449658539359

  UHF NO Occupations:
  HONO-2 :    3 B1 2.0000000
  HONO-1 :    7 A1 2.0000000
  HONO-0 :    8 A1 2.0000000
  LUNO+0 :    9 A1 0.0000000
  LUNO+1 :   10 A1 0.0000000
  LUNO+2 :   11 A1 0.0000000
  LUNO+3 :   12 A1 0.0000000

Computation Completed

Properties will be evaluated at   0.000000,   0.000000,   0.000000 [a0]

Properties computed using the SCF density matrix

 Multipole Moments:

 ------------------------------------------------------------------------------------
     Multipole            Electronic (a.u.)      Nuclear  (a.u.)        Total (a.u.)
 ------------------------------------------------------------------------------------

 L = 1.  Multiply by 2.5417464519 to convert [e a0] to [Debye]
 Dipole X            :          0.0000000            0.0000000            0.0000000
 Dipole Y            :          0.0000000            0.0000000            0.0000000
 Dipole Z            :          2.9602545           -1.3347073            1.6255473
 Magnitude           :                                                    1.6255473

 ------------------------------------------------------------------------------------

*** tstop() called on Joses-MacBook-Pro-2.local at Thu Jul 17 11:15:00 2025
Module time:
	user time   =      15.52 seconds =       0.26 minutes
	system time =       4.20 seconds =       0.07 minutes
	total time  =          2 seconds =       0.03 minutes
Total time:
	user time   =     266.89 seconds =       4.45 minutes
	system time =      88.32 seconds =       1.47 minutes
	total time  =         35 seconds =       0.58 minutes

*** tstart() called on Joses-MacBook-Pro-2.local
*** at Thu Jul 17 11:15:00 2025

         ------------------------------------------------------------
                                   SCF GRAD
                          Rob Parrish, Justin Turney,
                       Andy Simmonett, and Alex Sokolov
         ------------------------------------------------------------

  ==> Geometry <==

    Molecular point group: c2v
    Full point group: C_inf_v

    Geometry (in Angstrom), charge = -1, multiplicity = 1:

       Center              X                  Y                   Z               Mass
    ------------   -----------------  -----------------  -----------------  -----------------
         NA           0.000000000000     0.000000000000     1.398812609054    22.989769282000
         S            0.000000000000     0.000000000000    -1.005827210114    31.972071174400

  Nuclear repulsion =   38.731450895682329

  ==> Basis Set <==

  Basis Set: CC-PVDZ
    Blend: CC-PVDZ
    Number of shells: 16
    Number of basis functions: 36
    Number of Cartesian functions: 38
    Spherical Harmonics?: true
    Max angular momentum: 2

  ==> DFJKGrad: Density-Fitted SCF Gradients <==

    Gradient:                    1
    J tasked:                  Yes
    K tasked:                  Yes
    wK tasked:                  No
    OpenMP threads:              1
    Integrals threads:           1
    Memory [MiB]:              375
    Schwarz Cutoff:          1E-12
    Fitting Condition:       1E-10

   => Auxiliary Basis Set <=

  Basis Set: (CC-PVDZ AUX)
    Blend: CC-PVDZ-JKFIT + DEF2-UNIVERSAL-JKFIT
    Number of shells: 70
    Number of basis functions: 224
    Number of Cartesian functions: 267
    Spherical Harmonics?: true
    Max angular momentum: 4

  ==> DFT Potential <==

   => LibXC <=

    Version 6.2.2
    S. Lehtola, C. Steigemann, M. J.T. Oliveira, and M. A.L. Marques.,  SoftwareX 7, 1â€“5 (2018) (10.1016/j.softx.2017.11.002)

   => Composite Functional: B3LYP <=

    B3LYP Hyb-GGA Exchange-Correlation Functional

    P. J. Stephens, F. J. Devlin, C. F. Chabalowski, and M. J. Frisch.,  J. Phys. Chem. 98, 11623 (1994) (10.1021/j100096a001)

    Deriv               =              1
    GGA                 =           TRUE
    Meta                =          FALSE

    Exchange Hybrid     =           TRUE
    MP2 Hybrid          =          FALSE

   => Exchange Functionals <=

    0.0800   Slater exchange
    0.7200         Becke 88

   => Exact (HF) Exchange <=

    0.2000               HF

   => Correlation Functionals <=

    0.1900   Vosko, Wilk & Nusair (VWN5_RPA)
    0.8100   Lee, Yang & Parr

   => LibXC Density Thresholds  <==

    XC_HYB_GGA_XC_B3LYP:  1.00E-15

   => Molecular Quadrature <=

    Radial Scheme          =       TREUTLER
    Pruning Scheme         =           NONE
    Nuclear Scheme         =       TREUTLER

    Blocking Scheme        =         OCTREE
    BS radius alpha        =              1
    Pruning alpha          =              1
    Radial Points          =             75
    Spherical Points       =            302
    Total Points           =          43837
    Total Blocks           =            443
    Max Points             =            255
    Max Functions          =             36
    Weights Tolerance      =       1.00E-15

  -Total Gradient:
     Atom            X                  Y                   Z
    ------   -----------------  -----------------  -----------------
       1        0.000000000000     0.000000000000    -0.000038499420
       2        0.000000000000     0.000000000000     0.000080098714

*** tstop() called on Joses-MacBook-Pro-2.local at Thu Jul 17 11:15:00 2025
Module time:
	user time   =       2.35 seconds =       0.04 minutes
	system time =       2.51 seconds =       0.04 minutes
	total time  =          0 seconds =       0.00 minutes
Total time:
	user time   =     269.24 seconds =       4.49 minutes
	system time =      90.84 seconds =       1.51 minutes
	total time  =         35 seconds =       0.58 minutes

    			-----------------------------------------

    			 OPTKING 3.0: for geometry optimizations

    			     By R.A. King, Bethel University

    			        with contributions from

    			    A.V. Copan, J. Cayton, A. Heide

    			-----------------------------------------

	                            ===> Fragment 1 <==

	 Z (Atomic Numbers)          Masses                          Geom
	      11.000000            22.989769          0.00000000  0.00000000  2.64337273
	      16.000000            31.972071          0.00000000  0.00000000 -1.90073796

	 - Coordinate -           - BOHR/RAD -       - ANG/DEG -
	 R(1,2)           =         4.544111           2.404640

	        --- Internal Coordinate Step in ANG or DEG, aJ/ANG or AJ/DEG ---
	-------------------------------------------------------------------------------
	           Coordinate      Previous         Force          Change          New
	           ----------      --------        ------          ------        ------
	               R(1,2)       2.40464        0.00049        0.00044       2.40508
	-------------------------------------------------------------------------------

	                                 ==> Convergence Check <==

	Measures of convergence in internal coordinates in au.

	Criteria marked as inactive (o), active & met (*), and active & unmet ( ).

	----------------------------------------------------------------------------------------------
	   Step    Total Energy     Delta E     Max Force     RMS Force      Max Disp      RMS Disp
	----------------------------------------------------------------------------------------------
	  Convergence Criteria     1.00e-06 *    3.00e-04 *             o    1.20e-03 *             o
	----------------------------------------------------------------------------------------------
	    15    -560.54214497   -3.53e-07 *    5.93e-05 *    5.93e-05 o    8.32e-04 *    8.32e-04 o  ~
	----------------------------------------------------------------------------------------------

Next Geometry in Ang
	Fragment 1 (Ang)

	   Na   0.0000000000   0.0000000000   1.3990326470
	    S   0.0000000000   0.0000000000  -1.0060472481

    Final optimized geometry and variables:
    Molecular point group: c2v
    Full point group: C_inf_v

    Geometry (in Angstrom), charge = -1, multiplicity = 1:

    NA           0.000000000000     0.000000000000     1.398812609054
    S            0.000000000000     0.000000000000    -1.005827210114

    Psi4 stopped on: Thursday, 17 July 2025 11:15AM
    Psi4 wall time for execution: 0:00:35.90

*** Psi4 exiting successfully. Buy a developer a beer!
