                               Psi4 1.9.1 release

  ==> Input File <==

--------------------------------------------------------------------------
molecule {
-1 1
Ne   0.00000        0.60000        0.00000
P   0.00000       -0.60000        0.00000
}

set {
basis              cc-pvdz
reference          uks
maxiter            500
geom_maxiter       500
DAMPING_PERCENTAGE 1
guess              SAP
}

optimize('b3lyp')
--------------------------------------------------------------------------

    Molecular point group: c2v
  Charge       = -1
  Multiplicity = 1
  Basis Set: CC-PVDZ
    Blend: CC-PVDZ
  Basis Set: (CC-PVDZ AUX)
    Blend: CC-PVDZ-JKFIT
  @DF-UKS Final Energy:  -469.58629684332317
    Total Energy =                       -469.5862968433231686
 Dipole X            :          0.0000000            0.0000000            0.0000000
 Dipole Y            :          0.0000000            0.0000000            0.0000000
 Dipole Z            :          1.9606213            0.4383075            2.3989288
 Magnitude           :                                                    2.3989288
    Molecular point group: c2v
  Basis Set: CC-PVDZ
    Blend: CC-PVDZ
  Basis Set: (CC-PVDZ AUX)
    Blend: CC-PVDZ-JKFIT
  Basis Set: CC-PVDZ
    Blend: CC-PVDZ
  Basis Set: (CC-PVDZ AUX)
    Blend: CC-PVDZ-JKFIT
  @DF-UKS Final Energy:  -469.83294631026115
    Total Energy =                       -469.8329463102611498
  Basis Set: CC-PVDZ
    Blend: CC-PVDZ
  Basis Set: (CC-PVDZ AUX)
    Blend: CC-PVDZ-JKFIT
  Basis Set: CC-PVDZ
    Blend: CC-PVDZ
  @DF-UKS Final Energy:  -469.97094429698456
    Total Energy =                       -469.9709442969845554
  @DF-UKS Final Energy:  -470.04794243722228
    Total Energy =                       -470.0479424372222752
  @DF-UKS Final Energy:  -470.09091878137338
    Total Energy =                       -470.0909187813733752
  @DF-UKS Final Energy:  -470.11459730423411
    Total Energy =                       -470.1145973042341097
  @DF-UKS Final Energy:  -470.12733190990730
    Total Energy =                       -470.1273319099072978
  @DF-UKS Final Energy:  -470.13389294091064
    Total Energy =                       -470.1338929409106413
  @DF-UKS Final Energy:  -470.13704644602507
    Total Energy =                       -470.1370464460250105
  @DF-UKS Final Energy:  -470.13840881780214
    Total Energy =                       -470.1384088178021443
  @DF-UKS Final Energy:  -470.13890680109927
    Total Energy =                       -470.1389068010992673
  @DF-UKS Final Energy:  -470.13904382392155
    Total Energy =                       -470.1390438239214973
  @DF-UKS Final Energy:  -470.13906482299336
    Total Energy =                       -470.1390648229933618
  Basis Set: (CC-PVDZ AUX)
    Blend: CC-PVDZ-JKFIT
  Basis Set: CC-PVDZ
    Blend: CC-PVDZ
  Basis Set: (CC-PVDZ AUX)
    Blend: CC-PVDZ-JKFIT
  @DF-UKS Final Energy:  -470.13906859598751
    Total Energy =                       -470.1390685959875668
  Basis Set: CC-PVDZ
    Blend: CC-PVDZ
  Basis Set: (CC-PVDZ AUX)
    Blend: CC-PVDZ-JKFIT
  Charge       = -1
  Multiplicity = 1
  Basis Set: CC-PVDZ
    Blend: CC-PVDZ
  Basis Set: (CC-PVDZ AUX)
    Blend: CC-PVDZ-JKFIT

    Orbital Energies [Eh]
    ---------------------

    Alpha Occupied:

       1A1   -76.780412     2A1   -30.817464     3A1    -6.243618
       4A1    -4.416799     1B2    -4.398312     1B1    -4.398312
       5A1    -1.281776     6A1    -0.392220     2B1    -0.389808
       2B2    -0.389808     7A1    -0.220593     3B1     0.096523
       3B2     0.096523

    Alpha Virtual:

       8A1     0.130533     9A1     0.633222    10A1     0.701250
       4B2     0.712947     4B1     0.712947    11A1     0.777118
       5B1     0.784770     5B2     0.784770    12A1     0.813144
       1A2     0.813144     6B1     1.515340     6B2     1.515340
      13A1     1.578762    14A1     2.046065     7B1     4.875294
       7B2     4.875294     2A2     4.875628    15A1     4.875861
      16A1     4.876975

    Beta Occupied:

       1A1   -76.780412     2A1   -30.817464     3A1    -6.243618
       4A1    -4.416799     1B2    -4.398312     1B1    -4.398312
       5A1    -1.281776     6A1    -0.392220     2B1    -0.389808
       2B2    -0.389808     7A1    -0.220593     3B1     0.096523
       3B2     0.096523

    Beta Virtual:

       8A1     0.130533     9A1     0.633222    10A1     0.701250
       4B2     0.712947     4B1     0.712947    11A1     0.777118
       5B1     0.784770     5B2     0.784770    12A1     0.813144
       1A2     0.813144     6B1     1.515340     6B2     1.515340
      13A1     1.578762    14A1     2.046065     7B1     4.875294
       7B2     4.875294     2A2     4.875628    15A1     4.875861
      16A1     4.876975

    Final Occupation by Irrep:
             A1    A2    B1    B2
    DOCC [     7,    0,    3,    3 ]
    SOCC [     0,    0,    0,    0 ]
    NA   [     7,    0,    3,    3 ]
    NB   [     7,    0,    3,    3 ]

  @DF-UKS Final Energy:  -470.13906929776761

   => Energetics <=

    Nuclear Repulsion Energy =             27.4358652352304304
    One-Electron Energy =                -715.4052063687502141
    Two-Electron Energy =                 246.8089311047971250
    DFT Exchange-Correlation Energy =     -28.9786592690448757
    Empirical Dispersion Energy =           0.0000000000000000
    VV10 Nonlocal Energy =                  0.0000000000000000
    Total Energy =                       -470.1390692977676053

  UHF NO Occupations:
  HONO-2 :    6 A1 2.0000000
  HONO-1 :    3 B1 2.0000000
  HONO-0 :    7 A1 2.0000000
  LUNO+0 :    8 A1 0.0000000
  LUNO+1 :    9 A1 0.0000000
  LUNO+2 :   10 A1 0.0000000
  LUNO+3 :   11 A1 0.0000000

Computation Completed

Properties will be evaluated at   0.000000,   0.000000,   0.000000 [a0]

Properties computed using the SCF density matrix

 Multipole Moments:

 ------------------------------------------------------------------------------------
     Multipole            Electronic (a.u.)      Nuclear  (a.u.)        Total (a.u.)
 ------------------------------------------------------------------------------------

 L = 1.  Multiply by 2.5417464519 to convert [e a0] to [Debye]
 Dipole X            :          0.0000000            0.0000000            0.0000000
 Dipole Y            :          0.0000000            0.0000000            0.0000000
 Dipole Z            :          1.1421516            1.0567479            2.1988996
 Magnitude           :                                                    2.1988996

 ------------------------------------------------------------------------------------

*** tstop() called on Joses-MacBook-Pro-2.local at Thu Jul 17 11:01:48 2025
Module time:
	user time   =       3.89 seconds =       0.06 minutes
	system time =       3.55 seconds =       0.06 minutes
	total time  =          1 seconds =       0.02 minutes
Total time:
	user time   =      83.02 seconds =       1.38 minutes
	system time =      71.83 seconds =       1.20 minutes
	total time  =         16 seconds =       0.27 minutes

*** tstart() called on Joses-MacBook-Pro-2.local
*** at Thu Jul 17 11:01:48 2025

         ------------------------------------------------------------
                                   SCF GRAD
                          Rob Parrish, Justin Turney,
                       Andy Simmonett, and Alex Sokolov
         ------------------------------------------------------------

  ==> Geometry <==

    Molecular point group: c2v
    Full point group: C_inf_v

    Geometry (in Angstrom), charge = -1, multiplicity = 1:

       Center              X                  Y                   Z               Mass
    ------------   -----------------  -----------------  -----------------  -----------------
         NE           0.000000000000     0.000000000000     1.758269388673    19.992440176200
         P            0.000000000000     0.000000000000    -1.134899130706    30.973761998420

  Nuclear repulsion =   27.435865235230430

  ==> Basis Set <==

  Basis Set: CC-PVDZ
    Blend: CC-PVDZ
    Number of shells: 14
    Number of basis functions: 32
    Number of Cartesian functions: 34
    Spherical Harmonics?: true
    Max angular momentum: 2

  ==> DFJKGrad: Density-Fitted SCF Gradients <==

    Gradient:                    1
    J tasked:                  Yes
    K tasked:                  Yes
    wK tasked:                  No
    OpenMP threads:              1
    Integrals threads:           1
    Memory [MiB]:              375
    Schwarz Cutoff:          1E-12
    Fitting Condition:       1E-10

   => Auxiliary Basis Set <=

  Basis Set: (CC-PVDZ AUX)
    Blend: CC-PVDZ-JKFIT
    Number of shells: 60
    Number of basis functions: 182
    Number of Cartesian functions: 211
    Spherical Harmonics?: true
    Max angular momentum: 3

  ==> DFT Potential <==

   => LibXC <=

    Version 6.2.2
    S. Lehtola, C. Steigemann, M. J.T. Oliveira, and M. A.L. Marques.,  SoftwareX 7, 1â€“5 (2018) (10.1016/j.softx.2017.11.002)

   => Composite Functional: B3LYP <=

    B3LYP Hyb-GGA Exchange-Correlation Functional

    P. J. Stephens, F. J. Devlin, C. F. Chabalowski, and M. J. Frisch.,  J. Phys. Chem. 98, 11623 (1994) (10.1021/j100096a001)

    Deriv               =              1
    GGA                 =           TRUE
    Meta                =          FALSE

    Exchange Hybrid     =           TRUE
    MP2 Hybrid          =          FALSE

   => Exchange Functionals <=

    0.0800   Slater exchange
    0.7200         Becke 88

   => Exact (HF) Exchange <=

    0.2000               HF

   => Correlation Functionals <=

    0.1900   Vosko, Wilk & Nusair (VWN5_RPA)
    0.8100   Lee, Yang & Parr

   => LibXC Density Thresholds  <==

    XC_HYB_GGA_XC_B3LYP:  1.00E-15

   => Molecular Quadrature <=

    Radial Scheme          =       TREUTLER
    Pruning Scheme         =           NONE
    Nuclear Scheme         =       TREUTLER

    Blocking Scheme        =         OCTREE
    BS radius alpha        =              1
    Pruning alpha          =              1
    Radial Points          =             75
    Spherical Points       =            302
    Total Points           =          42803
    Total Blocks           =            388
    Max Points             =            256
    Max Functions          =             32
    Weights Tolerance      =       1.00E-15

  -Total Gradient:
     Atom            X                  Y                   Z
    ------   -----------------  -----------------  -----------------
       1        0.000000000000     0.000000000000    -0.000054733065
       2        0.000000000000     0.000000000000     0.000015903859

*** tstop() called on Joses-MacBook-Pro-2.local at Thu Jul 17 11:01:48 2025
Module time:
	user time   =       1.85 seconds =       0.03 minutes
	system time =       1.30 seconds =       0.02 minutes
	total time  =          0 seconds =       0.00 minutes
Total time:
	user time   =      84.87 seconds =       1.41 minutes
	system time =      73.13 seconds =       1.22 minutes
	total time  =         16 seconds =       0.27 minutes

    			-----------------------------------------

    			 OPTKING 3.0: for geometry optimizations

    			     By R.A. King, Bethel University

    			        with contributions from

    			    A.V. Copan, J. Cayton, A. Heide

    			-----------------------------------------

	                            ===> Fragment 1 <==

	 Z (Atomic Numbers)          Masses                          Geom
	      10.000000            19.992440          0.00000000  0.00000000  3.32264760
	      15.000000            30.973762          0.00000000  0.00000000 -2.14464854

	 - Coordinate -           - BOHR/RAD -       - ANG/DEG -
	 R(1,2)           =         5.467296           2.893169

	        --- Internal Coordinate Step in ANG or DEG, aJ/ANG or AJ/DEG ---
	-------------------------------------------------------------------------------
	           Coordinate      Previous         Force          Change          New
	           ----------      --------        ------          ------        ------
	               R(1,2)       2.89317        0.00029        0.00371       2.89688
	-------------------------------------------------------------------------------

	                                 ==> Convergence Check <==

	Measures of convergence in internal coordinates in au.

	Criteria marked as inactive (o), active & met (*), and active & unmet ( ).

	----------------------------------------------------------------------------------------------
	   Step    Total Energy     Delta E     Max Force     RMS Force      Max Disp      RMS Disp
	----------------------------------------------------------------------------------------------
	  Convergence Criteria     1.00e-06 *    3.00e-04 *             o    1.20e-03 *             o
	----------------------------------------------------------------------------------------------
	    15    -470.13906930   -7.02e-07 *    3.53e-05 *    3.53e-05 o    7.01e-03      7.01e-03 o  ~
	----------------------------------------------------------------------------------------------

Next Geometry in Ang
	Fragment 1 (Ang)

	   Ne   0.0000000000   0.0000000000   1.7601251566
	    P   0.0000000000   0.0000000000  -1.1367548986

    Final optimized geometry and variables:
    Molecular point group: c2v
    Full point group: C_inf_v

    Geometry (in Angstrom), charge = -1, multiplicity = 1:

    NE           0.000000000000     0.000000000000     1.758269388673
    P            0.000000000000     0.000000000000    -1.134899130706

    Psi4 stopped on: Thursday, 17 July 2025 11:01AM
    Psi4 wall time for execution: 0:00:17.31

*** Psi4 exiting successfully. Buy a developer a beer!
