                               Psi4 1.9.1 release

  ==> Input File <==

--------------------------------------------------------------------------
molecule {
-1 1
C   0.00000        0.60000        0.00000
P   0.00000       -0.60000        0.00000
}

set {
basis              cc-pvdz
reference          uks
maxiter            500
geom_maxiter       500
DAMPING_PERCENTAGE 1
guess              SAP
}

optimize('b3lyp')
--------------------------------------------------------------------------

    Molecular point group: c2v
  Charge       = -1
  Multiplicity = 1
  Basis Set: CC-PVDZ
    Blend: CC-PVDZ
  Basis Set: (CC-PVDZ AUX)
    Blend: CC-PVDZ-JKFIT
  @DF-UKS Final Energy:  -379.08989913923438
    Total Energy =                       -379.0898991392343760
 Dipole X            :          0.0000000            0.0000000            0.0000000
 Dipole Y            :          0.0000000            0.0000000            0.0000000
 Dipole Z            :         -1.6165541            0.3083052           -1.3082489
 Magnitude           :                                                    1.3082489
    Molecular point group: c2v
  Basis Set: CC-PVDZ
    Blend: CC-PVDZ
  Basis Set: (CC-PVDZ AUX)
    Blend: CC-PVDZ-JKFIT
  Basis Set: CC-PVDZ
    Blend: CC-PVDZ
  Basis Set: (CC-PVDZ AUX)
    Blend: CC-PVDZ-JKFIT
  @DF-UKS Final Energy:  -379.29300294801243
    Total Energy =                       -379.2930029480124858
  Basis Set: CC-PVDZ
    Blend: CC-PVDZ
  Basis Set: (CC-PVDZ AUX)
    Blend: CC-PVDZ-JKFIT
  Basis Set: CC-PVDZ
    Blend: CC-PVDZ
  @DF-UKS Final Energy:  -379.36889277744137
    Total Energy =                       -379.3688927774413742
  @DF-UKS Final Energy:  -379.38999953900071
    Total Energy =                       -379.3899995390007120
  @DF-UKS Final Energy:  -379.39903086794050
    Total Energy =                       -379.3990308679404961
  @DF-UKS Final Energy:  -379.40100593302441
    Total Energy =                       -379.4010059330243507
  @DF-UKS Final Energy:  -379.40149072523366
    Total Energy =                       -379.4014907252336570
  @DF-UKS Final Energy:  -379.40164206563185
    Total Energy =                       -379.4016420656318473
  Basis Set: (CC-PVDZ AUX)
    Blend: CC-PVDZ-JKFIT
  Basis Set: CC-PVDZ
    Blend: CC-PVDZ
  Basis Set: (CC-PVDZ AUX)
    Blend: CC-PVDZ-JKFIT
  @DF-UKS Final Energy:  -379.40166253431977
    Total Energy =                       -379.4016625343198257
  Basis Set: CC-PVDZ
    Blend: CC-PVDZ
  Basis Set: (CC-PVDZ AUX)
    Blend: CC-PVDZ-JKFIT
  Charge       = -1
  Multiplicity = 1
  Basis Set: CC-PVDZ
    Blend: CC-PVDZ
  Basis Set: (CC-PVDZ AUX)
    Blend: CC-PVDZ-JKFIT

    Orbital Energies [Eh]
    ---------------------

    Alpha Occupied:

       1A1   -76.794627     2A1    -9.944655     3A1    -6.270101
       1B1    -4.431035     1B2    -4.431035     4A1    -4.428745
       5A1    -0.416005     6A1    -0.157550     2B2    -0.007523
       2B1    -0.007523     7A1     0.010286

    Alpha Virtual:

       3B2     0.213958     3B1     0.213958     8A1     0.350501
       9A1     0.603322     4B2     0.656467     4B1     0.656467
      10A1     0.687950    11A1     0.738872    12A1     0.741432
       1A2     0.741432     5B2     0.792346     5B1     0.792346
       6B2     0.825612     6B1     0.825612    13A1     1.123552
      14A1     1.285782    15A1     1.474952     2A2     1.474952
       7B2     1.723400     7B1     1.723400    16A1     2.090009

    Beta Occupied:

       1A1   -76.794627     2A1    -9.944655     3A1    -6.270101
       1B1    -4.431035     1B2    -4.431035     4A1    -4.428745
       5A1    -0.416005     6A1    -0.157550     2B2    -0.007523
       2B1    -0.007523     7A1     0.010286

    Beta Virtual:

       3B2     0.213958     3B1     0.213958     8A1     0.350501
       9A1     0.603322     4B2     0.656467     4B1     0.656467
      10A1     0.687950    11A1     0.738872    12A1     0.741432
       1A2     0.741432     5B2     0.792346     5B1     0.792346
       6B2     0.825612     6B1     0.825612    13A1     1.123552
      14A1     1.285782    15A1     1.474952     2A2     1.474952
       7B2     1.723400     7B1     1.723400    16A1     2.090009

    Final Occupation by Irrep:
             A1    A2    B1    B2
    DOCC [     7,    0,    2,    2 ]
    SOCC [     0,    0,    0,    0 ]
    NA   [     7,    0,    2,    2 ]
    NB   [     7,    0,    2,    2 ]

  @DF-UKS Final Energy:  -379.40166378771539

   => Energetics <=

    Nuclear Repulsion Energy =             29.5018037313400932
    One-Electron Energy =                -587.4831755791024079
    Two-Electron Energy =                 201.7983992414477257
    DFT Exchange-Correlation Energy =     -23.2186911814008567
    Empirical Dispersion Energy =           0.0000000000000000
    VV10 Nonlocal Energy =                  0.0000000000000000
    Total Energy =                       -379.4016637877153926

  UHF NO Occupations:
  HONO-2 :    5 A1 2.0000000
  HONO-1 :    6 A1 2.0000000
  HONO-0 :    7 A1 2.0000000
  LUNO+0 :    8 A1 0.0000000
  LUNO+1 :    9 A1 0.0000000
  LUNO+2 :    3 B2 0.0000000
  LUNO+3 :   10 A1 0.0000000

Computation Completed

Properties will be evaluated at   0.000000,   0.000000,   0.000000 [a0]

Properties computed using the SCF density matrix

 Multipole Moments:

 ------------------------------------------------------------------------------------
     Multipole            Electronic (a.u.)      Nuclear  (a.u.)        Total (a.u.)
 ------------------------------------------------------------------------------------

 L = 1.  Multiply by 2.5417464519 to convert [e a0] to [Debye]
 Dipole X            :          0.0000000            0.0000000            0.0000000
 Dipole Y            :          0.0000000            0.0000000            0.0000000
 Dipole Z            :         -1.4187212            0.4147579           -1.0039633
 Magnitude           :                                                    1.0039633

 ------------------------------------------------------------------------------------

*** tstop() called on Joses-MacBook-Pro-2.local at Thu Jul 17 10:21:10 2025
Module time:
	user time   =       2.50 seconds =       0.04 minutes
	system time =       4.13 seconds =       0.07 minutes
	total time  =          1 seconds =       0.02 minutes
Total time:
	user time   =      51.67 seconds =       0.86 minutes
	system time =      48.73 seconds =       0.81 minutes
	total time  =         11 seconds =       0.18 minutes

*** tstart() called on Joses-MacBook-Pro-2.local
*** at Thu Jul 17 10:21:10 2025

         ------------------------------------------------------------
                                   SCF GRAD
                          Rob Parrish, Justin Turney,
                       Andy Simmonett, and Alex Sokolov
         ------------------------------------------------------------

  ==> Geometry <==

    Molecular point group: c2v
    Full point group: C_inf_v

    Geometry (in Angstrom), charge = -1, multiplicity = 1:

       Center              X                  Y                   Z               Mass
    ------------   -----------------  -----------------  -----------------  -----------------
         C            0.000000000000     0.000000000000     1.163551620789    12.000000000000
         P            0.000000000000     0.000000000000    -0.450788620710    30.973761998420

  Nuclear repulsion =   29.501803731340093

  ==> Basis Set <==

  Basis Set: CC-PVDZ
    Blend: CC-PVDZ
    Number of shells: 14
    Number of basis functions: 32
    Number of Cartesian functions: 34
    Spherical Harmonics?: true
    Max angular momentum: 2

  ==> DFJKGrad: Density-Fitted SCF Gradients <==

    Gradient:                    1
    J tasked:                  Yes
    K tasked:                  Yes
    wK tasked:                  No
    OpenMP threads:              1
    Integrals threads:           1
    Memory [MiB]:              375
    Schwarz Cutoff:          1E-12
    Fitting Condition:       1E-10

   => Auxiliary Basis Set <=

  Basis Set: (CC-PVDZ AUX)
    Blend: CC-PVDZ-JKFIT
    Number of shells: 60
    Number of basis functions: 182
    Number of Cartesian functions: 211
    Spherical Harmonics?: true
    Max angular momentum: 3

  ==> DFT Potential <==

   => LibXC <=

    Version 6.2.2
    S. Lehtola, C. Steigemann, M. J.T. Oliveira, and M. A.L. Marques.,  SoftwareX 7, 1â€“5 (2018) (10.1016/j.softx.2017.11.002)

   => Composite Functional: B3LYP <=

    B3LYP Hyb-GGA Exchange-Correlation Functional

    P. J. Stephens, F. J. Devlin, C. F. Chabalowski, and M. J. Frisch.,  J. Phys. Chem. 98, 11623 (1994) (10.1021/j100096a001)

    Deriv               =              1
    GGA                 =           TRUE
    Meta                =          FALSE

    Exchange Hybrid     =           TRUE
    MP2 Hybrid          =          FALSE

   => Exchange Functionals <=

    0.0800   Slater exchange
    0.7200         Becke 88

   => Exact (HF) Exchange <=

    0.2000               HF

   => Correlation Functionals <=

    0.1900   Vosko, Wilk & Nusair (VWN5_RPA)
    0.8100   Lee, Yang & Parr

   => LibXC Density Thresholds  <==

    XC_HYB_GGA_XC_B3LYP:  1.00E-15

   => Molecular Quadrature <=

    Radial Scheme          =       TREUTLER
    Pruning Scheme         =           NONE
    Nuclear Scheme         =       TREUTLER

    Blocking Scheme        =         OCTREE
    BS radius alpha        =              1
    Pruning alpha          =              1
    Radial Points          =             75
    Spherical Points       =            302
    Total Points           =          41896
    Total Blocks           =            377
    Max Points             =            256
    Max Functions          =             32
    Weights Tolerance      =       1.00E-15

  -Total Gradient:
     Atom            X                  Y                   Z
    ------   -----------------  -----------------  -----------------
       1        0.000000000000     0.000000000000    -0.000149955134
       2        0.000000000000    -0.000000000000     0.000131950425

*** tstop() called on Joses-MacBook-Pro-2.local at Thu Jul 17 10:21:10 2025
Module time:
	user time   =       1.08 seconds =       0.02 minutes
	system time =       1.19 seconds =       0.02 minutes
	total time  =          0 seconds =       0.00 minutes
Total time:
	user time   =      52.76 seconds =       0.88 minutes
	system time =      49.92 seconds =       0.83 minutes
	total time  =         11 seconds =       0.18 minutes

    			-----------------------------------------

    			 OPTKING 3.0: for geometry optimizations

    			     By R.A. King, Bethel University

    			        with contributions from

    			    A.V. Copan, J. Cayton, A. Heide

    			-----------------------------------------

	                            ===> Fragment 1 <==

	 Z (Atomic Numbers)          Masses                          Geom
	       6.000000            12.000000          0.00000000  0.00000000  2.19879390
	      15.000000            30.973762          0.00000000  0.00000000 -0.85186703

	 - Coordinate -           - BOHR/RAD -       - ANG/DEG -
	 R(1,2)           =         3.050661           1.614340

	        --- Internal Coordinate Step in ANG or DEG, aJ/ANG or AJ/DEG ---
	-------------------------------------------------------------------------------
	           Coordinate      Previous         Force          Change          New
	           ----------      --------        ------          ------        ------
	               R(1,2)       1.61434        0.00116        0.00015       1.61449
	-------------------------------------------------------------------------------

	                                 ==> Convergence Check <==

	Measures of convergence in internal coordinates in au.

	Criteria marked as inactive (o), active & met (*), and active & unmet ( ).

	----------------------------------------------------------------------------------------------
	   Step    Total Energy     Delta E     Max Force     RMS Force      Max Disp      RMS Disp
	----------------------------------------------------------------------------------------------
	  Convergence Criteria     1.00e-06 *    3.00e-04 *             o    1.20e-03 *             o
	----------------------------------------------------------------------------------------------
	    10    -379.40166379   -1.25e-06      1.41e-04 *    1.41e-04 o    2.81e-04 *    2.81e-04 o  ~
	----------------------------------------------------------------------------------------------

Next Geometry in Ang
	Fragment 1 (Ang)

	    C   0.0000000000   0.0000000000   1.1636260720
	    P   0.0000000000   0.0000000000  -0.4508630719

    Final optimized geometry and variables:
    Molecular point group: c2v
    Full point group: C_inf_v

    Geometry (in Angstrom), charge = -1, multiplicity = 1:

    C            0.000000000000     0.000000000000     1.163551620789
    P            0.000000000000     0.000000000000    -0.450788620710

    Psi4 stopped on: Thursday, 17 July 2025 10:21AM
    Psi4 wall time for execution: 0:00:11.24

*** Psi4 exiting successfully. Buy a developer a beer!
