                               Psi4 1.9.1 release

  ==> Input File <==

--------------------------------------------------------------------------
molecule {
-1 1
F   0.00000        0.60000        0.00000
S   0.00000       -0.60000        0.00000
}

set {
basis              cc-pvdz
reference          uks
maxiter            500
geom_maxiter       500
DAMPING_PERCENTAGE 1
guess              SAP
}

optimize('b3lyp')
--------------------------------------------------------------------------

    Molecular point group: c2v
  Charge       = -1
  Multiplicity = 1
  Basis Set: CC-PVDZ
    Blend: CC-PVDZ
  Basis Set: (CC-PVDZ AUX)
    Blend: CC-PVDZ-JKFIT
  @DF-UKS Final Energy:  -497.68822819897929
    Total Energy =                       -497.6882281989792887
 Dipole X            :          0.0000000            0.0000000            0.0000000
 Dipole Y            :          0.0000000            0.0000000            0.0000000
 Dipole Z            :          1.9618437           -0.7218847            1.2399591
 Magnitude           :                                                    1.2399591
    Molecular point group: c2v
  Basis Set: CC-PVDZ
    Blend: CC-PVDZ
  Basis Set: (CC-PVDZ AUX)
    Blend: CC-PVDZ-JKFIT
  Basis Set: CC-PVDZ
    Blend: CC-PVDZ
  Basis Set: (CC-PVDZ AUX)
    Blend: CC-PVDZ-JKFIT
  @DF-UKS Final Energy:  -497.87919354183316
    Total Energy =                       -497.8791935418331605
  Basis Set: CC-PVDZ
    Blend: CC-PVDZ
  Basis Set: (CC-PVDZ AUX)
    Blend: CC-PVDZ-JKFIT
  Basis Set: CC-PVDZ
    Blend: CC-PVDZ
  @DF-UKS Final Energy:  -497.97359514799302
    Total Energy =                       -497.9735951479930236
  @DF-UKS Final Energy:  -498.00649507763575
    Total Energy =                       -498.0064950776357477
  @DF-UKS Final Energy:  -498.02492837114414
    Total Energy =                       -498.0249283711441421
  @DF-UKS Final Energy:  -498.03305926195611
    Total Energy =                       -498.0330592619561116
  @DF-UKS Final Energy:  -498.03512272759531
    Total Energy =                       -498.0351227275953079
  @DF-UKS Final Energy:  -498.03582320644148
    Total Energy =                       -498.0358232064414779
  @DF-UKS Final Energy:  -498.03596656146397
    Total Energy =                       -498.0359665614639653
  @DF-UKS Final Energy:  -498.03600203695419
    Total Energy =                       -498.0360020369541871
  Basis Set: (CC-PVDZ AUX)
    Blend: CC-PVDZ-JKFIT
  Basis Set: CC-PVDZ
    Blend: CC-PVDZ
  Basis Set: (CC-PVDZ AUX)
    Blend: CC-PVDZ-JKFIT
  @DF-UKS Final Energy:  -498.03600641017539
    Total Energy =                       -498.0360064101753892
  Basis Set: CC-PVDZ
    Blend: CC-PVDZ
  Basis Set: (CC-PVDZ AUX)
    Blend: CC-PVDZ-JKFIT
  Charge       = -1
  Multiplicity = 1
  Basis Set: CC-PVDZ
    Blend: CC-PVDZ
  Basis Set: (CC-PVDZ AUX)
    Blend: CC-PVDZ-JKFIT

    Orbital Energies [Eh]
    ---------------------

    Alpha Occupied:

       1A1   -88.595960     2A1   -24.391591     3A1    -7.650903
       4A1    -5.621984     1B1    -5.605710     1B2    -5.605710
       5A1    -0.863179     6A1    -0.369184     7A1    -0.148724
       2B2    -0.124415     2B1    -0.124415     3B2     0.051626
       3B1     0.051626

    Alpha Virtual:

       8A1     0.217686     9A1     0.734354    10A1     0.753224
       4B1     0.769175     4B2     0.769175     5B2     0.894800
       5B1     0.894800     1A2     0.912797    11A1     0.912798
      12A1     1.055066     6B2     1.490450     6B1     1.490450
      13A1     1.514302    14A1     2.326272     2A2     3.870830
      15A1     3.870938     7B2     3.872147     7B1     3.872147
      16A1     4.008819

    Beta Occupied:

       1A1   -88.595960     2A1   -24.391591     3A1    -7.650903
       4A1    -5.621984     1B1    -5.605710     1B2    -5.605710
       5A1    -0.863179     6A1    -0.369184     7A1    -0.148724
       2B2    -0.124415     2B1    -0.124415     3B2     0.051626
       3B1     0.051626

    Beta Virtual:

       8A1     0.217686     9A1     0.734354    10A1     0.753224
       4B1     0.769175     4B2     0.769175     5B2     0.894800
       5B1     0.894800     1A2     0.912797    11A1     0.912798
      12A1     1.055066     6B2     1.490450     6B1     1.490450
      13A1     1.514302    14A1     2.326272     2A2     3.870830
      15A1     3.870938     7B2     3.872147     7B1     3.872147
      16A1     4.008819

    Final Occupation by Irrep:
             A1    A2    B1    B2
    DOCC [     7,    0,    3,    3 ]
    SOCC [     0,    0,    0,    0 ]
    NA   [     7,    0,    3,    3 ]
    NB   [     7,    0,    3,    3 ]

  @DF-UKS Final Energy:  -498.03600656192839

   => Energetics <=

    Nuclear Repulsion Energy =             42.7735795924093622
    One-Electron Energy =                -782.6860202704065159
    Two-Electron Energy =                 271.2442565983144505
    DFT Exchange-Correlation Energy =     -29.3678224822456428
    Empirical Dispersion Energy =           0.0000000000000000
    VV10 Nonlocal Energy =                  0.0000000000000000
    Total Energy =                       -498.0360065619283887

  UHF NO Occupations:
  HONO-2 :    3 B2 2.0000000
  HONO-1 :    3 B1 2.0000000
  HONO-0 :    7 A1 2.0000000
  LUNO+0 :    8 A1 0.0000000
  LUNO+1 :    4 B1 0.0000000
  LUNO+2 :    9 A1 0.0000000
  LUNO+3 :    4 B2 0.0000000

Computation Completed

Properties will be evaluated at   0.000000,   0.000000,   0.000000 [a0]

Properties computed using the SCF density matrix

 Multipole Moments:

 ------------------------------------------------------------------------------------
     Multipole            Electronic (a.u.)      Nuclear  (a.u.)        Total (a.u.)
 ------------------------------------------------------------------------------------

 L = 1.  Multiply by 2.5417464519 to convert [e a0] to [Debye]
 Dipole X            :          0.0000000            0.0000000            0.0000000
 Dipole Y            :          0.0000000            0.0000000            0.0000000
 Dipole Z            :          1.2636502           -1.0717034            0.1919468
 Magnitude           :                                                    0.1919468

 ------------------------------------------------------------------------------------

*** tstop() called on Joses-MacBook-Pro-2.local at Thu Jul 17 10:55:04 2025
Module time:
	user time   =       3.33 seconds =       0.06 minutes
	system time =       2.58 seconds =       0.04 minutes
	total time  =          0 seconds =       0.00 minutes
Total time:
	user time   =      52.97 seconds =       0.88 minutes
	system time =      65.51 seconds =       1.09 minutes
	total time  =         11 seconds =       0.18 minutes

*** tstart() called on Joses-MacBook-Pro-2.local
*** at Thu Jul 17 10:55:04 2025

         ------------------------------------------------------------
                                   SCF GRAD
                          Rob Parrish, Justin Turney,
                       Andy Simmonett, and Alex Sokolov
         ------------------------------------------------------------

  ==> Geometry <==

    Molecular point group: c2v
    Full point group: C_inf_v

    Geometry (in Angstrom), charge = -1, multiplicity = 1:

       Center              X                  Y                   Z               Mass
    ------------   -----------------  -----------------  -----------------  -----------------
         F            0.000000000000     0.000000000000     1.117480939328    18.998403162730
         S            0.000000000000     0.000000000000    -0.664028091775    31.972071174400

  Nuclear repulsion =   42.773579592409362

  ==> Basis Set <==

  Basis Set: CC-PVDZ
    Blend: CC-PVDZ
    Number of shells: 14
    Number of basis functions: 32
    Number of Cartesian functions: 34
    Spherical Harmonics?: true
    Max angular momentum: 2

  ==> DFJKGrad: Density-Fitted SCF Gradients <==

    Gradient:                    1
    J tasked:                  Yes
    K tasked:                  Yes
    wK tasked:                  No
    OpenMP threads:              1
    Integrals threads:           1
    Memory [MiB]:              375
    Schwarz Cutoff:          1E-12
    Fitting Condition:       1E-10

   => Auxiliary Basis Set <=

  Basis Set: (CC-PVDZ AUX)
    Blend: CC-PVDZ-JKFIT
    Number of shells: 60
    Number of basis functions: 182
    Number of Cartesian functions: 211
    Spherical Harmonics?: true
    Max angular momentum: 3

  ==> DFT Potential <==

   => LibXC <=

    Version 6.2.2
    S. Lehtola, C. Steigemann, M. J.T. Oliveira, and M. A.L. Marques.,  SoftwareX 7, 1â€“5 (2018) (10.1016/j.softx.2017.11.002)

   => Composite Functional: B3LYP <=

    B3LYP Hyb-GGA Exchange-Correlation Functional

    P. J. Stephens, F. J. Devlin, C. F. Chabalowski, and M. J. Frisch.,  J. Phys. Chem. 98, 11623 (1994) (10.1021/j100096a001)

    Deriv               =              1
    GGA                 =           TRUE
    Meta                =          FALSE

    Exchange Hybrid     =           TRUE
    MP2 Hybrid          =          FALSE

   => Exchange Functionals <=

    0.0800   Slater exchange
    0.7200         Becke 88

   => Exact (HF) Exchange <=

    0.2000               HF

   => Correlation Functionals <=

    0.1900   Vosko, Wilk & Nusair (VWN5_RPA)
    0.8100   Lee, Yang & Parr

   => LibXC Density Thresholds  <==

    XC_HYB_GGA_XC_B3LYP:  1.00E-15

   => Molecular Quadrature <=

    Radial Scheme          =       TREUTLER
    Pruning Scheme         =           NONE
    Nuclear Scheme         =       TREUTLER

    Blocking Scheme        =         OCTREE
    BS radius alpha        =              1
    Pruning alpha          =              1
    Radial Points          =             75
    Spherical Points       =            302
    Total Points           =          42173
    Total Blocks           =            375
    Max Points             =            256
    Max Functions          =             32
    Weights Tolerance      =       1.00E-15

  -Total Gradient:
     Atom            X                  Y                   Z
    ------   -----------------  -----------------  -----------------
       1        0.000000000000    -0.000000000000    -0.000069406075
       2        0.000000000000     0.000000000000    -0.000003353599

*** tstop() called on Joses-MacBook-Pro-2.local at Thu Jul 17 10:55:05 2025
Module time:
	user time   =       0.74 seconds =       0.01 minutes
	system time =       1.56 seconds =       0.03 minutes
	total time  =          1 seconds =       0.02 minutes
Total time:
	user time   =      53.71 seconds =       0.90 minutes
	system time =      67.08 seconds =       1.12 minutes
	total time  =         12 seconds =       0.20 minutes

    			-----------------------------------------

    			 OPTKING 3.0: for geometry optimizations

    			     By R.A. King, Bethel University

    			        with contributions from

    			    A.V. Copan, J. Cayton, A. Heide

    			-----------------------------------------

	                            ===> Fragment 1 <==

	 Z (Atomic Numbers)          Masses                          Geom
	       9.000000            18.998403          0.00000000  0.00000000  2.11173293
	      16.000000            31.972071          0.00000000  0.00000000 -1.25483123

	 - Coordinate -           - BOHR/RAD -       - ANG/DEG -
	 R(1,2)           =         3.366564           1.781509

	        --- Internal Coordinate Step in ANG or DEG, aJ/ANG or AJ/DEG ---
	-------------------------------------------------------------------------------
	           Coordinate      Previous         Force          Change          New
	           ----------      --------        ------          ------        ------
	               R(1,2)       1.78151        0.00027        0.00009       1.78160
	-------------------------------------------------------------------------------

	                                 ==> Convergence Check <==

	Measures of convergence in internal coordinates in au.

	Criteria marked as inactive (o), active & met (*), and active & unmet ( ).

	----------------------------------------------------------------------------------------------
	   Step    Total Energy     Delta E     Max Force     RMS Force      Max Disp      RMS Disp
	----------------------------------------------------------------------------------------------
	  Convergence Criteria     1.00e-06 *    3.00e-04 *             o    1.20e-03 *             o
	----------------------------------------------------------------------------------------------
	    12    -498.03600656   -1.52e-07 *    3.30e-05 *    3.30e-05 o    1.75e-04 *    1.75e-04 o  ~
	----------------------------------------------------------------------------------------------

Next Geometry in Ang
	Fragment 1 (Ang)

	    F   0.0000000000   0.0000000000   1.1175271493
	    S   0.0000000000   0.0000000000  -0.6640743017

    Final optimized geometry and variables:
    Molecular point group: c2v
    Full point group: C_inf_v

    Geometry (in Angstrom), charge = -1, multiplicity = 1:

    F            0.000000000000     0.000000000000     1.117480939328
    S            0.000000000000     0.000000000000    -0.664028091775

    Psi4 stopped on: Thursday, 17 July 2025 10:55AM
    Psi4 wall time for execution: 0:00:12.14

*** Psi4 exiting successfully. Buy a developer a beer!
