                               Psi4 1.9.1 release

  ==> Input File <==

--------------------------------------------------------------------------
molecule {
-1 1
Na   0.00000        0.60000        0.00000
Ar   0.00000       -0.60000        0.00000
}

set {
basis              cc-pvdz
reference          uks
maxiter            500
geom_maxiter       500
DAMPING_PERCENTAGE 1
guess              SAP
}

optimize('b3lyp')
--------------------------------------------------------------------------

    Molecular point group: c2v
  Charge       = -1
  Multiplicity = 1
  Basis Set: CC-PVDZ
    Blend: CC-PVDZ
  Basis Set: (CC-PVDZ AUX)
    Blend: CC-PVDZ-JKFIT + DEF2-UNIVERSAL-JKFIT
  @DF-UKS Final Energy:  -688.62503555473597
    Total Energy =                       -688.6250355547359732
 Dipole X            :          0.0000000            0.0000000            0.0000000
 Dipole Y            :          0.0000000            0.0000000            0.0000000
 Dipole Z            :         -2.7175523            0.9283038           -1.7892485
 Magnitude           :                                                    1.7892485
    Molecular point group: c2v
  Basis Set: CC-PVDZ
    Blend: CC-PVDZ
  Basis Set: (CC-PVDZ AUX)
    Blend: CC-PVDZ-JKFIT + DEF2-UNIVERSAL-JKFIT
  Basis Set: CC-PVDZ
    Blend: CC-PVDZ
  Basis Set: (CC-PVDZ AUX)
    Blend: CC-PVDZ-JKFIT + DEF2-UNIVERSAL-JKFIT
  @DF-UKS Final Energy:  -688.64847559841110
    Total Energy =                       -688.6484755984110961
  Basis Set: CC-PVDZ
    Blend: CC-PVDZ
  Basis Set: (CC-PVDZ AUX)
    Blend: CC-PVDZ-JKFIT + DEF2-UNIVERSAL-JKFIT
  Basis Set: CC-PVDZ
    Blend: CC-PVDZ
  @DF-UKS Final Energy:  -688.69333998951959
    Total Energy =                       -688.6933399895195862
  @DF-UKS Final Energy:  -688.85187881243348
    Total Energy =                       -688.8518788124333696
  @DF-UKS Final Energy:  -689.41925625453996
    Total Energy =                       -689.4192562545399596
  @DF-UKS Final Energy:  -689.61886013409435
    Total Energy =                       -689.6188601340942341
  @DF-UKS Final Energy:  -689.72451854001906
    Total Energy =                       -689.7245185400191758
  @DF-UKS Final Energy:  -689.77790095279931
    Total Energy =                       -689.7779009527993139
  @DF-UKS Final Energy:  -689.80641306069742
    Total Energy =                       -689.8064130606974231
  @DF-UKS Final Energy:  -689.82207684848890
    Total Energy =                       -689.8220768484889049
  @DF-UKS Final Energy:  -689.83112777019880
    Total Energy =                       -689.8311277701988047
  @DF-UKS Final Energy:  -689.83675049058797
    Total Energy =                       -689.8367504905880878
  @DF-UKS Final Energy:  -689.84064582865142
    Total Energy =                       -689.8406458286513043
  @DF-UKS Final Energy:  -689.84363589877569
    Total Energy =                       -689.8436358987756876
  @DF-UKS Final Energy:  -689.84367253389746
    Total Energy =                       -689.8436725338974611
  @DF-UKS Final Energy:  -689.84624749344403
    Total Energy =                       -689.8462474934440252
  @DF-UKS Final Energy:  -689.84626356769843
    Total Energy =                       -689.8462635676983155
  @DF-UKS Final Energy:  -689.84627953670099
    Total Energy =                       -689.8462795367008766
  @DF-UKS Final Energy:  -689.84784886782188
    Total Energy =                       -689.8478488678217673
  @DF-UKS Final Energy:  -689.84785576459046
    Total Energy =                       -689.8478557645905767
  @DF-UKS Final Energy:  -689.84975084586767
    Total Energy =                       -689.8497508458676748
  @DF-UKS Final Energy:  -689.84975127258292
    Total Energy =                       -689.8497512725829210
  @DF-UKS Final Energy:  -689.84975166727577
    Total Energy =                       -689.8497516672757683
  @DF-UKS Final Energy:  -689.84975206126751
    Total Energy =                       -689.8497520612675089
  @DF-UKS Final Energy:  -689.84975245462056
    Total Energy =                       -689.8497524546205568
  @DF-UKS Final Energy:  -689.84975284729319
    Total Energy =                       -689.8497528472930753
  @DF-UKS Final Energy:  -689.84975323924834
    Total Energy =                       -689.8497532392483436
  @DF-UKS Final Energy:  -689.84975363063222
    Total Energy =                       -689.8497536306321081
  @DF-UKS Final Energy:  -689.84975402135592
    Total Energy =                       -689.8497540213559205
  @DF-UKS Final Energy:  -689.84975441130211
    Total Energy =                       -689.8497544113022286
  @DF-UKS Final Energy:  -689.84975480066646
    Total Energy =                       -689.8497548006664601
  @DF-UKS Final Energy:  -689.84975518944429
    Total Energy =                       -689.8497551894442950
  @DF-UKS Final Energy:  -689.84975557748510
    Total Energy =                       -689.8497555774850980
  @DF-UKS Final Energy:  -689.84975596491927
    Total Energy =                       -689.8497559649192681
  @DF-UKS Final Energy:  -689.84975635162300
    Total Energy =                       -689.8497563516230002
  @DF-UKS Final Energy:  -689.84975673782981
    Total Energy =                       -689.8497567378298072
  @DF-UKS Final Energy:  -689.84975712328264
    Total Energy =                       -689.8497571232826431
  @DF-UKS Final Energy:  -689.84975750819854
    Total Energy =                       -689.8497575081985360
  Basis Set: (CC-PVDZ AUX)
    Blend: CC-PVDZ-JKFIT + DEF2-UNIVERSAL-JKFIT
  Basis Set: CC-PVDZ
    Blend: CC-PVDZ
  Basis Set: (CC-PVDZ AUX)
    Blend: CC-PVDZ-JKFIT + DEF2-UNIVERSAL-JKFIT
  @DF-UKS Final Energy:  -689.84975789240218
    Total Energy =                       -689.8497578924021809
  Basis Set: CC-PVDZ
    Blend: CC-PVDZ
  Basis Set: (CC-PVDZ AUX)
    Blend: CC-PVDZ-JKFIT + DEF2-UNIVERSAL-JKFIT
  Charge       = -1
  Multiplicity = 1
  Basis Set: CC-PVDZ
    Blend: CC-PVDZ
  Basis Set: (CC-PVDZ AUX)
    Blend: CC-PVDZ-JKFIT + DEF2-UNIVERSAL-JKFIT

    Orbital Energies [Eh]
    ---------------------

    Alpha Occupied:

       1A1  -115.003014     2A1   -38.276537     3A1   -11.039054
       1B1    -8.588955     1B2    -8.588955     4A1    -8.588849
       5A1    -2.023818     6A1    -0.955141     2B2    -0.955118
       2B1    -0.955118     7A1    -0.867291     3B2    -0.325438
       3B1    -0.325438     8A1    -0.324191     9A1     0.037149

    Alpha Virtual:

       4B2     0.102689     4B1     0.102689    10A1     0.103748
      11A1     0.186725     5B1     0.223571     5B2     0.223571
      12A1     0.223995    13A1     0.325560     6B1     0.326295
       6B2     0.326295     1A2     0.326355    14A1     0.326355
       7B2     0.679102     7B1     0.679102    15A1     0.689591
      16A1     0.854748     2A2     0.932442    17A1     0.932539
       8B1     0.933232     8B2     0.933232    18A1     0.933728

    Beta Occupied:

       1A1  -115.003014     2A1   -38.276537     3A1   -11.039054
       1B1    -8.588955     1B2    -8.588955     4A1    -8.588849
       5A1    -2.023818     6A1    -0.955141     2B2    -0.955118
       2B1    -0.955118     7A1    -0.867291     3B2    -0.325438
       3B1    -0.325438     8A1    -0.324191     9A1     0.037149

    Beta Virtual:

       4B2     0.102689     4B1     0.102689    10A1     0.103748
      11A1     0.186725     5B1     0.223571     5B2     0.223571
      12A1     0.223995    13A1     0.325560     6B1     0.326295
       6B2     0.326295     1A2     0.326355    14A1     0.326355
       7B2     0.679102     7B1     0.679102    15A1     0.689591
      16A1     0.854748     2A2     0.932442    17A1     0.932539
       8B1     0.933232     8B2     0.933232    18A1     0.933728

    Final Occupation by Irrep:
             A1    A2    B1    B2
    DOCC [     9,    0,    3,    3 ]
    SOCC [     0,    0,    0,    0 ]
    NA   [     9,    0,    3,    3 ]
    NB   [     9,    0,    3,    3 ]

  @DF-UKS Final Energy:  -689.84994225442938

   => Energetics <=

    Nuclear Repulsion Energy =             19.2304849068503394
    One-Electron Energy =                -998.5421691722995092
    Two-Electron Energy =                 326.0807975343393537
    DFT Exchange-Correlation Energy =     -36.6190555233197514
    Empirical Dispersion Energy =           0.0000000000000000
    VV10 Nonlocal Energy =                  0.0000000000000000
    Total Energy =                       -689.8499422544294930

  UHF NO Occupations:
  HONO-2 :    2 B1 2.0000000
  HONO-1 :    3 B2 2.0000000
  HONO-0 :    3 B1 2.0000000
  LUNO+0 :   10 A1 0.0000000
  LUNO+1 :    4 B1 0.0000000
  LUNO+2 :    4 B2 0.0000000
  LUNO+3 :   11 A1 0.0000000

Computation Completed

Properties will be evaluated at   0.000000,   0.000000,   0.000000 [a0]

Properties computed using the SCF density matrix

 Multipole Moments:

 ------------------------------------------------------------------------------------
     Multipole            Electronic (a.u.)      Nuclear  (a.u.)        Total (a.u.)
 ------------------------------------------------------------------------------------

 L = 1.  Multiply by 2.5417464519 to convert [e a0] to [Debye]
 Dipole X            :          0.0000000            0.0000000            0.0000000
 Dipole Y            :          0.0000000            0.0000000            0.0000000
 Dipole Z            :        -10.7936302            4.2148777           -6.5787525
 Magnitude           :                                                    6.5787525

 ------------------------------------------------------------------------------------

*** tstop() called on Joses-MacBook-Pro-2.local at Thu Jul 17 11:20:12 2025
Module time:
	user time   =       5.03 seconds =       0.08 minutes
	system time =       4.23 seconds =       0.07 minutes
	total time  =          1 seconds =       0.02 minutes
Total time:
	user time   =     425.66 seconds =       7.09 minutes
	system time =     341.00 seconds =       5.68 minutes
	total time  =         74 seconds =       1.23 minutes

*** tstart() called on Joses-MacBook-Pro-2.local
*** at Thu Jul 17 11:20:12 2025

         ------------------------------------------------------------
                                   SCF GRAD
                          Rob Parrish, Justin Turney,
                       Andy Simmonett, and Alex Sokolov
         ------------------------------------------------------------

  ==> Geometry <==

    Molecular point group: c2v
    Full point group: C_inf_v

    Geometry (in Angstrom), charge = -1, multiplicity = 1:

       Center              X                  Y                   Z               Mass
    ------------   -----------------  -----------------  -----------------  -----------------
         NA           0.000000000000     0.000000000000     3.458731769812    22.989769282000
         AR           0.000000000000     0.000000000000    -1.989757346307    39.962383123700

  Nuclear repulsion =   19.230484906850339

  ==> Basis Set <==

  Basis Set: CC-PVDZ
    Blend: CC-PVDZ
    Number of shells: 16
    Number of basis functions: 36
    Number of Cartesian functions: 38
    Spherical Harmonics?: true
    Max angular momentum: 2

  ==> DFJKGrad: Density-Fitted SCF Gradients <==

    Gradient:                    1
    J tasked:                  Yes
    K tasked:                  Yes
    wK tasked:                  No
    OpenMP threads:              1
    Integrals threads:           1
    Memory [MiB]:              375
    Schwarz Cutoff:          1E-12
    Fitting Condition:       1E-10

   => Auxiliary Basis Set <=

  Basis Set: (CC-PVDZ AUX)
    Blend: CC-PVDZ-JKFIT + DEF2-UNIVERSAL-JKFIT
    Number of shells: 70
    Number of basis functions: 224
    Number of Cartesian functions: 267
    Spherical Harmonics?: true
    Max angular momentum: 4

  ==> DFT Potential <==

   => LibXC <=

    Version 6.2.2
    S. Lehtola, C. Steigemann, M. J.T. Oliveira, and M. A.L. Marques.,  SoftwareX 7, 1â€“5 (2018) (10.1016/j.softx.2017.11.002)

   => Composite Functional: B3LYP <=

    B3LYP Hyb-GGA Exchange-Correlation Functional

    P. J. Stephens, F. J. Devlin, C. F. Chabalowski, and M. J. Frisch.,  J. Phys. Chem. 98, 11623 (1994) (10.1021/j100096a001)

    Deriv               =              1
    GGA                 =           TRUE
    Meta                =          FALSE

    Exchange Hybrid     =           TRUE
    MP2 Hybrid          =          FALSE

   => Exchange Functionals <=

    0.0800   Slater exchange
    0.7200         Becke 88

   => Exact (HF) Exchange <=

    0.2000               HF

   => Correlation Functionals <=

    0.1900   Vosko, Wilk & Nusair (VWN5_RPA)
    0.8100   Lee, Yang & Parr

   => LibXC Density Thresholds  <==

    XC_HYB_GGA_XC_B3LYP:  1.00E-15

   => Molecular Quadrature <=

    Radial Scheme          =       TREUTLER
    Pruning Scheme         =           NONE
    Nuclear Scheme         =       TREUTLER

    Blocking Scheme        =         OCTREE
    BS radius alpha        =              1
    Pruning alpha          =              1
    Radial Points          =             75
    Spherical Points       =            302
    Total Points           =          43921
    Total Blocks           =            465
    Max Points             =            255
    Max Functions          =             36
    Weights Tolerance      =       1.00E-15

  -Total Gradient:
     Atom            X                  Y                   Z
    ------   -----------------  -----------------  -----------------
       1        0.000000000000    -0.000000000000    -0.000197757158
       2        0.000000000000    -0.000000000000     0.000172510638

*** tstop() called on Joses-MacBook-Pro-2.local at Thu Jul 17 11:20:12 2025
Module time:
	user time   =       1.30 seconds =       0.02 minutes
	system time =       2.32 seconds =       0.04 minutes
	total time  =          0 seconds =       0.00 minutes
Total time:
	user time   =     426.96 seconds =       7.12 minutes
	system time =     343.32 seconds =       5.72 minutes
	total time  =         74 seconds =       1.23 minutes

    			-----------------------------------------

    			 OPTKING 3.0: for geometry optimizations

    			     By R.A. King, Bethel University

    			        with contributions from

    			    A.V. Copan, J. Cayton, A. Heide

    			-----------------------------------------

	                            ===> Fragment 1 <==

	 Z (Atomic Numbers)          Masses                          Geom
	      11.000000            22.989769          0.00000000  0.00000000  6.53605579
	      18.000000            39.962383          0.00000000  0.00000000 -3.76009644

	 - Coordinate -           - BOHR/RAD -       - ANG/DEG -
	 R(1,2)           =        10.296152           5.448489

	        --- Internal Coordinate Step in ANG or DEG, aJ/ANG or AJ/DEG ---
	-------------------------------------------------------------------------------
	           Coordinate      Previous         Force          Change          New
	           ----------      --------        ------          ------        ------
	               R(1,2)       5.44849        0.00153        0.00035       5.44884
	-------------------------------------------------------------------------------

	                                 ==> Convergence Check <==

	Measures of convergence in internal coordinates in au.

	Criteria marked as inactive (o), active & met (*), and active & unmet ( ).

	----------------------------------------------------------------------------------------------
	   Step    Total Energy     Delta E     Max Force     RMS Force      Max Disp      RMS Disp
	----------------------------------------------------------------------------------------------
	  Convergence Criteria     1.00e-06 *    3.00e-04 *             o    1.20e-03 *             o
	----------------------------------------------------------------------------------------------
	    58    -689.84994225   -1.84e-04      1.85e-04 *    1.85e-04 o    6.55e-04 *    6.55e-04 o  ~
	----------------------------------------------------------------------------------------------

Next Geometry in Ang
	Fragment 1 (Ang)

	   Na   0.0000000000   0.0000000000   3.4589050679
	   Ar   0.0000000000   0.0000000000  -1.9899306444

    Final optimized geometry and variables:
    Molecular point group: c2v
    Full point group: C_inf_v

    Geometry (in Angstrom), charge = -1, multiplicity = 1:

    NA           0.000000000000     0.000000000000     3.458731769812
    AR           0.000000000000     0.000000000000    -1.989757346307

    Psi4 stopped on: Thursday, 17 July 2025 11:20AM
    Psi4 wall time for execution: 0:01:14.44

*** Psi4 exiting successfully. Buy a developer a beer!
