                               Psi4 1.9.1 release

  ==> Input File <==

--------------------------------------------------------------------------
molecule {
-1 1
He   0.00000        0.60000        0.00000
Cl   0.00000       -0.60000        0.00000
}

set {
basis              cc-pvdz
reference          uks
maxiter            500
geom_maxiter       500
DAMPING_PERCENTAGE 1
guess              SAP
}

optimize('b3lyp')
--------------------------------------------------------------------------

    Molecular point group: c2v
  Charge       = -1
  Multiplicity = 1
  Basis Set: CC-PVDZ
    Blend: CC-PVDZ
  Basis Set: (CC-PVDZ AUX)
    Blend: CC-PVDZ-JKFIT + DEF2-UNIVERSAL-JKFIT
  @DF-UKS Final Energy:  -462.71777349103968
    Total Energy =                       -462.7177734910397362
 Dipole X            :          0.0000000            0.0000000            0.0000000
 Dipole Y            :          0.0000000            0.0000000            0.0000000
 Dipole Z            :          0.9598474            0.1101761            1.0700235
 Magnitude           :                                                    1.0700235
    Molecular point group: c2v
  Basis Set: CC-PVDZ
    Blend: CC-PVDZ
  Basis Set: (CC-PVDZ AUX)
    Blend: CC-PVDZ-JKFIT + DEF2-UNIVERSAL-JKFIT
  Basis Set: CC-PVDZ
    Blend: CC-PVDZ
  Basis Set: (CC-PVDZ AUX)
    Blend: CC-PVDZ-JKFIT + DEF2-UNIVERSAL-JKFIT
  @DF-UKS Final Energy:  -462.96952479596837
    Total Energy =                       -462.9695247959683684
  Basis Set: CC-PVDZ
    Blend: CC-PVDZ
  Basis Set: (CC-PVDZ AUX)
    Blend: CC-PVDZ-JKFIT + DEF2-UNIVERSAL-JKFIT
  Basis Set: CC-PVDZ
    Blend: CC-PVDZ
  @DF-UKS Final Energy:  -463.06794369560834
    Total Energy =                       -463.0679436956083919
  @DF-UKS Final Energy:  -463.11917737986795
    Total Energy =                       -463.1191773798679492
  @DF-UKS Final Energy:  -463.14528543099260
    Total Energy =                       -463.1452854309926011
  @DF-UKS Final Energy:  -463.15902316675260
    Total Energy =                       -463.1590231667526041
  @DF-UKS Final Energy:  -463.16626589519871
    Total Energy =                       -463.1662658951987055
  @DF-UKS Final Energy:  -463.17006400053185
    Total Energy =                       -463.1700640005319087
  @DF-UKS Final Energy:  -463.17200540452353
    Total Energy =                       -463.1720054045235884
  @DF-UKS Final Energy:  -463.17295242030349
    Total Energy =                       -463.1729524203034316
  @DF-UKS Final Energy:  -463.17338938497744
    Total Energy =                       -463.1733893849773835
  @DF-UKS Final Energy:  -463.17358070231364
    Total Energy =                       -463.1735807023136999
  @DF-UKS Final Energy:  -463.17365949976801
    Total Energy =                       -463.1736594997680072
  @DF-UKS Final Energy:  -463.17369154899370
    Total Energy =                       -463.1736915489937019
  @DF-UKS Final Energy:  -463.17370087716955
    Total Energy =                       -463.1737008771695514
  @DF-UKS Final Energy:  -463.17370484795623
    Total Energy =                       -463.1737048479562304
  Basis Set: (CC-PVDZ AUX)
    Blend: CC-PVDZ-JKFIT + DEF2-UNIVERSAL-JKFIT
  Basis Set: CC-PVDZ
    Blend: CC-PVDZ
  Basis Set: (CC-PVDZ AUX)
    Blend: CC-PVDZ-JKFIT + DEF2-UNIVERSAL-JKFIT
  @DF-UKS Final Energy:  -463.17370599453386
    Total Energy =                       -463.1737059945338615
  Basis Set: CC-PVDZ
    Blend: CC-PVDZ
  Basis Set: (CC-PVDZ AUX)
    Blend: CC-PVDZ-JKFIT + DEF2-UNIVERSAL-JKFIT
  Charge       = -1
  Multiplicity = 1
  Basis Set: CC-PVDZ
    Blend: CC-PVDZ
  Basis Set: (CC-PVDZ AUX)
    Blend: CC-PVDZ-JKFIT + DEF2-UNIVERSAL-JKFIT

    Orbital Energies [Eh]
    ---------------------

    Alpha Occupied:

       1A1  -101.163963     2A1    -9.076535     3A1    -6.833333
       1B2    -6.833330     1B1    -6.833330     4A1    -0.507167
       5A1    -0.422205     6A1     0.028010     2B1     0.028016
       2B2     0.028016

    Alpha Virtual:

       7A1     0.860630     3B2     0.862570     3B1     0.862570
       8A1     0.934244     9A1     1.097726     4B1     1.097753
       4B2     1.097753    10A1     1.097764     1A2     1.097764
      11A1     1.265748     5B2     2.331410     5B1     2.331410
      12A1     2.333347

    Beta Occupied:

       1A1  -101.163963     2A1    -9.076535     3A1    -6.833333
       1B2    -6.833330     1B1    -6.833330     4A1    -0.507167
       5A1    -0.422205     6A1     0.028010     2B1     0.028016
       2B2     0.028016

    Beta Virtual:

       7A1     0.860630     3B1     0.862570     3B2     0.862570
       8A1     0.934244     9A1     1.097726     4B2     1.097753
       4B1     1.097753    10A1     1.097764     1A2     1.097764
      11A1     1.265748     5B2     2.331410     5B1     2.331410
      12A1     2.333347

    Final Occupation by Irrep:
             A1    A2    B1    B2
    DOCC [     6,    0,    2,    2 ]
    SOCC [     0,    0,    0,    0 ]
    NA   [     6,    0,    2,    2 ]
    NB   [     6,    0,    2,    2 ]

  @DF-UKS Final Energy:  -463.17370655235868

   => Energetics <=

    Nuclear Repulsion Energy =              4.8519708608614271
    One-Electron Energy =                -655.9179918643343399
    Two-Electron Energy =                 211.7449979379875913
    DFT Exchange-Correlation Energy =     -23.8526834868734063
    Empirical Dispersion Energy =           0.0000000000000000
    VV10 Nonlocal Energy =                  0.0000000000000000
    Total Energy =                       -463.1737065523586807

  UHF NO Occupations:
  HONO-2 :    4 A1 2.0000000
  HONO-1 :    5 A1 2.0000000
  HONO-0 :    6 A1 2.0000000
  LUNO+0 :    7 A1 0.0000000
  LUNO+1 :    3 B2 0.0000000
  LUNO+2 :    8 A1 0.0000000
  LUNO+3 :    3 B1 0.0000000

Computation Completed

Properties will be evaluated at   0.000000,   0.000000,   0.000000 [a0]

Properties computed using the SCF density matrix

 Multipole Moments:

 ------------------------------------------------------------------------------------
     Multipole            Electronic (a.u.)      Nuclear  (a.u.)        Total (a.u.)
 ------------------------------------------------------------------------------------

 L = 1.  Multiply by 2.5417464519 to convert [e a0] to [Debye]
 Dipole X            :          0.0000000            0.0000000            0.0000000
 Dipole Y            :          0.0000000            0.0000000            0.0000000
 Dipole Z            :          0.3719635            0.3404615            0.7124249
 Magnitude           :                                                    0.7124249

 ------------------------------------------------------------------------------------

*** tstop() called on Joses-MacBook-Pro-2.local at Thu Jul 17 09:25:39 2025
Module time:
	user time   =       1.76 seconds =       0.03 minutes
	system time =       1.88 seconds =       0.03 minutes
	total time  =          0 seconds =       0.00 minutes
Total time:
	user time   =      62.88 seconds =       1.05 minutes
	system time =      72.27 seconds =       1.20 minutes
	total time  =         12 seconds =       0.20 minutes

*** tstart() called on Joses-MacBook-Pro-2.local
*** at Thu Jul 17 09:25:39 2025

         ------------------------------------------------------------
                                   SCF GRAD
                          Rob Parrish, Justin Turney,
                       Andy Simmonett, and Alex Sokolov
         ------------------------------------------------------------

  ==> Geometry <==

    Molecular point group: c2v
    Full point group: C_inf_v

    Geometry (in Angstrom), charge = -1, multiplicity = 1:

       Center              X                  Y                   Z               Mass
    ------------   -----------------  -----------------  -----------------  -----------------
         HE           0.000000000000     0.000000000000     3.327335689665     4.002603254130
         CL           0.000000000000     0.000000000000    -0.380853349126    34.968852682000

  Nuclear repulsion =    4.851970860861427

  ==> Basis Set <==

  Basis Set: CC-PVDZ
    Blend: CC-PVDZ
    Number of shells: 11
    Number of basis functions: 23
    Number of Cartesian functions: 24
    Spherical Harmonics?: true
    Max angular momentum: 2

  ==> DFJKGrad: Density-Fitted SCF Gradients <==

    Gradient:                    1
    J tasked:                  Yes
    K tasked:                  Yes
    wK tasked:                  No
    OpenMP threads:              1
    Integrals threads:           1
    Memory [MiB]:              375
    Schwarz Cutoff:          1E-12
    Fitting Condition:       1E-10

   => Auxiliary Basis Set <=

  Basis Set: (CC-PVDZ AUX)
    Blend: CC-PVDZ-JKFIT + DEF2-UNIVERSAL-JKFIT
    Number of shells: 45
    Number of basis functions: 135
    Number of Cartesian functions: 155
    Spherical Harmonics?: true
    Max angular momentum: 3

  ==> DFT Potential <==

   => LibXC <=

    Version 6.2.2
    S. Lehtola, C. Steigemann, M. J.T. Oliveira, and M. A.L. Marques.,  SoftwareX 7, 1â€“5 (2018) (10.1016/j.softx.2017.11.002)

   => Composite Functional: B3LYP <=

    B3LYP Hyb-GGA Exchange-Correlation Functional

    P. J. Stephens, F. J. Devlin, C. F. Chabalowski, and M. J. Frisch.,  J. Phys. Chem. 98, 11623 (1994) (10.1021/j100096a001)

    Deriv               =              1
    GGA                 =           TRUE
    Meta                =          FALSE

    Exchange Hybrid     =           TRUE
    MP2 Hybrid          =          FALSE

   => Exchange Functionals <=

    0.0800   Slater exchange
    0.7200         Becke 88

   => Exact (HF) Exchange <=

    0.2000               HF

   => Correlation Functionals <=

    0.1900   Vosko, Wilk & Nusair (VWN5_RPA)
    0.8100   Lee, Yang & Parr

   => LibXC Density Thresholds  <==

    XC_HYB_GGA_XC_B3LYP:  1.00E-15

   => Molecular Quadrature <=

    Radial Scheme          =       TREUTLER
    Pruning Scheme         =           NONE
    Nuclear Scheme         =       TREUTLER

    Blocking Scheme        =         OCTREE
    BS radius alpha        =              1
    Pruning alpha          =              1
    Radial Points          =             75
    Spherical Points       =            302
    Total Points           =          42280
    Total Blocks           =            387
    Max Points             =            256
    Max Functions          =             23
    Weights Tolerance      =       1.00E-15

  -Total Gradient:
     Atom            X                  Y                   Z
    ------   -----------------  -----------------  -----------------
       1       -0.000000000000     0.000000000000    -0.000007500093
       2       -0.000000000000     0.000000000000     0.000013669640

*** tstop() called on Joses-MacBook-Pro-2.local at Thu Jul 17 09:25:39 2025
Module time:
	user time   =       0.64 seconds =       0.01 minutes
	system time =       0.99 seconds =       0.02 minutes
	total time  =          0 seconds =       0.00 minutes
Total time:
	user time   =      63.53 seconds =       1.06 minutes
	system time =      73.26 seconds =       1.22 minutes
	total time  =         12 seconds =       0.20 minutes

    			-----------------------------------------

    			 OPTKING 3.0: for geometry optimizations

    			     By R.A. King, Bethel University

    			        with contributions from

    			    A.V. Copan, J. Cayton, A. Heide

    			-----------------------------------------

	                            ===> Fragment 1 <==

	 Z (Atomic Numbers)          Masses                          Geom
	       2.000000             4.002603          0.00000000  0.00000000  6.28775318
	      17.000000            34.968853          0.00000000  0.00000000 -0.71970852

	 - Coordinate -           - BOHR/RAD -       - ANG/DEG -
	 R(1,2)           =         7.007462           3.708189

	        --- Internal Coordinate Step in ANG or DEG, aJ/ANG or AJ/DEG ---
	-------------------------------------------------------------------------------
	           Coordinate      Previous         Force          Change          New
	           ----------      --------        ------          ------        ------
	               R(1,2)       3.70819        0.00009        0.02008       3.72826
	-------------------------------------------------------------------------------

	                                 ==> Convergence Check <==

	Measures of convergence in internal coordinates in au.

	Criteria marked as inactive (o), active & met (*), and active & unmet ( ).

	----------------------------------------------------------------------------------------------
	   Step    Total Energy     Delta E     Max Force     RMS Force      Max Disp      RMS Disp
	----------------------------------------------------------------------------------------------
	  Convergence Criteria     1.00e-06 *    3.00e-04 *             o    1.20e-03 *             o
	----------------------------------------------------------------------------------------------
	    18    -463.17370655   -5.58e-07 *    1.06e-05 *    1.06e-05 o    3.79e-02      3.79e-02 o  ~
	----------------------------------------------------------------------------------------------

Next Geometry in Ang
	Fragment 1 (Ang)

	   He   0.0000000000   0.0000000000   3.3373734168
	   Cl   0.0000000000   0.0000000000  -0.3908910763

    Final optimized geometry and variables:
    Molecular point group: c2v
    Full point group: C_inf_v

    Geometry (in Angstrom), charge = -1, multiplicity = 1:

    HE           0.000000000000     0.000000000000     3.327335689665
    CL           0.000000000000     0.000000000000    -0.380853349126

    Psi4 stopped on: Thursday, 17 July 2025 09:25AM
    Psi4 wall time for execution: 0:00:13.48

*** Psi4 exiting successfully. Buy a developer a beer!
