                               Psi4 1.9.1 release

  ==> Input File <==

--------------------------------------------------------------------------
molecule {
-1 1
F   0.00000        0.60000        0.00000
Si   0.00000       -0.60000        0.00000
}

set {
basis              cc-pvdz
reference          uks
maxiter            500
geom_maxiter       500
DAMPING_PERCENTAGE 1
guess              SAP
}

optimize('b3lyp')
--------------------------------------------------------------------------

    Molecular point group: c2v
  Charge       = -1
  Multiplicity = 1
  Basis Set: CC-PVDZ
    Blend: CC-PVDZ
  Basis Set: (CC-PVDZ AUX)
    Blend: CC-PVDZ-JKFIT
  @DF-UKS Final Energy:  -388.97277217579403
    Total Energy =                       -388.9727721757940913
 Dipole X            :          0.0000000            0.0000000            0.0000000
 Dipole Y            :          0.0000000            0.0000000            0.0000000
 Dipole Z            :          2.0354351           -0.6847767            1.3506584
 Magnitude           :                                                    1.3506584
    Molecular point group: c2v
  Basis Set: CC-PVDZ
    Blend: CC-PVDZ
  Basis Set: (CC-PVDZ AUX)
    Blend: CC-PVDZ-JKFIT
  Basis Set: CC-PVDZ
    Blend: CC-PVDZ
  Basis Set: (CC-PVDZ AUX)
    Blend: CC-PVDZ-JKFIT
  @DF-UKS Final Energy:  -389.15432688322198
    Total Energy =                       -389.1543268832219837
  Basis Set: CC-PVDZ
    Blend: CC-PVDZ
  Basis Set: (CC-PVDZ AUX)
    Blend: CC-PVDZ-JKFIT
  Basis Set: CC-PVDZ
    Blend: CC-PVDZ
  @DF-UKS Final Energy:  -389.24285224448317
    Total Energy =                       -389.2428522444831174
  @DF-UKS Final Energy:  -389.27314593297945
    Total Energy =                       -389.2731459329794461
  @DF-UKS Final Energy:  -389.28973929280596
    Total Energy =                       -389.2897392928059617
  @DF-UKS Final Energy:  -389.29678758904549
    Total Energy =                       -389.2967875890455502
  @DF-UKS Final Energy:  -389.29850067734037
    Total Energy =                       -389.2985006773403711
  @DF-UKS Final Energy:  -389.29898127562308
    Total Energy =                       -389.2989812756230208
  @DF-UKS Final Energy:  -389.29915146411645
    Total Energy =                       -389.2991514641164486
  @DF-UKS Final Energy:  -389.29919059949628
    Total Energy =                       -389.2991905994962849
  Basis Set: (CC-PVDZ AUX)
    Blend: CC-PVDZ-JKFIT
  Basis Set: CC-PVDZ
    Blend: CC-PVDZ
  Basis Set: (CC-PVDZ AUX)
    Blend: CC-PVDZ-JKFIT
  @DF-UKS Final Energy:  -389.29919495197788
    Total Energy =                       -389.2991949519779382
  Basis Set: CC-PVDZ
    Blend: CC-PVDZ
  Basis Set: (CC-PVDZ AUX)
    Blend: CC-PVDZ-JKFIT
  Charge       = -1
  Multiplicity = 1
  Basis Set: CC-PVDZ
    Blend: CC-PVDZ
  Basis Set: (CC-PVDZ AUX)
    Blend: CC-PVDZ-JKFIT

    Orbital Energies [Eh]
    ---------------------

    Alpha Occupied:

       1A1   -65.897043     2A1   -24.410102     3A1    -5.035210
       1B2    -3.399079     4A1    -3.394893     1B1    -3.385610
       5A1    -0.887494     6A1    -0.239618     2B2    -0.151564
       2B1    -0.146239     7A1    -0.081796     3B1     0.116857

    Alpha Virtual:

       3B2     0.145321     8A1     0.246414     9A1     0.489789
       4B2     0.539861     4B1     0.558135    10A1     0.586997
       1A2     0.629342    11A1     0.633629     5B2     0.659494
       5B1     0.679413    12A1     0.822009     6B2     1.479459
       6B1     1.488821    13A1     1.499299    14A1     2.370416
       2A2     3.841072    15A1     3.841186     7B2     3.863845
       7B1     3.872029    16A1     4.003595

    Beta Occupied:

       1A1   -65.897043     2A1   -24.410102     3A1    -5.035210
       1B2    -3.399079     4A1    -3.394893     1B1    -3.385610
       5A1    -0.887494     6A1    -0.239618     2B2    -0.151564
       2B1    -0.146239     7A1    -0.081796     3B1     0.116857

    Beta Virtual:

       3B2     0.145321     8A1     0.246414     9A1     0.489789
       4B2     0.539861     4B1     0.558135    10A1     0.586997
       1A2     0.629342    11A1     0.633629     5B2     0.659494
       5B1     0.679413    12A1     0.822009     6B2     1.479459
       6B1     1.488821    13A1     1.499299    14A1     2.370416
       2A2     3.841072    15A1     3.841186     7B2     3.863845
       7B1     3.872029    16A1     4.003595

    Final Occupation by Irrep:
             A1    A2    B1    B2
    DOCC [     7,    0,    3,    2 ]
    SOCC [     0,    0,    0,    0 ]
    NA   [     7,    0,    3,    2 ]
    NB   [     7,    0,    3,    2 ]

  @DF-UKS Final Energy:  -389.29919507577620

   => Energetics <=

    Nuclear Repulsion Energy =             38.0795175310026721
    One-Electron Energy =                -622.7430559101172776
    Two-Electron Energy =                 220.8368756847673637
    DFT Exchange-Correlation Energy =     -25.4725323814289446
    Empirical Dispersion Energy =           0.0000000000000000
    VV10 Nonlocal Energy =                  0.0000000000000000
    Total Energy =                       -389.2991950757761401

  UHF NO Occupations:
  HONO-2 :    5 A1 2.0000000
  HONO-1 :    6 A1 2.0000000
  HONO-0 :    7 A1 2.0000000
  LUNO+0 :    8 A1 0.0000000
  LUNO+1 :    9 A1 0.0000000
  LUNO+2 :    4 B1 0.0000000
  LUNO+3 :    5 B1 0.0000000

Computation Completed

Properties will be evaluated at   0.000000,   0.000000,   0.000000 [a0]

Properties computed using the SCF density matrix

 Multipole Moments:

 ------------------------------------------------------------------------------------
     Multipole            Electronic (a.u.)      Nuclear  (a.u.)        Total (a.u.)
 ------------------------------------------------------------------------------------

 L = 1.  Multiply by 2.5417464519 to convert [e a0] to [Debye]
 Dipole X            :          0.0000000            0.0000000            0.0000000
 Dipole Y            :          0.0000000            0.0000000            0.0000000
 Dipole Z            :          1.6452376           -0.9991897            0.6460479
 Magnitude           :                                                    0.6460479

 ------------------------------------------------------------------------------------

*** tstop() called on Joses-MacBook-Pro-2.local at Thu Jul 17 10:53:25 2025
Module time:
	user time   =       2.79 seconds =       0.05 minutes
	system time =       3.78 seconds =       0.06 minutes
	total time  =          0 seconds =       0.00 minutes
Total time:
	user time   =      49.02 seconds =       0.82 minutes
	system time =      74.83 seconds =       1.25 minutes
	total time  =         12 seconds =       0.20 minutes

*** tstart() called on Joses-MacBook-Pro-2.local
*** at Thu Jul 17 10:53:25 2025

         ------------------------------------------------------------
                                   SCF GRAD
                          Rob Parrish, Justin Turney,
                       Andy Simmonett, and Alex Sokolov
         ------------------------------------------------------------

  ==> Geometry <==

    Molecular point group: c2v
    Full point group: C_inf_v

    Geometry (in Angstrom), charge = -1, multiplicity = 1:

       Center              X                  Y                   Z               Mass
    ------------   -----------------  -----------------  -----------------  -----------------
         F            0.000000000000     0.000000000000     1.042822531795    18.998403162730
         SI           0.000000000000     0.000000000000    -0.708153658755    27.976926534650

  Nuclear repulsion =   38.079517531002672

  ==> Basis Set <==

  Basis Set: CC-PVDZ
    Blend: CC-PVDZ
    Number of shells: 14
    Number of basis functions: 32
    Number of Cartesian functions: 34
    Spherical Harmonics?: true
    Max angular momentum: 2

  ==> DFJKGrad: Density-Fitted SCF Gradients <==

    Gradient:                    1
    J tasked:                  Yes
    K tasked:                  Yes
    wK tasked:                  No
    OpenMP threads:              1
    Integrals threads:           1
    Memory [MiB]:              375
    Schwarz Cutoff:          1E-12
    Fitting Condition:       1E-10

   => Auxiliary Basis Set <=

  Basis Set: (CC-PVDZ AUX)
    Blend: CC-PVDZ-JKFIT
    Number of shells: 60
    Number of basis functions: 182
    Number of Cartesian functions: 211
    Spherical Harmonics?: true
    Max angular momentum: 3

  ==> DFT Potential <==

   => LibXC <=

    Version 6.2.2
    S. Lehtola, C. Steigemann, M. J.T. Oliveira, and M. A.L. Marques.,  SoftwareX 7, 1â€“5 (2018) (10.1016/j.softx.2017.11.002)

   => Composite Functional: B3LYP <=

    B3LYP Hyb-GGA Exchange-Correlation Functional

    P. J. Stephens, F. J. Devlin, C. F. Chabalowski, and M. J. Frisch.,  J. Phys. Chem. 98, 11623 (1994) (10.1021/j100096a001)

    Deriv               =              1
    GGA                 =           TRUE
    Meta                =          FALSE

    Exchange Hybrid     =           TRUE
    MP2 Hybrid          =          FALSE

   => Exchange Functionals <=

    0.0800   Slater exchange
    0.7200         Becke 88

   => Exact (HF) Exchange <=

    0.2000               HF

   => Correlation Functionals <=

    0.1900   Vosko, Wilk & Nusair (VWN5_RPA)
    0.8100   Lee, Yang & Parr

   => LibXC Density Thresholds  <==

    XC_HYB_GGA_XC_B3LYP:  1.00E-15

   => Molecular Quadrature <=

    Radial Scheme          =       TREUTLER
    Pruning Scheme         =           NONE
    Nuclear Scheme         =       TREUTLER

    Blocking Scheme        =         OCTREE
    BS radius alpha        =              1
    Pruning alpha          =              1
    Radial Points          =             75
    Spherical Points       =            302
    Total Points           =          42918
    Total Blocks           =            394
    Max Points             =            256
    Max Functions          =             32
    Weights Tolerance      =       1.00E-15

  -Total Gradient:
     Atom            X                  Y                   Z
    ------   -----------------  -----------------  -----------------
       1        0.000000000000    -0.000000000000    -0.000071681270
       2        0.000000000000     0.000000000000    -0.000013788521

*** tstop() called on Joses-MacBook-Pro-2.local at Thu Jul 17 10:53:26 2025
Module time:
	user time   =       1.14 seconds =       0.02 minutes
	system time =       1.80 seconds =       0.03 minutes
	total time  =          1 seconds =       0.02 minutes
Total time:
	user time   =      50.17 seconds =       0.84 minutes
	system time =      76.64 seconds =       1.28 minutes
	total time  =         13 seconds =       0.22 minutes

    			-----------------------------------------

    			 OPTKING 3.0: for geometry optimizations

    			     By R.A. King, Bethel University

    			        with contributions from

    			    A.V. Copan, J. Cayton, A. Heide

    			-----------------------------------------

	                            ===> Fragment 1 <==

	 Z (Atomic Numbers)          Masses                          Geom
	       9.000000            18.998403          0.00000000  0.00000000  1.97064898
	      14.000000            27.976927          0.00000000  0.00000000 -1.33821647

	 - Coordinate -           - BOHR/RAD -       - ANG/DEG -
	 R(1,2)           =         3.308865           1.750976

	        --- Internal Coordinate Step in ANG or DEG, aJ/ANG or AJ/DEG ---
	-------------------------------------------------------------------------------
	           Coordinate      Previous         Force          Change          New
	           ----------      --------        ------          ------        ------
	               R(1,2)       1.75098        0.00024        0.00008       1.75105
	-------------------------------------------------------------------------------

	                                 ==> Convergence Check <==

	Measures of convergence in internal coordinates in au.

	Criteria marked as inactive (o), active & met (*), and active & unmet ( ).

	----------------------------------------------------------------------------------------------
	   Step    Total Energy     Delta E     Max Force     RMS Force      Max Disp      RMS Disp
	----------------------------------------------------------------------------------------------
	  Convergence Criteria     1.00e-06 *    3.00e-04 *             o    1.20e-03 *             o
	----------------------------------------------------------------------------------------------
	    12    -389.29919508   -1.24e-07 *    2.89e-05 *    2.89e-05 o    1.42e-04 *    1.42e-04 o  ~
	----------------------------------------------------------------------------------------------

Next Geometry in Ang
	Fragment 1 (Ang)

	    F   0.0000000000   0.0000000000   1.0428601403
	   Si   0.0000000000   0.0000000000  -0.7081912672

    Final optimized geometry and variables:
    Molecular point group: c2v
    Full point group: C_inf_v

    Geometry (in Angstrom), charge = -1, multiplicity = 1:

    F            0.000000000000     0.000000000000     1.042822531795
    SI           0.000000000000     0.000000000000    -0.708153658755

    Psi4 stopped on: Thursday, 17 July 2025 10:53AM
    Psi4 wall time for execution: 0:00:13.90

*** Psi4 exiting successfully. Buy a developer a beer!
