                               Psi4 1.9.1 release

  ==> Input File <==

--------------------------------------------------------------------------
molecule {
-1 1
B   0.00000        0.60000        0.00000
Ne   0.00000       -0.60000        0.00000
}

set {
basis              cc-pvdz
reference          uks
maxiter            500
geom_maxiter       500
DAMPING_PERCENTAGE 1
guess              SAP
}

optimize('b3lyp')
--------------------------------------------------------------------------

    Molecular point group: c2v
  Charge       = -1
  Multiplicity = 1
  Basis Set: CC-PVDZ
    Blend: CC-PVDZ
  Basis Set: (CC-PVDZ AUX)
    Blend: CC-PVDZ-JKFIT
  @DF-UKS Final Energy:  -153.29732223743710
    Total Energy =                       -153.2973222374371289
 Dipole X            :          0.0000000            0.0000000            0.0000000
 Dipole Y            :          0.0000000            0.0000000            0.0000000
 Dipole Z            :         -2.2429949           -0.7410371           -2.9840320
 Magnitude           :                                                    2.9840320
    Molecular point group: c2v
  Basis Set: CC-PVDZ
    Blend: CC-PVDZ
  Basis Set: (CC-PVDZ AUX)
    Blend: CC-PVDZ-JKFIT
  Basis Set: CC-PVDZ
    Blend: CC-PVDZ
  Basis Set: (CC-PVDZ AUX)
    Blend: CC-PVDZ-JKFIT
  @DF-UKS Final Energy:  -153.39152288820222
    Total Energy =                       -153.3915228882021893
  Basis Set: CC-PVDZ
    Blend: CC-PVDZ
  Basis Set: (CC-PVDZ AUX)
    Blend: CC-PVDZ-JKFIT
  Basis Set: CC-PVDZ
    Blend: CC-PVDZ
  @DF-UKS Final Energy:  -153.43821539736862
    Total Energy =                       -153.4382153973686513
  @DF-UKS Final Energy:  -153.47346123168850
    Total Energy =                       -153.4734612316885034
  @DF-UKS Final Energy:  -153.49527767269814
    Total Energy =                       -153.4952776726981369
  @DF-UKS Final Energy:  -153.50717245366894
    Total Energy =                       -153.5071724536689430
  @DF-UKS Final Energy:  -153.51321947215422
    Total Energy =                       -153.5132194721542191
  @DF-UKS Final Energy:  -153.51615559078573
    Total Energy =                       -153.5161555907857291
  @DF-UKS Final Energy:  -153.51740518130950
    Total Energy =                       -153.5174051813094991
  @DF-UKS Final Energy:  -153.51785100092584
    Total Energy =                       -153.5178510009258162
  @DF-UKS Final Energy:  -153.51797886689869
    Total Energy =                       -153.5179788668986873
  @DF-UKS Final Energy:  -153.51800013466902
    Total Energy =                       -153.5180001346690233
  Basis Set: (CC-PVDZ AUX)
    Blend: CC-PVDZ-JKFIT
  Basis Set: CC-PVDZ
    Blend: CC-PVDZ
  Basis Set: (CC-PVDZ AUX)
    Blend: CC-PVDZ-JKFIT
  @DF-UKS Final Energy:  -153.51800482591909
    Total Energy =                       -153.5180048259190642
  Basis Set: CC-PVDZ
    Blend: CC-PVDZ
  Basis Set: (CC-PVDZ AUX)
    Blend: CC-PVDZ-JKFIT
  Charge       = -1
  Multiplicity = 1
  Basis Set: CC-PVDZ
    Blend: CC-PVDZ
  Basis Set: (CC-PVDZ AUX)
    Blend: CC-PVDZ-JKFIT

    Orbital Energies [Eh]
    ---------------------

    Alpha Occupied:

       1A1   -30.809176     2A1    -6.508351     3A1    -1.273989
       1B2    -0.382965     1B1    -0.382410     4A1    -0.382093
       5A1    -0.059944     2B1     0.157007

    Alpha Virtual:

       2B2     0.198736     6A1     0.202133     3B2     0.574597
       3B1     0.578676     7A1     0.581935     8A1     0.635461
       9A1     0.999586     4B2     1.003878     4B1     1.017459
       1A2     1.017716    10A1     1.030349     5B2     1.518718
       5B1     1.519933    11A1     1.568392    12A1     2.029222
       2A2     4.882761    13A1     4.882895     6B2     4.883261
       6B1     4.883606    14A1     4.884577

    Beta Occupied:

       1A1   -30.809176     2A1    -6.508351     3A1    -1.273989
       1B2    -0.382965     1B1    -0.382410     4A1    -0.382093
       5A1    -0.059944     2B1     0.157007

    Beta Virtual:

       2B2     0.198736     6A1     0.202133     3B2     0.574597
       3B1     0.578676     7A1     0.581935     8A1     0.635461
       9A1     0.999586     4B2     1.003878     4B1     1.017459
       1A2     1.017716    10A1     1.030349     5B2     1.518718
       5B1     1.519933    11A1     1.568392    12A1     2.029222
       2A2     4.882761    13A1     4.882895     6B2     4.883261
       6B1     4.883606    14A1     4.884577

    Final Occupation by Irrep:
             A1    A2    B1    B2
    DOCC [     5,    0,    2,    1 ]
    SOCC [     0,    0,    0,    0 ]
    NA   [     5,    0,    2,    1 ]
    NB   [     5,    0,    2,    1 ]

  @DF-UKS Final Energy:  -153.51800531634089

   => Energetics <=

    Nuclear Repulsion Energy =              8.5076643868563693
    One-Electron Energy =                -235.1168781033994151
    Two-Electron Energy =                  86.5370030184576819
    DFT Exchange-Correlation Energy =     -13.4457946182555244
    Empirical Dispersion Energy =           0.0000000000000000
    VV10 Nonlocal Energy =                  0.0000000000000000
    Total Energy =                       -153.5180053163408900

  UHF NO Occupations:
  HONO-2 :    4 A1 2.0000000
  HONO-1 :    1 B2 2.0000000
  HONO-0 :    5 A1 2.0000000
  LUNO+0 :    3 B1 0.0000000
  LUNO+1 :    2 B2 0.0000000
  LUNO+2 :    4 B1 0.0000000
  LUNO+3 :    3 B2 0.0000000

Computation Completed

Properties will be evaluated at   0.000000,   0.000000,   0.000000 [a0]

Properties computed using the SCF density matrix

 Multipole Moments:

 ------------------------------------------------------------------------------------
     Multipole            Electronic (a.u.)      Nuclear  (a.u.)        Total (a.u.)
 ------------------------------------------------------------------------------------

 L = 1.  Multiply by 2.5417464519 to convert [e a0] to [Debye]
 Dipole X            :          0.0000000            0.0000000            0.0000000
 Dipole Y            :          0.0000000            0.0000000            0.0000000
 Dipole Z            :         -1.9062435           -1.9205230           -3.8267665
 Magnitude           :                                                    3.8267665

 ------------------------------------------------------------------------------------

*** tstop() called on Joses-MacBook-Pro-2.local at Thu Jul 17 09:51:06 2025
Module time:
	user time   =       2.24 seconds =       0.04 minutes
	system time =       2.71 seconds =       0.05 minutes
	total time  =          0 seconds =       0.00 minutes
Total time:
	user time   =      48.91 seconds =       0.82 minutes
	system time =      59.81 seconds =       1.00 minutes
	total time  =         10 seconds =       0.17 minutes

*** tstart() called on Joses-MacBook-Pro-2.local
*** at Thu Jul 17 09:51:06 2025

         ------------------------------------------------------------
                                   SCF GRAD
                          Rob Parrish, Justin Turney,
                       Andy Simmonett, and Alex Sokolov
         ------------------------------------------------------------

  ==> Geometry <==

    Molecular point group: c2v
    Full point group: C_inf_v

    Geometry (in Angstrom), charge = -1, multiplicity = 1:

       Center              X                  Y                   Z               Mass
    ------------   -----------------  -----------------  -----------------  -----------------
         B            0.000000000000     0.000000000000     2.005582103631    11.009305360000
         NE           0.000000000000     0.000000000000    -1.104420751486    19.992440176200

  Nuclear repulsion =    8.507664386856369

  ==> Basis Set <==

  Basis Set: CC-PVDZ
    Blend: CC-PVDZ
    Number of shells: 12
    Number of basis functions: 28
    Number of Cartesian functions: 30
    Spherical Harmonics?: true
    Max angular momentum: 2

  ==> DFJKGrad: Density-Fitted SCF Gradients <==

    Gradient:                    1
    J tasked:                  Yes
    K tasked:                  Yes
    wK tasked:                  No
    OpenMP threads:              1
    Integrals threads:           1
    Memory [MiB]:              375
    Schwarz Cutoff:          1E-12
    Fitting Condition:       1E-10

   => Auxiliary Basis Set <=

  Basis Set: (CC-PVDZ AUX)
    Blend: CC-PVDZ-JKFIT
    Number of shells: 48
    Number of basis functions: 140
    Number of Cartesian functions: 162
    Spherical Harmonics?: true
    Max angular momentum: 3

  ==> DFT Potential <==

   => LibXC <=

    Version 6.2.2
    S. Lehtola, C. Steigemann, M. J.T. Oliveira, and M. A.L. Marques.,  SoftwareX 7, 1â€“5 (2018) (10.1016/j.softx.2017.11.002)

   => Composite Functional: B3LYP <=

    B3LYP Hyb-GGA Exchange-Correlation Functional

    P. J. Stephens, F. J. Devlin, C. F. Chabalowski, and M. J. Frisch.,  J. Phys. Chem. 98, 11623 (1994) (10.1021/j100096a001)

    Deriv               =              1
    GGA                 =           TRUE
    Meta                =          FALSE

    Exchange Hybrid     =           TRUE
    MP2 Hybrid          =          FALSE

   => Exchange Functionals <=

    0.0800   Slater exchange
    0.7200         Becke 88

   => Exact (HF) Exchange <=

    0.2000               HF

   => Correlation Functionals <=

    0.1900   Vosko, Wilk & Nusair (VWN5_RPA)
    0.8100   Lee, Yang & Parr

   => LibXC Density Thresholds  <==

    XC_HYB_GGA_XC_B3LYP:  1.00E-15

   => Molecular Quadrature <=

    Radial Scheme          =       TREUTLER
    Pruning Scheme         =           NONE
    Nuclear Scheme         =       TREUTLER

    Blocking Scheme        =         OCTREE
    BS radius alpha        =              1
    Pruning alpha          =              1
    Radial Points          =             75
    Spherical Points       =            302
    Total Points           =          43660
    Total Blocks           =            393
    Max Points             =            253
    Max Functions          =             28
    Weights Tolerance      =       1.00E-15

  -Total Gradient:
     Atom            X                  Y                   Z
    ------   -----------------  -----------------  -----------------
       1        0.000000000000    -0.000000000000    -0.000008144869
       2       -0.000000000000     0.000000000000     0.000017575584

*** tstop() called on Joses-MacBook-Pro-2.local at Thu Jul 17 09:51:06 2025
Module time:
	user time   =       0.41 seconds =       0.01 minutes
	system time =       1.15 seconds =       0.02 minutes
	total time  =          0 seconds =       0.00 minutes
Total time:
	user time   =      49.32 seconds =       0.82 minutes
	system time =      60.96 seconds =       1.02 minutes
	total time  =         10 seconds =       0.17 minutes

    			-----------------------------------------

    			 OPTKING 3.0: for geometry optimizations

    			     By R.A. King, Bethel University

    			        with contributions from

    			    A.V. Copan, J. Cayton, A. Heide

    			-----------------------------------------

	                            ===> Fragment 1 <==

	 Z (Atomic Numbers)          Masses                          Geom
	       5.000000            11.009305          0.00000000  0.00000000  3.79000090
	      10.000000            19.992440          0.00000000  0.00000000 -2.08705275

	 - Coordinate -           - BOHR/RAD -       - ANG/DEG -
	 R(1,2)           =         5.877054           3.110003

	        --- Internal Coordinate Step in ANG or DEG, aJ/ANG or AJ/DEG ---
	-------------------------------------------------------------------------------
	           Coordinate      Previous         Force          Change          New
	           ----------      --------        ------          ------        ------
	               R(1,2)       3.11000        0.00011        0.00223       3.11223
	-------------------------------------------------------------------------------

	                                 ==> Convergence Check <==

	Measures of convergence in internal coordinates in au.

	Criteria marked as inactive (o), active & met (*), and active & unmet ( ).

	----------------------------------------------------------------------------------------------
	   Step    Total Energy     Delta E     Max Force     RMS Force      Max Disp      RMS Disp
	----------------------------------------------------------------------------------------------
	  Convergence Criteria     1.00e-06 *    3.00e-04 *             o    1.20e-03 *             o
	----------------------------------------------------------------------------------------------
	    14    -153.51800532   -4.90e-07 *    1.29e-05 *    1.29e-05 o    4.21e-03      4.21e-03 o  ~
	----------------------------------------------------------------------------------------------

Next Geometry in Ang
	Fragment 1 (Ang)

	    B   0.0000000000   0.0000000000   2.0066969546
	   Ne   0.0000000000   0.0000000000  -1.1055356024

    Final optimized geometry and variables:
    Molecular point group: c2v
    Full point group: C_inf_v

    Geometry (in Angstrom), charge = -1, multiplicity = 1:

    B            0.000000000000     0.000000000000     2.005582103631
    NE           0.000000000000     0.000000000000    -1.104420751486

    Psi4 stopped on: Thursday, 17 July 2025 09:51AM
    Psi4 wall time for execution: 0:00:11.10

*** Psi4 exiting successfully. Buy a developer a beer!
