                               Psi4 1.9.1 release

  ==> Input File <==

--------------------------------------------------------------------------
molecule {
-1 1
H   0.00000        0.60000        0.00000
Ne   0.00000       -0.60000        0.00000
}

set {
basis              cc-pvdz
reference          uks
maxiter            500
geom_maxiter       500
DAMPING_PERCENTAGE 1
guess              SAP
}

optimize('b3lyp')
--------------------------------------------------------------------------

    Molecular point group: c2v
  Charge       = -1
  Multiplicity = 1
  Basis Set: CC-PVDZ
    Blend: CC-PVDZ
  Basis Set: (CC-PVDZ AUX)
    Blend: CC-PVDZ-JKFIT
  @DF-UKS Final Energy:  -129.24329455494677
    Total Energy =                       -129.2432945549467718
 Dipole X            :          0.0000000            0.0000000            0.0000000
 Dipole Y            :          0.0000000            0.0000000            0.0000000
 Dipole Z            :         -3.7810224            1.0705638           -2.7104585
 Magnitude           :                                                    2.7104585
    Molecular point group: c2v
  Basis Set: CC-PVDZ
    Blend: CC-PVDZ
  Basis Set: (CC-PVDZ AUX)
    Blend: CC-PVDZ-JKFIT
  Basis Set: CC-PVDZ
    Blend: CC-PVDZ
  Basis Set: (CC-PVDZ AUX)
    Blend: CC-PVDZ-JKFIT
  @DF-UKS Final Energy:  -129.31829734513900
    Total Energy =                       -129.3182973451390012
  Basis Set: CC-PVDZ
    Blend: CC-PVDZ
  Basis Set: (CC-PVDZ AUX)
    Blend: CC-PVDZ-JKFIT
  Basis Set: CC-PVDZ
    Blend: CC-PVDZ
  @DF-UKS Final Energy:  -129.35607256919704
    Total Energy =                       -129.3560725691970390
  @DF-UKS Final Energy:  -129.37579554571752
    Total Energy =                       -129.3757955457175228
  @DF-UKS Final Energy:  -129.38692419533714
    Total Energy =                       -129.3869241953371443
  @DF-UKS Final Energy:  -129.39280351127556
    Total Energy =                       -129.3928035112755595
  @DF-UKS Final Energy:  -129.39581730493165
    Total Energy =                       -129.3958173049316542
  @DF-UKS Final Energy:  -129.39729602882258
    Total Energy =                       -129.3972960288225806
  @DF-UKS Final Energy:  -129.39794172027260
    Total Energy =                       -129.3979417202725983
  @DF-UKS Final Energy:  -129.39819692036994
    Total Energy =                       -129.3981969203699407
  @DF-UKS Final Energy:  -129.39829117226105
    Total Energy =                       -129.3982911722610538
  @DF-UKS Final Energy:  -129.39832186729166
    Total Energy =                       -129.3983218672916564
  @DF-UKS Final Energy:  -129.39832863952884
    Total Energy =                       -129.3983286395288417
  Basis Set: (CC-PVDZ AUX)
    Blend: CC-PVDZ-JKFIT
  Basis Set: CC-PVDZ
    Blend: CC-PVDZ
  Basis Set: (CC-PVDZ AUX)
    Blend: CC-PVDZ-JKFIT
  @DF-UKS Final Energy:  -129.39833078651722
    Total Energy =                       -129.3983307865172208
  Basis Set: CC-PVDZ
    Blend: CC-PVDZ
  Basis Set: (CC-PVDZ AUX)
    Blend: CC-PVDZ-JKFIT
  Charge       = -1
  Multiplicity = 1
  Basis Set: CC-PVDZ
    Blend: CC-PVDZ
  Basis Set: (CC-PVDZ AUX)
    Blend: CC-PVDZ-JKFIT

    Orbital Energies [Eh]
    ---------------------

    Alpha Occupied:

       1A1   -30.807314     2A1    -1.273035     1B1    -0.382162
       1B2    -0.382162     3A1    -0.379844     4A1     0.143132

    Alpha Virtual:

       5A1     0.848570     2B1     1.515540     2B2     1.515540
       6A1     1.523016     7A1     1.714980     3B1     1.715014
       3B2     1.715014     8A1     1.977014     1A2     4.883432
       9A1     4.883439     4B1     4.884601     4B2     4.884601
      10A1     4.885055

    Beta Occupied:

       1A1   -30.807314     2A1    -1.273035     1B1    -0.382162
       1B2    -0.382162     3A1    -0.379844     4A1     0.143132

    Beta Virtual:

       5A1     0.848570     2B1     1.515540     2B2     1.515540
       6A1     1.523016     7A1     1.714980     3B1     1.715014
       3B2     1.715014     8A1     1.977014     1A2     4.883432
       9A1     4.883439     4B1     4.884601     4B2     4.884601
      10A1     4.885055

    Final Occupation by Irrep:
             A1    A2    B1    B2
    DOCC [     4,    0,    1,    1 ]
    SOCC [     0,    0,    0,    0 ]
    NA   [     4,    0,    1,    1 ]
    NB   [     4,    0,    1,    1 ]

  @DF-UKS Final Energy:  -129.39833119380157

   => Energetics <=

    Nuclear Repulsion Energy =              1.5081827545901274
    One-Electron Energy =                -188.0898909619346568
    Two-Electron Energy =                  67.7395979408501461
    DFT Exchange-Correlation Energy =     -10.5562209273071836
    Empirical Dispersion Energy =           0.0000000000000000
    VV10 Nonlocal Energy =                  0.0000000000000000
    Total Energy =                       -129.3983311938015675

  UHF NO Occupations:
  HONO-2 :    3 A1 2.0000000
  HONO-1 :    1 B2 2.0000000
  HONO-0 :    4 A1 2.0000000
  LUNO+0 :    5 A1 0.0000000
  LUNO+1 :    6 A1 0.0000000
  LUNO+2 :    2 B1 0.0000000
  LUNO+3 :    2 B2 0.0000000

Computation Completed

Properties will be evaluated at   0.000000,   0.000000,   0.000000 [a0]

Properties computed using the SCF density matrix

 Multipole Moments:

 ------------------------------------------------------------------------------------
     Multipole            Electronic (a.u.)      Nuclear  (a.u.)        Total (a.u.)
 ------------------------------------------------------------------------------------

 L = 1.  Multiply by 2.5417464519 to convert [e a0] to [Debye]
 Dipole X            :          0.0000000            0.0000000            0.0000000
 Dipole Y            :          0.0000000            0.0000000            0.0000000
 Dipole Z            :         -9.4305192            3.1302461           -6.3002731
 Magnitude           :                                                    6.3002731

 ------------------------------------------------------------------------------------

*** tstop() called on Joses-MacBook-Pro-2.local at Thu Jul 17 09:12:30 2025
Module time:
	user time   =       0.52 seconds =       0.01 minutes
	system time =       3.07 seconds =       0.05 minutes
	total time  =          1 seconds =       0.02 minutes
Total time:
	user time   =      16.65 seconds =       0.28 minutes
	system time =      57.90 seconds =       0.96 minutes
	total time  =          8 seconds =       0.13 minutes

*** tstart() called on Joses-MacBook-Pro-2.local
*** at Thu Jul 17 09:12:30 2025

         ------------------------------------------------------------
                                   SCF GRAD
                          Rob Parrish, Justin Turney,
                       Andy Simmonett, and Alex Sokolov
         ------------------------------------------------------------

  ==> Geometry <==

    Molecular point group: c2v
    Full point group: C_inf_v

    Geometry (in Angstrom), charge = -1, multiplicity = 1:

       Center              X                  Y                   Z               Mass
    ------------   -----------------  -----------------  -----------------  -----------------
         H            0.000000000000     0.000000000000     3.340320877858     1.007825032230
         NE           0.000000000000     0.000000000000    -0.168386598470    19.992440176200

  Nuclear repulsion =    1.508182754590127

  ==> Basis Set <==

  Basis Set: CC-PVDZ
    Blend: CC-PVDZ
    Number of shells: 9
    Number of basis functions: 19
    Number of Cartesian functions: 20
    Spherical Harmonics?: true
    Max angular momentum: 2

  ==> DFJKGrad: Density-Fitted SCF Gradients <==

    Gradient:                    1
    J tasked:                  Yes
    K tasked:                  Yes
    wK tasked:                  No
    OpenMP threads:              1
    Integrals threads:           1
    Memory [MiB]:              375
    Schwarz Cutoff:          1E-12
    Fitting Condition:       1E-10

   => Auxiliary Basis Set <=

  Basis Set: (CC-PVDZ AUX)
    Blend: CC-PVDZ-JKFIT
    Number of shells: 33
    Number of basis functions: 93
    Number of Cartesian functions: 106
    Spherical Harmonics?: true
    Max angular momentum: 3

  ==> DFT Potential <==

   => LibXC <=

    Version 6.2.2
    S. Lehtola, C. Steigemann, M. J.T. Oliveira, and M. A.L. Marques.,  SoftwareX 7, 1â€“5 (2018) (10.1016/j.softx.2017.11.002)

   => Composite Functional: B3LYP <=

    B3LYP Hyb-GGA Exchange-Correlation Functional

    P. J. Stephens, F. J. Devlin, C. F. Chabalowski, and M. J. Frisch.,  J. Phys. Chem. 98, 11623 (1994) (10.1021/j100096a001)

    Deriv               =              1
    GGA                 =           TRUE
    Meta                =          FALSE

    Exchange Hybrid     =           TRUE
    MP2 Hybrid          =          FALSE

   => Exchange Functionals <=

    0.0800   Slater exchange
    0.7200         Becke 88

   => Exact (HF) Exchange <=

    0.2000               HF

   => Correlation Functionals <=

    0.1900   Vosko, Wilk & Nusair (VWN5_RPA)
    0.8100   Lee, Yang & Parr

   => LibXC Density Thresholds  <==

    XC_HYB_GGA_XC_B3LYP:  1.00E-15

   => Molecular Quadrature <=

    Radial Scheme          =       TREUTLER
    Pruning Scheme         =           NONE
    Nuclear Scheme         =       TREUTLER

    Blocking Scheme        =         OCTREE
    BS radius alpha        =              1
    Pruning alpha          =              1
    Radial Points          =             75
    Spherical Points       =            302
    Total Points           =          44483
    Total Blocks           =            394
    Max Points             =            252
    Max Functions          =             19
    Weights Tolerance      =       1.00E-15

  -Total Gradient:
     Atom            X                  Y                   Z
    ------   -----------------  -----------------  -----------------
       1        0.000000000000     0.000000000000    -0.000007394782
       2       -0.000000000000    -0.000000000000     0.000008598283

*** tstop() called on Joses-MacBook-Pro-2.local at Thu Jul 17 09:12:30 2025
Module time:
	user time   =       0.38 seconds =       0.01 minutes
	system time =       0.68 seconds =       0.01 minutes
	total time  =          0 seconds =       0.00 minutes
Total time:
	user time   =      17.03 seconds =       0.28 minutes
	system time =      58.58 seconds =       0.98 minutes
	total time  =          8 seconds =       0.13 minutes

    			-----------------------------------------

    			 OPTKING 3.0: for geometry optimizations

    			     By R.A. King, Bethel University

    			        with contributions from

    			    A.V. Copan, J. Cayton, A. Heide

    			-----------------------------------------

	                            ===> Fragment 1 <==

	 Z (Atomic Numbers)          Masses                          Geom
	       1.000000             1.007825          0.00000000  0.00000000  6.31229163
	      10.000000            19.992440          0.00000000  0.00000000 -0.31820455

	 - Coordinate -           - BOHR/RAD -       - ANG/DEG -
	 R(1,2)           =         6.630496           3.508707

	        --- Internal Coordinate Step in ANG or DEG, aJ/ANG or AJ/DEG ---
	-------------------------------------------------------------------------------
	           Coordinate      Previous         Force          Change          New
	           ----------      --------        ------          ------        ------
	               R(1,2)       3.50871        0.00007        0.00643       3.51514
	-------------------------------------------------------------------------------

	                                 ==> Convergence Check <==

	Measures of convergence in internal coordinates in au.

	Criteria marked as inactive (o), active & met (*), and active & unmet ( ).

	----------------------------------------------------------------------------------------------
	   Step    Total Energy     Delta E     Max Force     RMS Force      Max Disp      RMS Disp
	----------------------------------------------------------------------------------------------
	  Convergence Criteria     1.00e-06 *    3.00e-04 *             o    1.20e-03 *             o
	----------------------------------------------------------------------------------------------
	    15    -129.39833119   -4.07e-07 *    8.00e-06 *    8.00e-06 o    1.22e-02      1.22e-02 o  ~
	----------------------------------------------------------------------------------------------

Next Geometry in Ang
	Fragment 1 (Ang)

	    H   0.0000000000   0.0000000000   3.3435371853
	   Ne   0.0000000000   0.0000000000  -0.1716029059

    Final optimized geometry and variables:
    Molecular point group: c2v
    Full point group: C_inf_v

    Geometry (in Angstrom), charge = -1, multiplicity = 1:

    H            0.000000000000     0.000000000000     3.340320877858
    NE           0.000000000000     0.000000000000    -0.168386598470

    Psi4 stopped on: Thursday, 17 July 2025 09:12AM
    Psi4 wall time for execution: 0:00:08.57

*** Psi4 exiting successfully. Buy a developer a beer!
