                               Psi4 1.9.1 release

  ==> Input File <==

--------------------------------------------------------------------------
molecule {
-1 1
Ne   0.00000        0.60000        0.00000
Al   0.00000       -0.60000        0.00000
}

set {
basis              cc-pvdz
reference          uks
maxiter            500
geom_maxiter       500
DAMPING_PERCENTAGE 1
guess              SAP
}

optimize('b3lyp')
--------------------------------------------------------------------------

    Molecular point group: c2v
  Charge       = -1
  Multiplicity = 1
  Basis Set: CC-PVDZ
    Blend: CC-PVDZ
  Basis Set: (CC-PVDZ AUX)
    Blend: CC-PVDZ-JKFIT
  @DF-UKS Final Energy:  -370.77308035221273
    Total Energy =                       -370.7730803522126735
 Dipole X            :          0.0000000            0.0000000            0.0000000
 Dipole Y            :          0.0000000            0.0000000            0.0000000
 Dipole Z            :          1.7069028            0.4785826            2.1854854
 Magnitude           :                                                    2.1854854
    Molecular point group: c2v
  Basis Set: CC-PVDZ
    Blend: CC-PVDZ
  Basis Set: (CC-PVDZ AUX)
    Blend: CC-PVDZ-JKFIT
  Basis Set: CC-PVDZ
    Blend: CC-PVDZ
  Basis Set: (CC-PVDZ AUX)
    Blend: CC-PVDZ-JKFIT
  @DF-UKS Final Energy:  -370.98555869201272
    Total Energy =                       -370.9855586920127735
  Basis Set: CC-PVDZ
    Blend: CC-PVDZ
  Basis Set: (CC-PVDZ AUX)
    Blend: CC-PVDZ-JKFIT
  Basis Set: CC-PVDZ
    Blend: CC-PVDZ
  @DF-UKS Final Energy:  -371.09994871526658
    Total Energy =                       -371.0999487152665779
  @DF-UKS Final Energy:  -371.16689497512363
    Total Energy =                       -371.1668949751235687
  @DF-UKS Final Energy:  -371.20682380925513
    Total Energy =                       -371.2068238092551269
  @DF-UKS Final Energy:  -371.23058199220077
    Total Energy =                       -371.2305819922008254
  @DF-UKS Final Energy:  -371.24524267179800
    Total Energy =                       -371.2452426717979961
  @DF-UKS Final Energy:  -371.25423421268113
    Total Energy =                       -371.2542342126811263
  @DF-UKS Final Energy:  -371.25947939830701
    Total Energy =                       -371.2594793983069508
  @DF-UKS Final Energy:  -371.26227983547477
    Total Energy =                       -371.2622798354747147
  @DF-UKS Final Energy:  -371.26360804847405
    Total Energy =                       -371.2636080484741115
  @DF-UKS Final Energy:  -371.26415287931690
    Total Energy =                       -371.2641528793169527
  @DF-UKS Final Energy:  -371.26433229276040
    Total Energy =                       -371.2643322927604004
  @DF-UKS Final Energy:  -371.26437417374217
    Total Energy =                       -371.2643741737422260
  @DF-UKS Final Energy:  -371.26438079123193
    Total Energy =                       -371.2643807912319289
  Basis Set: (CC-PVDZ AUX)
    Blend: CC-PVDZ-JKFIT
  Basis Set: CC-PVDZ
    Blend: CC-PVDZ
  Basis Set: (CC-PVDZ AUX)
    Blend: CC-PVDZ-JKFIT
  @DF-UKS Final Energy:  -371.26438189771670
    Total Energy =                       -371.2643818977167030
  Basis Set: CC-PVDZ
    Blend: CC-PVDZ
  Basis Set: (CC-PVDZ AUX)
    Blend: CC-PVDZ-JKFIT
  Charge       = -1
  Multiplicity = 1
  Basis Set: CC-PVDZ
    Blend: CC-PVDZ
  Basis Set: (CC-PVDZ AUX)
    Blend: CC-PVDZ-JKFIT

    Orbital Energies [Eh]
    ---------------------

    Alpha Occupied:

       1A1   -55.825178     2A1   -30.833665     3A1    -3.904317
       4A1    -2.459665     1B1    -2.459618     1B2    -2.450360
       5A1    -1.298173     6A1    -0.407262     2B1    -0.406809
       2B2    -0.406161     7A1    -0.077079     3B2     0.106622

    Alpha Virtual:

       3B1     0.131984     8A1     0.136085     9A1     0.367812
       4B1     0.425166    10A1     0.431596     4B2     0.438373
       5B1     0.489874    11A1     0.489937     5B2     0.500836
       1A2     0.501002    12A1     0.510532     6B1     1.496224
       6B2     1.497610    13A1     1.530606    14A1     2.020494
       7B1     4.858703     2A2     4.858868    15A1     4.859069
       7B2     4.859115    16A1     4.859574

    Beta Occupied:

       1A1   -55.825178     2A1   -30.833665     3A1    -3.904317
       4A1    -2.459665     1B1    -2.459618     1B2    -2.450360
       5A1    -1.298173     6A1    -0.407262     2B1    -0.406809
       2B2    -0.406161     7A1    -0.077079     3B2     0.106622

    Beta Virtual:

       3B1     0.131984     8A1     0.136085     9A1     0.367812
       4B1     0.425166    10A1     0.431596     4B2     0.438373
       5B1     0.489874    11A1     0.489937     5B2     0.500836
       1A2     0.501002    12A1     0.510532     6B1     1.496224
       6B2     1.497610    13A1     1.530606    14A1     2.020494
       7B1     4.858703     2A2     4.858868    15A1     4.859069
       7B2     4.859115    16A1     4.859574

    Final Occupation by Irrep:
             A1    A2    B1    B2
    DOCC [     7,    0,    2,    3 ]
    SOCC [     0,    0,    0,    0 ]
    NA   [     7,    0,    2,    3 ]
    NB   [     7,    0,    2,    3 ]

  @DF-UKS Final Energy:  -371.26438215020528

   => Energetics <=

    Nuclear Repulsion Energy =             20.2761750806585326
    One-Electron Energy =                -564.2150736615208189
    Two-Electron Energy =                 197.8994978663919824
    DFT Exchange-Correlation Energy =     -25.2249814357349464
    Empirical Dispersion Energy =           0.0000000000000000
    VV10 Nonlocal Energy =                  0.0000000000000000
    Total Energy =                       -371.2643821502052788

  UHF NO Occupations:
  HONO-2 :    2 B1 2.0000000
  HONO-1 :    6 A1 2.0000000
  HONO-0 :    7 A1 2.0000000
  LUNO+0 :    8 A1 0.0000000
  LUNO+1 :    3 B1 0.0000000
  LUNO+2 :    9 A1 0.0000000
  LUNO+3 :   10 A1 0.0000000

Computation Completed

Properties will be evaluated at   0.000000,   0.000000,   0.000000 [a0]

Properties computed using the SCF density matrix

 Multipole Moments:

 ------------------------------------------------------------------------------------
     Multipole            Electronic (a.u.)      Nuclear  (a.u.)        Total (a.u.)
 ------------------------------------------------------------------------------------

 L = 1.  Multiply by 2.5417464519 to convert [e a0] to [Debye]
 Dipole X            :          0.0000000            0.0000000            0.0000000
 Dipole Y            :          0.0000000            0.0000000            0.0000000
 Dipole Z            :          1.4396594            1.3531132            2.7927726
 Magnitude           :                                                    2.7927726

 ------------------------------------------------------------------------------------

*** tstop() called on Joses-MacBook-Pro-2.local at Thu Jul 17 10:59:45 2025
Module time:
	user time   =       1.94 seconds =       0.03 minutes
	system time =       3.21 seconds =       0.05 minutes
	total time  =          1 seconds =       0.02 minutes
Total time:
	user time   =      68.30 seconds =       1.14 minutes
	system time =      97.21 seconds =       1.62 minutes
	total time  =         17 seconds =       0.28 minutes

*** tstart() called on Joses-MacBook-Pro-2.local
*** at Thu Jul 17 10:59:45 2025

         ------------------------------------------------------------
                                   SCF GRAD
                          Rob Parrish, Justin Turney,
                       Andy Simmonett, and Alex Sokolov
         ------------------------------------------------------------

  ==> Geometry <==

    Molecular point group: c2v
    Full point group: C_inf_v

    Geometry (in Angstrom), charge = -1, multiplicity = 1:

       Center              X                  Y                   Z               Mass
    ------------   -----------------  -----------------  -----------------  -----------------
         NE           0.000000000000     0.000000000000     1.948802446164    19.992440176200
         AL           0.000000000000     0.000000000000    -1.443999061686    26.981538530000

  Nuclear repulsion =   20.276175080658533

  ==> Basis Set <==

  Basis Set: CC-PVDZ
    Blend: CC-PVDZ
    Number of shells: 14
    Number of basis functions: 32
    Number of Cartesian functions: 34
    Spherical Harmonics?: true
    Max angular momentum: 2

  ==> DFJKGrad: Density-Fitted SCF Gradients <==

    Gradient:                    1
    J tasked:                  Yes
    K tasked:                  Yes
    wK tasked:                  No
    OpenMP threads:              1
    Integrals threads:           1
    Memory [MiB]:              375
    Schwarz Cutoff:          1E-12
    Fitting Condition:       1E-10

   => Auxiliary Basis Set <=

  Basis Set: (CC-PVDZ AUX)
    Blend: CC-PVDZ-JKFIT
    Number of shells: 60
    Number of basis functions: 182
    Number of Cartesian functions: 211
    Spherical Harmonics?: true
    Max angular momentum: 3

  ==> DFT Potential <==

   => LibXC <=

    Version 6.2.2
    S. Lehtola, C. Steigemann, M. J.T. Oliveira, and M. A.L. Marques.,  SoftwareX 7, 1â€“5 (2018) (10.1016/j.softx.2017.11.002)

   => Composite Functional: B3LYP <=

    B3LYP Hyb-GGA Exchange-Correlation Functional

    P. J. Stephens, F. J. Devlin, C. F. Chabalowski, and M. J. Frisch.,  J. Phys. Chem. 98, 11623 (1994) (10.1021/j100096a001)

    Deriv               =              1
    GGA                 =           TRUE
    Meta                =          FALSE

    Exchange Hybrid     =           TRUE
    MP2 Hybrid          =          FALSE

   => Exchange Functionals <=

    0.0800   Slater exchange
    0.7200         Becke 88

   => Exact (HF) Exchange <=

    0.2000               HF

   => Correlation Functionals <=

    0.1900   Vosko, Wilk & Nusair (VWN5_RPA)
    0.8100   Lee, Yang & Parr

   => LibXC Density Thresholds  <==

    XC_HYB_GGA_XC_B3LYP:  1.00E-15

   => Molecular Quadrature <=

    Radial Scheme          =       TREUTLER
    Pruning Scheme         =           NONE
    Nuclear Scheme         =       TREUTLER

    Blocking Scheme        =         OCTREE
    BS radius alpha        =              1
    Pruning alpha          =              1
    Radial Points          =             75
    Spherical Points       =            302
    Total Points           =          43550
    Total Blocks           =            409
    Max Points             =            253
    Max Functions          =             32
    Weights Tolerance      =       1.00E-15

  -Total Gradient:
     Atom            X                  Y                   Z
    ------   -----------------  -----------------  -----------------
       1       -0.000000000000     0.000000000000     0.000019559345
       2        0.000000000000    -0.000000000000     0.000023342506

*** tstop() called on Joses-MacBook-Pro-2.local at Thu Jul 17 10:59:45 2025
Module time:
	user time   =       0.74 seconds =       0.01 minutes
	system time =       1.70 seconds =       0.03 minutes
	total time  =          0 seconds =       0.00 minutes
Total time:
	user time   =      69.04 seconds =       1.15 minutes
	system time =      98.91 seconds =       1.65 minutes
	total time  =         17 seconds =       0.28 minutes

    			-----------------------------------------

    			 OPTKING 3.0: for geometry optimizations

    			     By R.A. King, Bethel University

    			        with contributions from

    			    A.V. Copan, J. Cayton, A. Heide

    			-----------------------------------------

	                            ===> Fragment 1 <==

	 Z (Atomic Numbers)          Masses                          Geom
	      10.000000            19.992440          0.00000000  0.00000000  3.68270290
	      13.000000            26.981539          0.00000000  0.00000000 -2.72876275

	 - Coordinate -           - BOHR/RAD -       - ANG/DEG -
	 R(1,2)           =         6.411466           3.392802

	        --- Internal Coordinate Step in ANG or DEG, aJ/ANG or AJ/DEG ---
	-------------------------------------------------------------------------------
	           Coordinate      Previous         Force          Change          New
	           ----------      --------        ------          ------        ------
	               R(1,2)       3.39280        0.00002        0.00042       3.39323
	-------------------------------------------------------------------------------

	                                 ==> Convergence Check <==

	Measures of convergence in internal coordinates in au.

	Criteria marked as inactive (o), active & met (*), and active & unmet ( ).

	----------------------------------------------------------------------------------------------
	   Step    Total Energy     Delta E     Max Force     RMS Force      Max Disp      RMS Disp
	----------------------------------------------------------------------------------------------
	  Convergence Criteria     1.00e-06 *    3.00e-04 *             o    1.20e-03 *             o
	----------------------------------------------------------------------------------------------
	    17    -371.26438215   -2.52e-07 *    1.89e-06 *    1.89e-06 o    8.02e-04 *    8.02e-04 o  ~
	----------------------------------------------------------------------------------------------

Next Geometry in Ang
	Fragment 1 (Ang)

	   Ne   0.0000000000   0.0000000000   1.9490147526
	   Al   0.0000000000   0.0000000000  -1.4442113682

    Final optimized geometry and variables:
    Molecular point group: c2v
    Full point group: C_inf_v

    Geometry (in Angstrom), charge = -1, multiplicity = 1:

    NE           0.000000000000     0.000000000000     1.948802446164
    AL           0.000000000000     0.000000000000    -1.443999061686

    Psi4 stopped on: Thursday, 17 July 2025 10:59AM
    Psi4 wall time for execution: 0:00:17.74

*** Psi4 exiting successfully. Buy a developer a beer!
