                               Psi4 1.9.1 release

  ==> Input File <==

--------------------------------------------------------------------------
molecule {
-1 1
Al   0.00000        0.60000        0.00000
Ar   0.00000       -0.60000        0.00000
}

set {
basis              cc-pvdz
reference          uks
maxiter            500
geom_maxiter       500
DAMPING_PERCENTAGE 1
guess              SAP
}

optimize('b3lyp')
--------------------------------------------------------------------------

    Molecular point group: c2v
  Charge       = -1
  Multiplicity = 1
  Basis Set: CC-PVDZ
    Blend: CC-PVDZ
  Basis Set: (CC-PVDZ AUX)
    Blend: CC-PVDZ-JKFIT
  @DF-UKS Final Energy:  -768.46467993098088
    Total Energy =                       -768.4646799309808785
 Dipole X            :          0.0000000            0.0000000            0.0000000
 Dipole Y            :          0.0000000            0.0000000            0.0000000
 Dipole Z            :         -4.7514904            1.1464141           -3.6050764
 Magnitude           :                                                    3.6050764
    Molecular point group: c2v
  Basis Set: CC-PVDZ
    Blend: CC-PVDZ
  Basis Set: (CC-PVDZ AUX)
    Blend: CC-PVDZ-JKFIT
  Basis Set: CC-PVDZ
    Blend: CC-PVDZ
  Basis Set: (CC-PVDZ AUX)
    Blend: CC-PVDZ-JKFIT
  @DF-UKS Final Energy:  -768.50138994739689
    Total Energy =                       -768.5013899473968877
  Basis Set: CC-PVDZ
    Blend: CC-PVDZ
  Basis Set: (CC-PVDZ AUX)
    Blend: CC-PVDZ-JKFIT
  Basis Set: CC-PVDZ
    Blend: CC-PVDZ
  @DF-UKS Final Energy:  -768.57010363624181
    Total Energy =                       -768.5701036362418108
  @DF-UKS Final Energy:  -768.79871408242082
    Total Energy =                       -768.7987140824208154
  @DF-UKS Final Energy:  -769.34699560463275
    Total Energy =                       -769.3469956046327525
  @DF-UKS Final Energy:  -769.54562678701120
    Total Energy =                       -769.5456267870112015
  @DF-UKS Final Energy:  -769.68125500932626
    Total Energy =                       -769.6812550093263781
  @DF-UKS Final Energy:  -769.76937570125915
    Total Energy =                       -769.7693757012592641
  @DF-UKS Final Energy:  -769.82057830795486
    Total Energy =                       -769.8205783079548610
  @DF-UKS Final Energy:  -769.85219806170528
    Total Energy =                       -769.8521980617052805
  @DF-UKS Final Energy:  -769.87142140551498
    Total Energy =                       -769.8714214055149796
  @DF-UKS Final Energy:  -769.88271801615701
    Total Energy =                       -769.8827180161569004
  @DF-UKS Final Energy:  -769.88904761733033
    Total Energy =                       -769.8890476173302204
  @DF-UKS Final Energy:  -769.89243778019727
    Total Energy =                       -769.8924377801972696
  @DF-UKS Final Energy:  -769.89419418120804
    Total Energy =                       -769.8941941812080358
  @DF-UKS Final Energy:  -769.89508322796610
    Total Energy =                       -769.8950832279662109
  @DF-UKS Final Energy:  -769.89552226802039
    Total Energy =                       -769.8955222680203860
  @DF-UKS Final Energy:  -769.89573087800477
    Total Energy =                       -769.8957308780047697
  @DF-UKS Final Energy:  -769.89582418020882
    Total Energy =                       -769.8958241802087059
  @DF-UKS Final Energy:  -769.89586105866431
    Total Energy =                       -769.8958610586644227
  @DF-UKS Final Energy:  -769.89587541419985
    Total Energy =                       -769.8958754141998497
  Basis Set: (CC-PVDZ AUX)
    Blend: CC-PVDZ-JKFIT
  Basis Set: CC-PVDZ
    Blend: CC-PVDZ
  Basis Set: (CC-PVDZ AUX)
    Blend: CC-PVDZ-JKFIT
  @DF-UKS Final Energy:  -769.89587831173981
    Total Energy =                       -769.8958783117398070
  Basis Set: CC-PVDZ
    Blend: CC-PVDZ
  Basis Set: (CC-PVDZ AUX)
    Blend: CC-PVDZ-JKFIT
  Charge       = -1
  Multiplicity = 1
  Basis Set: CC-PVDZ
    Blend: CC-PVDZ
  Basis Set: (CC-PVDZ AUX)
    Blend: CC-PVDZ-JKFIT

    Orbital Energies [Eh]
    ---------------------

    Alpha Occupied:

       1A1  -114.993091     2A1   -55.826914     3A1   -11.029165
       1B1    -8.579086     1B2    -8.579040     4A1    -8.578972
       5A1    -3.906009     6A1    -2.461342     2B1    -2.461337
       2B2    -2.452061     7A1    -0.857427     3B1    -0.315782
       3B2    -0.315332     8A1    -0.314254     9A1    -0.078844
       4B2     0.105481

    Alpha Virtual:

       4B1     0.130943    10A1     0.131383    11A1     0.362800
      12A1     0.421649     5B1     0.423808     5B2     0.436865
      13A1     0.487090     6B1     0.488700     6B2     0.499656
       1A2     0.499793    14A1     0.508783     7B1     0.688392
       7B2     0.689395    15A1     0.715288    16A1     0.855093
       2A2     0.942329    17A1     0.942354     8B1     0.943018
       8B2     0.943297    18A1     0.945246

    Beta Occupied:

       1A1  -114.993091     2A1   -55.826914     3A1   -11.029165
       1B1    -8.579086     1B2    -8.579040     4A1    -8.578972
       5A1    -3.906009     6A1    -2.461342     2B1    -2.461337
       2B2    -2.452061     7A1    -0.857427     3B1    -0.315782
       3B2    -0.315332     8A1    -0.314254     9A1    -0.078844
       4B2     0.105481

    Beta Virtual:

       4B1     0.130943    10A1     0.131383    11A1     0.362800
      12A1     0.421649     5B1     0.423808     5B2     0.436865
      13A1     0.487090     6B1     0.488700     6B2     0.499656
       1A2     0.499793    14A1     0.508783     7B1     0.688392
       7B2     0.689395    15A1     0.715288    16A1     0.855093
       2A2     0.942329    17A1     0.942354     8B1     0.943018
       8B2     0.943297    18A1     0.945246

    Final Occupation by Irrep:
             A1    A2    B1    B2
    DOCC [     9,    0,    3,    4 ]
    SOCC [     0,    0,    0,    0 ]
    NA   [     9,    0,    3,    4 ]
    NB   [     9,    0,    3,    4 ]

  @DF-UKS Final Energy:  -769.89587889040536

   => Energetics <=

    Nuclear Repulsion Energy =             26.8329711292488362
    One-Electron Energy =               -1123.7168322004617949
    Two-Electron Energy =                 366.9883525456653501
    DFT Exchange-Correlation Energy =     -40.0003703648576590
    Empirical Dispersion Energy =           0.0000000000000000
    VV10 Nonlocal Energy =                  0.0000000000000000
    Total Energy =                       -769.8958788904053563

  UHF NO Occupations:
  HONO-2 :    7 A1 2.0000000
  HONO-1 :    8 A1 2.0000000
  HONO-0 :    9 A1 2.0000000
  LUNO+0 :    4 B1 0.0000000
  LUNO+1 :   10 A1 0.0000000
  LUNO+2 :   11 A1 0.0000000
  LUNO+3 :   12 A1 0.0000000

Computation Completed

Properties will be evaluated at   0.000000,   0.000000,   0.000000 [a0]

Properties computed using the SCF density matrix

 Multipole Moments:

 ------------------------------------------------------------------------------------
     Multipole            Electronic (a.u.)      Nuclear  (a.u.)        Total (a.u.)
 ------------------------------------------------------------------------------------

 L = 1.  Multiply by 2.5417464519 to convert [e a0] to [Debye]
 Dipole X            :          0.0000000            0.0000000            0.0000000
 Dipole Y            :          0.0000000            0.0000000            0.0000000
 Dipole Z            :         -9.5835346            4.4086790           -5.1748556
 Magnitude           :                                                    5.1748556

 ------------------------------------------------------------------------------------

*** tstop() called on Joses-MacBook-Pro-2.local at Thu Jul 17 11:43:51 2025
Module time:
	user time   =       9.66 seconds =       0.16 minutes
	system time =       2.66 seconds =       0.04 minutes
	total time  =          2 seconds =       0.03 minutes
Total time:
	user time   =     412.26 seconds =       6.87 minutes
	system time =      83.82 seconds =       1.40 minutes
	total time  =         51 seconds =       0.85 minutes

*** tstart() called on Joses-MacBook-Pro-2.local
*** at Thu Jul 17 11:43:51 2025

         ------------------------------------------------------------
                                   SCF GRAD
                          Rob Parrish, Justin Turney,
                       Andy Simmonett, and Alex Sokolov
         ------------------------------------------------------------

  ==> Geometry <==

    Molecular point group: c2v
    Full point group: C_inf_v

    Geometry (in Angstrom), charge = -1, multiplicity = 1:

       Center              X                  Y                   Z               Mass
    ------------   -----------------  -----------------  -----------------  -----------------
         AL           0.000000000000     0.000000000000     2.754789732723    26.981538530000
         AR           0.000000000000     0.000000000000    -1.859960780753    39.962383123700

  Nuclear repulsion =   26.832971129248836

  ==> Basis Set <==

  Basis Set: CC-PVDZ
    Blend: CC-PVDZ
    Number of shells: 16
    Number of basis functions: 36
    Number of Cartesian functions: 38
    Spherical Harmonics?: true
    Max angular momentum: 2

  ==> DFJKGrad: Density-Fitted SCF Gradients <==

    Gradient:                    1
    J tasked:                  Yes
    K tasked:                  Yes
    wK tasked:                  No
    OpenMP threads:              1
    Integrals threads:           1
    Memory [MiB]:              375
    Schwarz Cutoff:          1E-12
    Fitting Condition:       1E-10

   => Auxiliary Basis Set <=

  Basis Set: (CC-PVDZ AUX)
    Blend: CC-PVDZ-JKFIT
    Number of shells: 72
    Number of basis functions: 224
    Number of Cartesian functions: 260
    Spherical Harmonics?: true
    Max angular momentum: 3

  ==> DFT Potential <==

   => LibXC <=

    Version 6.2.2
    S. Lehtola, C. Steigemann, M. J.T. Oliveira, and M. A.L. Marques.,  SoftwareX 7, 1â€“5 (2018) (10.1016/j.softx.2017.11.002)

   => Composite Functional: B3LYP <=

    B3LYP Hyb-GGA Exchange-Correlation Functional

    P. J. Stephens, F. J. Devlin, C. F. Chabalowski, and M. J. Frisch.,  J. Phys. Chem. 98, 11623 (1994) (10.1021/j100096a001)

    Deriv               =              1
    GGA                 =           TRUE
    Meta                =          FALSE

    Exchange Hybrid     =           TRUE
    MP2 Hybrid          =          FALSE

   => Exchange Functionals <=

    0.0800   Slater exchange
    0.7200         Becke 88

   => Exact (HF) Exchange <=

    0.2000               HF

   => Correlation Functionals <=

    0.1900   Vosko, Wilk & Nusair (VWN5_RPA)
    0.8100   Lee, Yang & Parr

   => LibXC Density Thresholds  <==

    XC_HYB_GGA_XC_B3LYP:  1.00E-15

   => Molecular Quadrature <=

    Radial Scheme          =       TREUTLER
    Pruning Scheme         =           NONE
    Nuclear Scheme         =       TREUTLER

    Blocking Scheme        =         OCTREE
    BS radius alpha        =              1
    Pruning alpha          =              1
    Radial Points          =             75
    Spherical Points       =            302
    Total Points           =          42829
    Total Blocks           =            447
    Max Points             =            254
    Max Functions          =             36
    Weights Tolerance      =       1.00E-15

  -Total Gradient:
     Atom            X                  Y                   Z
    ------   -----------------  -----------------  -----------------
       1        0.000000000000     0.000000000000    -0.000010583152
       2        0.000000000000     0.000000000000     0.000000912589

*** tstop() called on Joses-MacBook-Pro-2.local at Thu Jul 17 11:43:51 2025
Module time:
	user time   =       2.30 seconds =       0.04 minutes
	system time =       1.61 seconds =       0.03 minutes
	total time  =          0 seconds =       0.00 minutes
Total time:
	user time   =     414.56 seconds =       6.91 minutes
	system time =      85.44 seconds =       1.42 minutes
	total time  =         51 seconds =       0.85 minutes

    			-----------------------------------------

    			 OPTKING 3.0: for geometry optimizations

    			     By R.A. King, Bethel University

    			        with contributions from

    			    A.V. Copan, J. Cayton, A. Heide

    			-----------------------------------------

	                            ===> Fragment 1 <==

	 Z (Atomic Numbers)          Masses                          Geom
	      13.000000            26.981539          0.00000000  0.00000000  5.20579813
	      18.000000            39.962383          0.00000000  0.00000000 -3.51481648

	 - Coordinate -           - BOHR/RAD -       - ANG/DEG -
	 R(1,2)           =         8.720615           4.614751

	        --- Internal Coordinate Step in ANG or DEG, aJ/ANG or AJ/DEG ---
	-------------------------------------------------------------------------------
	           Coordinate      Previous         Force          Change          New
	           ----------      --------        ------          ------        ------
	               R(1,2)       4.61475        0.00005        0.01435       4.62910
	-------------------------------------------------------------------------------

	                                 ==> Convergence Check <==

	Measures of convergence in internal coordinates in au.

	Criteria marked as inactive (o), active & met (*), and active & unmet ( ).

	----------------------------------------------------------------------------------------------
	   Step    Total Energy     Delta E     Max Force     RMS Force      Max Disp      RMS Disp
	----------------------------------------------------------------------------------------------
	  Convergence Criteria     1.00e-06 *    3.00e-04 *             o    1.20e-03 *             o
	----------------------------------------------------------------------------------------------
	    23    -769.89587889   -5.79e-07 *    5.75e-06 *    5.75e-06 o    2.71e-02      2.71e-02 o  ~
	----------------------------------------------------------------------------------------------

Next Geometry in Ang
	Fragment 1 (Ang)

	   Al   0.0000000000   0.0000000000   2.7619645963
	   Ar   0.0000000000   0.0000000000  -1.8671356444

    Final optimized geometry and variables:
    Molecular point group: c2v
    Full point group: C_inf_v

    Geometry (in Angstrom), charge = -1, multiplicity = 1:

    AL           0.000000000000     0.000000000000     2.754789732723
    AR           0.000000000000     0.000000000000    -1.859960780753

    Psi4 stopped on: Thursday, 17 July 2025 11:43AM
    Psi4 wall time for execution: 0:00:52.32

*** Psi4 exiting successfully. Buy a developer a beer!
