                               Psi4 1.9.1 release

  ==> Input File <==

--------------------------------------------------------------------------
molecule {
-1 1
C   0.00000        0.60000        0.00000
Cl   0.00000       -0.60000        0.00000
}

set {
basis              cc-pvdz
reference          uks
maxiter            500
geom_maxiter       500
DAMPING_PERCENTAGE 1
guess              SAP
}

optimize('b3lyp')
--------------------------------------------------------------------------

    Molecular point group: c2v
  Charge       = -1
  Multiplicity = 1
  Basis Set: CC-PVDZ
    Blend: CC-PVDZ
  Basis Set: (CC-PVDZ AUX)
    Blend: CC-PVDZ-JKFIT
  @DF-UKS Final Energy:  -497.75554227719977
    Total Energy =                       -497.7555422771997655
 Dipole X            :          0.0000000            0.0000000            0.0000000
 Dipole Y            :          0.0000000            0.0000000            0.0000000
 Dipole Z            :         -2.2469207            0.2806591           -1.9662616
 Magnitude           :                                                    1.9662616
    Molecular point group: c2v
  Basis Set: CC-PVDZ
    Blend: CC-PVDZ
  Basis Set: (CC-PVDZ AUX)
    Blend: CC-PVDZ-JKFIT
  Basis Set: CC-PVDZ
    Blend: CC-PVDZ
  Basis Set: (CC-PVDZ AUX)
    Blend: CC-PVDZ-JKFIT
  @DF-UKS Final Energy:  -497.95795592788176
    Total Energy =                       -497.9579559278817555
  Basis Set: CC-PVDZ
    Blend: CC-PVDZ
  Basis Set: (CC-PVDZ AUX)
    Blend: CC-PVDZ-JKFIT
  Basis Set: CC-PVDZ
    Blend: CC-PVDZ
  @DF-UKS Final Energy:  -498.05214652264522
    Total Energy =                       -498.0521465226452165
  @DF-UKS Final Energy:  -498.08755066368235
    Total Energy =                       -498.0875506636823502
  @DF-UKS Final Energy:  -498.11048479940837
    Total Energy =                       -498.1104847994084253
  @DF-UKS Final Energy:  -498.12310090659514
    Total Energy =                       -498.1231009065951412
  @DF-UKS Final Energy:  -498.12853038437066
    Total Energy =                       -498.1285303843706629
  @DF-UKS Final Energy:  -498.13027606423231
    Total Energy =                       -498.1302760642323619
  @DF-UKS Final Energy:  -498.13105879992906
    Total Energy =                       -498.1310587999290647
  @DF-UKS Final Energy:  -498.13126851446196
    Total Energy =                       -498.1312685144619650
  @DF-UKS Final Energy:  -498.13134022845105
    Total Energy =                       -498.1313402284510516
  Basis Set: (CC-PVDZ AUX)
    Blend: CC-PVDZ-JKFIT
  Basis Set: CC-PVDZ
    Blend: CC-PVDZ
  Basis Set: (CC-PVDZ AUX)
    Blend: CC-PVDZ-JKFIT
  @DF-UKS Final Energy:  -498.13135346716314
    Total Energy =                       -498.1313534671631373
  Basis Set: CC-PVDZ
    Blend: CC-PVDZ
  Basis Set: (CC-PVDZ AUX)
    Blend: CC-PVDZ-JKFIT
  Charge       = -1
  Multiplicity = 1
  Basis Set: CC-PVDZ
    Blend: CC-PVDZ
  Basis Set: (CC-PVDZ AUX)
    Blend: CC-PVDZ-JKFIT

    Orbital Energies [Eh]
    ---------------------

    Alpha Occupied:

       1A1  -101.284499     2A1    -9.956397     3A1    -9.200163
       4A1    -6.959740     1B2    -6.956459     1B1    -6.953421
       5A1    -0.561544     6A1    -0.259080     2B2    -0.087067
       2B1    -0.080003     7A1    -0.053397     3B1     0.122462

    Alpha Virtual:

       3B2     0.175469     8A1     0.282833     9A1     0.720239
       4B2     0.759133     4B1     0.767909    10A1     0.770801
       5B2     0.803927     5B1     0.811448    11A1     0.833140
       6B2     0.961091     6B1     0.971978     1A2     0.985448
      12A1     0.985591    13A1     1.047516    14A1     1.270435
       2A2     1.473075    15A1     1.480870     7B2     1.583207
       7B1     1.606893    16A1     1.983004

    Beta Occupied:

       1A1  -101.284499     2A1    -9.956397     3A1    -9.200163
       4A1    -6.959740     1B2    -6.956459     1B1    -6.953421
       5A1    -0.561544     6A1    -0.259080     2B2    -0.087067
       2B1    -0.080003     7A1    -0.053397     3B1     0.122462

    Beta Virtual:

       3B2     0.175469     8A1     0.282833     9A1     0.720239
       4B2     0.759133     4B1     0.767909    10A1     0.770801
       5B2     0.803927     5B1     0.811448    11A1     0.833140
       6B2     0.961091     6B1     0.971978     1A2     0.985448
      12A1     0.985591    13A1     1.047516    14A1     1.270435
       2A2     1.473075    15A1     1.480870     7B2     1.583207
       7B1     1.606893    16A1     1.983004

    Final Occupation by Irrep:
             A1    A2    B1    B2
    DOCC [     7,    0,    3,    2 ]
    SOCC [     0,    0,    0,    0 ]
    NA   [     7,    0,    3,    2 ]
    NB   [     7,    0,    3,    2 ]

  @DF-UKS Final Energy:  -498.13135451639573

   => Energetics <=

    Nuclear Repulsion Energy =             28.0345402701282929
    One-Electron Energy =                -748.4776459790364243
    Two-Electron Energy =                 249.5410859214520372
    DFT Exchange-Correlation Energy =     -27.2293347289396408
    Empirical Dispersion Energy =           0.0000000000000000
    VV10 Nonlocal Energy =                  0.0000000000000000
    Total Energy =                       -498.1313545163957315

  UHF NO Occupations:
  HONO-2 :    6 A1 2.0000000
  HONO-1 :    2 B2 2.0000000
  HONO-0 :    7 A1 2.0000000
  LUNO+0 :    3 B2 0.0000000
  LUNO+1 :    8 A1 0.0000000
  LUNO+2 :    9 A1 0.0000000
  LUNO+3 :   10 A1 0.0000000

Computation Completed

Properties will be evaluated at   0.000000,   0.000000,   0.000000 [a0]

Properties computed using the SCF density matrix

 Multipole Moments:

 ------------------------------------------------------------------------------------
     Multipole            Electronic (a.u.)      Nuclear  (a.u.)        Total (a.u.)
 ------------------------------------------------------------------------------------

 L = 1.  Multiply by 2.5417464519 to convert [e a0] to [Debye]
 Dipole X            :          0.0000000            0.0000000            0.0000000
 Dipole Y            :          0.0000000            0.0000000            0.0000000
 Dipole Z            :         -1.8656265            0.4503040           -1.4153225
 Magnitude           :                                                    1.4153225

 ------------------------------------------------------------------------------------

*** tstop() called on Joses-MacBook-Pro-2.local at Thu Jul 17 10:22:44 2025
Module time:
	user time   =       5.78 seconds =       0.10 minutes
	system time =       1.92 seconds =       0.03 minutes
	total time  =          1 seconds =       0.02 minutes
Total time:
	user time   =      77.05 seconds =       1.28 minutes
	system time =      57.18 seconds =       0.95 minutes
	total time  =         14 seconds =       0.23 minutes

*** tstart() called on Joses-MacBook-Pro-2.local
*** at Thu Jul 17 10:22:44 2025

         ------------------------------------------------------------
                                   SCF GRAD
                          Rob Parrish, Justin Turney,
                       Andy Simmonett, and Alex Sokolov
         ------------------------------------------------------------

  ==> Geometry <==

    Molecular point group: c2v
    Full point group: C_inf_v

    Geometry (in Angstrom), charge = -1, multiplicity = 1:

       Center              X                  Y                   Z               Mass
    ------------   -----------------  -----------------  -----------------  -----------------
         C            0.000000000000     0.000000000000     1.433439268614    12.000000000000
         CL           0.000000000000     0.000000000000    -0.491902647759    34.968852682000

  Nuclear repulsion =   28.034540270128293

  ==> Basis Set <==

  Basis Set: CC-PVDZ
    Blend: CC-PVDZ
    Number of shells: 14
    Number of basis functions: 32
    Number of Cartesian functions: 34
    Spherical Harmonics?: true
    Max angular momentum: 2

  ==> DFJKGrad: Density-Fitted SCF Gradients <==

    Gradient:                    1
    J tasked:                  Yes
    K tasked:                  Yes
    wK tasked:                  No
    OpenMP threads:              1
    Integrals threads:           1
    Memory [MiB]:              375
    Schwarz Cutoff:          1E-12
    Fitting Condition:       1E-10

   => Auxiliary Basis Set <=

  Basis Set: (CC-PVDZ AUX)
    Blend: CC-PVDZ-JKFIT
    Number of shells: 60
    Number of basis functions: 182
    Number of Cartesian functions: 211
    Spherical Harmonics?: true
    Max angular momentum: 3

  ==> DFT Potential <==

   => LibXC <=

    Version 6.2.2
    S. Lehtola, C. Steigemann, M. J.T. Oliveira, and M. A.L. Marques.,  SoftwareX 7, 1â€“5 (2018) (10.1016/j.softx.2017.11.002)

   => Composite Functional: B3LYP <=

    B3LYP Hyb-GGA Exchange-Correlation Functional

    P. J. Stephens, F. J. Devlin, C. F. Chabalowski, and M. J. Frisch.,  J. Phys. Chem. 98, 11623 (1994) (10.1021/j100096a001)

    Deriv               =              1
    GGA                 =           TRUE
    Meta                =          FALSE

    Exchange Hybrid     =           TRUE
    MP2 Hybrid          =          FALSE

   => Exchange Functionals <=

    0.0800   Slater exchange
    0.7200         Becke 88

   => Exact (HF) Exchange <=

    0.2000               HF

   => Correlation Functionals <=

    0.1900   Vosko, Wilk & Nusair (VWN5_RPA)
    0.8100   Lee, Yang & Parr

   => LibXC Density Thresholds  <==

    XC_HYB_GGA_XC_B3LYP:  1.00E-15

   => Molecular Quadrature <=

    Radial Scheme          =       TREUTLER
    Pruning Scheme         =           NONE
    Nuclear Scheme         =       TREUTLER

    Blocking Scheme        =         OCTREE
    BS radius alpha        =              1
    Pruning alpha          =              1
    Radial Points          =             75
    Spherical Points       =            302
    Total Points           =          41134
    Total Blocks           =            366
    Max Points             =            256
    Max Functions          =             32
    Weights Tolerance      =       1.00E-15

  -Total Gradient:
     Atom            X                  Y                   Z
    ------   -----------------  -----------------  -----------------
       1        0.000000000000    -0.000000000000    -0.000080572782
       2        0.000000000000     0.000000000000     0.000075255344

*** tstop() called on Joses-MacBook-Pro-2.local at Thu Jul 17 10:22:45 2025
Module time:
	user time   =       2.32 seconds =       0.04 minutes
	system time =       0.74 seconds =       0.01 minutes
	total time  =          1 seconds =       0.02 minutes
Total time:
	user time   =      79.37 seconds =       1.32 minutes
	system time =      57.93 seconds =       0.97 minutes
	total time  =         15 seconds =       0.25 minutes

    			-----------------------------------------

    			 OPTKING 3.0: for geometry optimizations

    			     By R.A. King, Bethel University

    			        with contributions from

    			    A.V. Copan, J. Cayton, A. Heide

    			-----------------------------------------

	                            ===> Fragment 1 <==

	 Z (Atomic Numbers)          Masses                          Geom
	       6.000000            12.000000          0.00000000  0.00000000  2.70880764
	      17.000000            34.968853          0.00000000  0.00000000 -0.92956128

	 - Coordinate -           - BOHR/RAD -       - ANG/DEG -
	 R(1,2)           =         3.638369           1.925342

	        --- Internal Coordinate Step in ANG or DEG, aJ/ANG or AJ/DEG ---
	-------------------------------------------------------------------------------
	           Coordinate      Previous         Force          Change          New
	           ----------      --------        ------          ------        ------
	               R(1,2)       1.92534        0.00064        0.00047       1.92581
	-------------------------------------------------------------------------------

	                                 ==> Convergence Check <==

	Measures of convergence in internal coordinates in au.

	Criteria marked as inactive (o), active & met (*), and active & unmet ( ).

	----------------------------------------------------------------------------------------------
	   Step    Total Energy     Delta E     Max Force     RMS Force      Max Disp      RMS Disp
	----------------------------------------------------------------------------------------------
	  Convergence Criteria     1.00e-06 *    3.00e-04 *             o    1.20e-03 *             o
	----------------------------------------------------------------------------------------------
	    13    -498.13135452   -1.05e-06      7.79e-05 *    7.79e-05 o    8.94e-04 *    8.94e-04 o  ~
	----------------------------------------------------------------------------------------------

Next Geometry in Ang
	Fragment 1 (Ang)

	    C   0.0000000000   0.0000000000   1.4336757756
	   Cl   0.0000000000   0.0000000000  -0.4921391547

    Final optimized geometry and variables:
    Molecular point group: c2v
    Full point group: C_inf_v

    Geometry (in Angstrom), charge = -1, multiplicity = 1:

    C            0.000000000000     0.000000000000     1.433439268614
    CL           0.000000000000     0.000000000000    -0.491902647759

    Psi4 stopped on: Thursday, 17 July 2025 10:22AM
    Psi4 wall time for execution: 0:00:15.12

*** Psi4 exiting successfully. Buy a developer a beer!
