                               Psi4 1.9.1 release

  ==> Input File <==

--------------------------------------------------------------------------
molecule {
-1 1
B   0.00000        0.60000        0.00000
S   0.00000       -0.60000        0.00000
}

set {
basis              cc-pvdz
reference          uks
maxiter            500
geom_maxiter       500
DAMPING_PERCENTAGE 1
guess              SAP
}

optimize('b3lyp')
--------------------------------------------------------------------------

    Molecular point group: c2v
  Charge       = -1
  Multiplicity = 1
  Basis Set: CC-PVDZ
    Blend: CC-PVDZ
  Basis Set: (CC-PVDZ AUX)
    Blend: CC-PVDZ-JKFIT
  @DF-UKS Final Energy:  -422.68989507259408
    Total Energy =                       -422.6898950725941404
 Dipole X            :          0.0000000            0.0000000            0.0000000
 Dipole Y            :          0.0000000            0.0000000            0.0000000
 Dipole Z            :         -1.1883277           -0.8593730           -2.0477007
 Magnitude           :                                                    2.0477007
    Molecular point group: c2v
  Basis Set: CC-PVDZ
    Blend: CC-PVDZ
  Basis Set: (CC-PVDZ AUX)
    Blend: CC-PVDZ-JKFIT
  Basis Set: CC-PVDZ
    Blend: CC-PVDZ
  Basis Set: (CC-PVDZ AUX)
    Blend: CC-PVDZ-JKFIT
  @DF-UKS Final Energy:  -422.91141216798593
    Total Energy =                       -422.9114121679858727
  Basis Set: CC-PVDZ
    Blend: CC-PVDZ
  Basis Set: (CC-PVDZ AUX)
    Blend: CC-PVDZ-JKFIT
  Basis Set: CC-PVDZ
    Blend: CC-PVDZ
  @DF-UKS Final Energy:  -423.01003170556567
    Total Energy =                       -423.0100317055656660
  @DF-UKS Final Energy:  -423.04759989742337
    Total Energy =                       -423.0475998974233676
  @DF-UKS Final Energy:  -423.05708207370401
    Total Energy =                       -423.0570820737040094
  @DF-UKS Final Energy:  -423.06065660416004
    Total Energy =                       -423.0606566041600445
  @DF-UKS Final Energy:  -423.06132932614946
    Total Energy =                       -423.0613293261494050
  @DF-UKS Final Energy:  -423.06146939628781
    Total Energy =                       -423.0614693962878619
  Basis Set: (CC-PVDZ AUX)
    Blend: CC-PVDZ-JKFIT
  Basis Set: CC-PVDZ
    Blend: CC-PVDZ
  Basis Set: (CC-PVDZ AUX)
    Blend: CC-PVDZ-JKFIT
  @DF-UKS Final Energy:  -423.06150524770504
    Total Energy =                       -423.0615052477050426
  Basis Set: CC-PVDZ
    Blend: CC-PVDZ
  Basis Set: (CC-PVDZ AUX)
    Blend: CC-PVDZ-JKFIT
  Charge       = -1
  Multiplicity = 1
  Basis Set: CC-PVDZ
    Blend: CC-PVDZ
  Basis Set: (CC-PVDZ AUX)
    Blend: CC-PVDZ-JKFIT

    Orbital Energies [Eh]
    ---------------------

    Alpha Occupied:

       1A1   -88.607181     2A1    -7.671868     3A1    -6.539566
       4A1    -5.631794     1B1    -5.631396     1B2    -5.631396
       5A1    -0.457415     6A1    -0.156175     2B2    -0.040492
       2B1    -0.040492     7A1     0.023627

    Alpha Virtual:

       3B2     0.206070     3B1     0.206070     8A1     0.352742
       9A1     0.484177     4B2     0.531185     4B1     0.531185
      10A1     0.598490    11A1     0.719144     5B2     0.738396
       5B1     0.738396    12A1     0.813880     1A2     0.813880
       6B2     0.831312     6B1     0.831312    13A1     0.988074
      14A1     1.027725     2A2     1.027725    15A1     1.283256
       7B1     1.315218     7B2     1.315218    16A1     1.530028

    Beta Occupied:

       1A1   -88.607181     2A1    -7.671868     3A1    -6.539566
       4A1    -5.631794     1B1    -5.631396     1B2    -5.631396
       5A1    -0.457415     6A1    -0.156175     2B2    -0.040492
       2B1    -0.040492     7A1     0.023627

    Beta Virtual:

       3B2     0.206070     3B1     0.206070     8A1     0.352742
       9A1     0.484177     4B2     0.531185     4B1     0.531185
      10A1     0.598490    11A1     0.719144     5B2     0.738396
       5B1     0.738396    12A1     0.813880     1A2     0.813880
       6B2     0.831312     6B1     0.831312    13A1     0.988074
      14A1     1.027725     2A2     1.027725    15A1     1.283256
       7B1     1.315218     7B2     1.315218    16A1     1.530028

    Final Occupation by Irrep:
             A1    A2    B1    B2
    DOCC [     7,    0,    2,    2 ]
    SOCC [     0,    0,    0,    0 ]
    NA   [     7,    0,    2,    2 ]
    NB   [     7,    0,    2,    2 ]

  @DF-UKS Final Energy:  -423.06150873398298

   => Energetics <=

    Nuclear Repulsion Energy =             24.6996079934503889
    One-Electron Energy =                -637.5710559369053954
    Two-Electron Energy =                 213.9214022249508673
    DFT Exchange-Correlation Energy =     -24.1114630154787974
    Empirical Dispersion Energy =           0.0000000000000000
    VV10 Nonlocal Energy =                  0.0000000000000000
    Total Energy =                       -423.0615087339829756

  UHF NO Occupations:
  HONO-2 :    6 A1 2.0000000
  HONO-1 :    7 A1 2.0000000
  HONO-0 :    2 B1 2.0000000
  LUNO+0 :    3 B1 0.0000000
  LUNO+1 :    8 A1 0.0000000
  LUNO+2 :    9 A1 0.0000000
  LUNO+3 :    3 B2 0.0000000

Computation Completed

Properties will be evaluated at   0.000000,   0.000000,   0.000000 [a0]

Properties computed using the SCF density matrix

 Multipole Moments:

 ------------------------------------------------------------------------------------
     Multipole            Electronic (a.u.)      Nuclear  (a.u.)        Total (a.u.)
 ------------------------------------------------------------------------------------

 L = 1.  Multiply by 2.5417464519 to convert [e a0] to [Debye]
 Dipole X            :          0.0000000            0.0000000            0.0000000
 Dipole Y            :          0.0000000            0.0000000            0.0000000
 Dipole Z            :         -0.1786444           -1.2274435           -1.4060879
 Magnitude           :                                                    1.4060879

 ------------------------------------------------------------------------------------

*** tstop() called on Joses-MacBook-Pro-2.local at Thu Jul 17 09:55:23 2025
Module time:
	user time   =       2.58 seconds =       0.04 minutes
	system time =       3.74 seconds =       0.06 minutes
	total time  =          0 seconds =       0.00 minutes
Total time:
	user time   =      46.17 seconds =       0.77 minutes
	system time =      53.21 seconds =       0.89 minutes
	total time  =         10 seconds =       0.17 minutes

*** tstart() called on Joses-MacBook-Pro-2.local
*** at Thu Jul 17 09:55:23 2025

         ------------------------------------------------------------
                                   SCF GRAD
                          Rob Parrish, Justin Turney,
                       Andy Simmonett, and Alex Sokolov
         ------------------------------------------------------------

  ==> Geometry <==

    Molecular point group: c2v
    Full point group: C_inf_v

    Geometry (in Angstrom), charge = -1, multiplicity = 1:

       Center              X                  Y                   Z               Mass
    ------------   -----------------  -----------------  -----------------  -----------------
         B            0.000000000000     0.000000000000     1.274945175851    11.009305360000
         S            0.000000000000     0.000000000000    -0.439016311506    31.972071174400

  Nuclear repulsion =   24.699607993450389

  ==> Basis Set <==

  Basis Set: CC-PVDZ
    Blend: CC-PVDZ
    Number of shells: 14
    Number of basis functions: 32
    Number of Cartesian functions: 34
    Spherical Harmonics?: true
    Max angular momentum: 2

  ==> DFJKGrad: Density-Fitted SCF Gradients <==

    Gradient:                    1
    J tasked:                  Yes
    K tasked:                  Yes
    wK tasked:                  No
    OpenMP threads:              1
    Integrals threads:           1
    Memory [MiB]:              375
    Schwarz Cutoff:          1E-12
    Fitting Condition:       1E-10

   => Auxiliary Basis Set <=

  Basis Set: (CC-PVDZ AUX)
    Blend: CC-PVDZ-JKFIT
    Number of shells: 60
    Number of basis functions: 182
    Number of Cartesian functions: 211
    Spherical Harmonics?: true
    Max angular momentum: 3

  ==> DFT Potential <==

   => LibXC <=

    Version 6.2.2
    S. Lehtola, C. Steigemann, M. J.T. Oliveira, and M. A.L. Marques.,  SoftwareX 7, 1â€“5 (2018) (10.1016/j.softx.2017.11.002)

   => Composite Functional: B3LYP <=

    B3LYP Hyb-GGA Exchange-Correlation Functional

    P. J. Stephens, F. J. Devlin, C. F. Chabalowski, and M. J. Frisch.,  J. Phys. Chem. 98, 11623 (1994) (10.1021/j100096a001)

    Deriv               =              1
    GGA                 =           TRUE
    Meta                =          FALSE

    Exchange Hybrid     =           TRUE
    MP2 Hybrid          =          FALSE

   => Exchange Functionals <=

    0.0800   Slater exchange
    0.7200         Becke 88

   => Exact (HF) Exchange <=

    0.2000               HF

   => Correlation Functionals <=

    0.1900   Vosko, Wilk & Nusair (VWN5_RPA)
    0.8100   Lee, Yang & Parr

   => LibXC Density Thresholds  <==

    XC_HYB_GGA_XC_B3LYP:  1.00E-15

   => Molecular Quadrature <=

    Radial Scheme          =       TREUTLER
    Pruning Scheme         =           NONE
    Nuclear Scheme         =       TREUTLER

    Blocking Scheme        =         OCTREE
    BS radius alpha        =              1
    Pruning alpha          =              1
    Radial Points          =             75
    Spherical Points       =            302
    Total Points           =          41979
    Total Blocks           =            383
    Max Points             =            256
    Max Functions          =             32
    Weights Tolerance      =       1.00E-15

  -Total Gradient:
     Atom            X                  Y                   Z
    ------   -----------------  -----------------  -----------------
       1        0.000000000000     0.000000000000    -0.000290470014
       2       -0.000000000000     0.000000000000     0.000277810326

*** tstop() called on Joses-MacBook-Pro-2.local at Thu Jul 17 09:55:23 2025
Module time:
	user time   =       0.74 seconds =       0.01 minutes
	system time =       1.64 seconds =       0.03 minutes
	total time  =          0 seconds =       0.00 minutes
Total time:
	user time   =      46.91 seconds =       0.78 minutes
	system time =      54.85 seconds =       0.91 minutes
	total time  =         10 seconds =       0.17 minutes

    			-----------------------------------------

    			 OPTKING 3.0: for geometry optimizations

    			     By R.A. King, Bethel University

    			        with contributions from

    			    A.V. Copan, J. Cayton, A. Heide

    			-----------------------------------------

	                            ===> Fragment 1 <==

	 Z (Atomic Numbers)          Masses                          Geom
	       5.000000            11.009305          0.00000000  0.00000000  2.40929721
	      16.000000            31.972071          0.00000000  0.00000000 -0.82962059

	 - Coordinate -           - BOHR/RAD -       - ANG/DEG -
	 R(1,2)           =         3.238918           1.713961

	        --- Internal Coordinate Step in ANG or DEG, aJ/ANG or AJ/DEG ---
	-------------------------------------------------------------------------------
	           Coordinate      Previous         Force          Change          New
	           ----------      --------        ------          ------        ------
	               R(1,2)       1.71396        0.00234        0.00046       1.71442
	-------------------------------------------------------------------------------

	                                 ==> Convergence Check <==

	Measures of convergence in internal coordinates in au.

	Criteria marked as inactive (o), active & met (*), and active & unmet ( ).

	----------------------------------------------------------------------------------------------
	   Step    Total Energy     Delta E     Max Force     RMS Force      Max Disp      RMS Disp
	----------------------------------------------------------------------------------------------
	  Convergence Criteria     1.00e-06 *    3.00e-04 *             o    1.20e-03 *             o
	----------------------------------------------------------------------------------------------
	    10    -423.06150873   -3.49e-06      2.84e-04 *    2.84e-04 o    8.60e-04 *    8.60e-04 o  ~
	----------------------------------------------------------------------------------------------

Next Geometry in Ang
	Fragment 1 (Ang)

	    B   0.0000000000   0.0000000000   1.2751728141
	    S   0.0000000000   0.0000000000  -0.4392439497

    Final optimized geometry and variables:
    Molecular point group: c2v
    Full point group: C_inf_v

    Geometry (in Angstrom), charge = -1, multiplicity = 1:

    B            0.000000000000     0.000000000000     1.274945175851
    S            0.000000000000     0.000000000000    -0.439016311506

    Psi4 stopped on: Thursday, 17 July 2025 09:55AM
    Psi4 wall time for execution: 0:00:10.58

*** Psi4 exiting successfully. Buy a developer a beer!
