                               Psi4 1.9.1 release

  ==> Input File <==

--------------------------------------------------------------------------
molecule {
-1 1
B   0.00000        0.60000        0.00000
Mg   0.00000       -0.60000        0.00000
}

set {
basis              cc-pvdz
reference          uks
maxiter            500
geom_maxiter       500
DAMPING_PERCENTAGE 1
guess              SAP
}

optimize('b3lyp')
--------------------------------------------------------------------------

    Molecular point group: c2v
  Charge       = -1
  Multiplicity = 1
  Basis Set: CC-PVDZ
    Blend: CC-PVDZ
  Basis Set: (CC-PVDZ AUX)
    Blend: CC-PVDZ-JKFIT + DEF2-UNIVERSAL-JKFIT
  @DF-UKS Final Energy:  -224.27733028813904
    Total Energy =                       -224.2773302881390407
 Dipole X            :          0.0000000            0.0000000            0.0000000
 Dipole Y            :          0.0000000            0.0000000            0.0000000
 Dipole Z            :         -0.8761576           -0.7896955           -1.6658531
 Magnitude           :                                                    1.6658531
    Molecular point group: c2v
  Basis Set: CC-PVDZ
    Blend: CC-PVDZ
  Basis Set: (CC-PVDZ AUX)
    Blend: CC-PVDZ-JKFIT + DEF2-UNIVERSAL-JKFIT
  Basis Set: CC-PVDZ
    Blend: CC-PVDZ
  Basis Set: (CC-PVDZ AUX)
    Blend: CC-PVDZ-JKFIT + DEF2-UNIVERSAL-JKFIT
  @DF-UKS Final Energy:  -224.38991349331388
    Total Energy =                       -224.3899134933138839
  Basis Set: CC-PVDZ
    Blend: CC-PVDZ
  Basis Set: (CC-PVDZ AUX)
    Blend: CC-PVDZ-JKFIT + DEF2-UNIVERSAL-JKFIT
  Basis Set: CC-PVDZ
    Blend: CC-PVDZ
  @DF-UKS Final Energy:  -224.53525743862730
    Total Energy =                       -224.5352574386272977
  @DF-UKS Final Energy:  -224.69980818405995
    Total Energy =                       -224.6998081840599468
  @DF-UKS Final Energy:  -224.74081449519917
    Total Energy =                       -224.7408144951991744
  @DF-UKS Final Energy:  -224.76284714212335
    Total Energy =                       -224.7628471421233201
  @DF-UKS Final Energy:  -224.77063568823198
    Total Energy =                       -224.7706356882319483
  @DF-UKS Final Energy:  -224.77299137818878
    Total Energy =                       -224.7729913781887774
  @DF-UKS Final Energy:  -224.77337066610201
    Total Energy =                       -224.7733706661019824
  @DF-UKS Final Energy:  -224.77344000167867
    Total Energy =                       -224.7734400016786651
  @DF-UKS Final Energy:  -224.77345576800718
    Total Energy =                       -224.7734557680071532
  Basis Set: (CC-PVDZ AUX)
    Blend: CC-PVDZ-JKFIT + DEF2-UNIVERSAL-JKFIT
  Basis Set: CC-PVDZ
    Blend: CC-PVDZ
  Basis Set: (CC-PVDZ AUX)
    Blend: CC-PVDZ-JKFIT + DEF2-UNIVERSAL-JKFIT
  @DF-UKS Final Energy:  -224.77345705556453
    Total Energy =                       -224.7734570555645632
  Basis Set: CC-PVDZ
    Blend: CC-PVDZ
  Basis Set: (CC-PVDZ AUX)
    Blend: CC-PVDZ-JKFIT + DEF2-UNIVERSAL-JKFIT
  Charge       = -1
  Multiplicity = 1
  Basis Set: CC-PVDZ
    Blend: CC-PVDZ
  Basis Set: (CC-PVDZ AUX)
    Blend: CC-PVDZ-JKFIT + DEF2-UNIVERSAL-JKFIT

    Orbital Energies [Eh]
    ---------------------

    Alpha Occupied:

       1A1   -46.630502     2A1    -6.612979     3A1    -2.912974
       1B1    -1.657896     4A1    -1.656594     1B2    -1.654961
       5A1    -0.180945     6A1    -0.012108     2B2     0.052417

    Alpha Virtual:

       2B1     0.089192     7A1     0.093080     3B2     0.155211
       3B1     0.156287     8A1     0.187397     9A1     0.258374
       4B1     0.320053     4B2     0.325374    10A1     0.405417
      11A1     0.445411     1A2     0.500244    12A1     0.501272
       5B1     0.514706     5B2     0.518917     6B1     0.531898
       6B2     0.539019    13A1     0.726221    14A1     0.752509
       2A2     0.931429    15A1     0.935884     7B1     1.038695
       7B2     1.051304    16A1     1.276649

    Beta Occupied:

       1A1   -46.630502     2A1    -6.612979     3A1    -2.912974
       1B1    -1.657896     4A1    -1.656594     1B2    -1.654961
       5A1    -0.180945     6A1    -0.012108     2B2     0.052417

    Beta Virtual:

       2B1     0.089192     7A1     0.093080     3B2     0.155211
       3B1     0.156287     8A1     0.187397     9A1     0.258374
       4B1     0.320053     4B2     0.325374    10A1     0.405417
      11A1     0.445411     1A2     0.500244    12A1     0.501272
       5B1     0.514706     5B2     0.518917     6B1     0.531898
       6B2     0.539019    13A1     0.726221    14A1     0.752509
       2A2     0.931429    15A1     0.935884     7B1     1.038695
       7B2     1.051304    16A1     1.276649

    Final Occupation by Irrep:
             A1    A2    B1    B2
    DOCC [     6,    0,    1,    2 ]
    SOCC [     0,    0,    0,    0 ]
    NA   [     6,    0,    1,    2 ]
    NB   [     6,    0,    1,    2 ]

  @DF-UKS Final Energy:  -224.77345716268391

   => Energetics <=

    Nuclear Repulsion Energy =             13.7114581595153702
    One-Electron Energy =                -342.5679574038520627
    Two-Electron Energy =                 120.6603497137966627
    DFT Exchange-Correlation Energy =     -16.5773076321438495
    Empirical Dispersion Energy =           0.0000000000000000
    VV10 Nonlocal Energy =                  0.0000000000000000
    Total Energy =                       -224.7734571626838829

  UHF NO Occupations:
  HONO-2 :    5 A1 2.0000000
  HONO-1 :    2 B2 2.0000000
  HONO-0 :    6 A1 2.0000000
  LUNO+0 :    7 A1 0.0000000
  LUNO+1 :    8 A1 0.0000000
  LUNO+2 :    9 A1 0.0000000
  LUNO+3 :    3 B2 0.0000000

Computation Completed

Properties will be evaluated at   0.000000,   0.000000,   0.000000 [a0]

Properties computed using the SCF density matrix

 Multipole Moments:

 ------------------------------------------------------------------------------------
     Multipole            Electronic (a.u.)      Nuclear  (a.u.)        Total (a.u.)
 ------------------------------------------------------------------------------------

 L = 1.  Multiply by 2.5417464519 to convert [e a0] to [Debye]
 Dipole X            :          0.0000000            0.0000000            0.0000000
 Dipole Y            :          0.0000000            0.0000000            0.0000000
 Dipole Z            :          1.0679181           -1.5238672           -0.4559492
 Magnitude           :                                                    0.4559492

 ------------------------------------------------------------------------------------

*** tstop() called on Joses-MacBook-Pro-2.local at Thu Jul 17 09:52:46 2025
Module time:
	user time   =       2.53 seconds =       0.04 minutes
	system time =       3.80 seconds =       0.06 minutes
	total time  =          0 seconds =       0.00 minutes
Total time:
	user time   =      64.03 seconds =       1.07 minutes
	system time =      83.42 seconds =       1.39 minutes
	total time  =         14 seconds =       0.23 minutes

*** tstart() called on Joses-MacBook-Pro-2.local
*** at Thu Jul 17 09:52:46 2025

         ------------------------------------------------------------
                                   SCF GRAD
                          Rob Parrish, Justin Turney,
                       Andy Simmonett, and Alex Sokolov
         ------------------------------------------------------------

  ==> Geometry <==

    Molecular point group: c2v
    Full point group: C_inf_v

    Geometry (in Angstrom), charge = -1, multiplicity = 1:

       Center              X                  Y                   Z               Mass
    ------------   -----------------  -----------------  -----------------  -----------------
         B            0.000000000000     0.000000000000     1.587125697935    11.009305360000
         MG           0.000000000000     0.000000000000    -0.728502025304    23.985041697000

  Nuclear repulsion =   13.711458159515370

  ==> Basis Set <==

  Basis Set: CC-PVDZ
    Blend: CC-PVDZ
    Number of shells: 14
    Number of basis functions: 32
    Number of Cartesian functions: 34
    Spherical Harmonics?: true
    Max angular momentum: 2

  ==> DFJKGrad: Density-Fitted SCF Gradients <==

    Gradient:                    1
    J tasked:                  Yes
    K tasked:                  Yes
    wK tasked:                  No
    OpenMP threads:              1
    Integrals threads:           1
    Memory [MiB]:              375
    Schwarz Cutoff:          1E-12
    Fitting Condition:       1E-10

   => Auxiliary Basis Set <=

  Basis Set: (CC-PVDZ AUX)
    Blend: CC-PVDZ-JKFIT + DEF2-UNIVERSAL-JKFIT
    Number of shells: 58
    Number of basis functions: 182
    Number of Cartesian functions: 218
    Spherical Harmonics?: true
    Max angular momentum: 4

  ==> DFT Potential <==

   => LibXC <=

    Version 6.2.2
    S. Lehtola, C. Steigemann, M. J.T. Oliveira, and M. A.L. Marques.,  SoftwareX 7, 1â€“5 (2018) (10.1016/j.softx.2017.11.002)

   => Composite Functional: B3LYP <=

    B3LYP Hyb-GGA Exchange-Correlation Functional

    P. J. Stephens, F. J. Devlin, C. F. Chabalowski, and M. J. Frisch.,  J. Phys. Chem. 98, 11623 (1994) (10.1021/j100096a001)

    Deriv               =              1
    GGA                 =           TRUE
    Meta                =          FALSE

    Exchange Hybrid     =           TRUE
    MP2 Hybrid          =          FALSE

   => Exchange Functionals <=

    0.0800   Slater exchange
    0.7200         Becke 88

   => Exact (HF) Exchange <=

    0.2000               HF

   => Correlation Functionals <=

    0.1900   Vosko, Wilk & Nusair (VWN5_RPA)
    0.8100   Lee, Yang & Parr

   => LibXC Density Thresholds  <==

    XC_HYB_GGA_XC_B3LYP:  1.00E-15

   => Molecular Quadrature <=

    Radial Scheme          =       TREUTLER
    Pruning Scheme         =           NONE
    Nuclear Scheme         =       TREUTLER

    Blocking Scheme        =         OCTREE
    BS radius alpha        =              1
    Pruning alpha          =              1
    Radial Points          =             75
    Spherical Points       =            302
    Total Points           =          43274
    Total Blocks           =            419
    Max Points             =            256
    Max Functions          =             32
    Weights Tolerance      =       1.00E-15

  -Total Gradient:
     Atom            X                  Y                   Z
    ------   -----------------  -----------------  -----------------
       1       -0.000000000000     0.000000000000    -0.000021265298
       2        0.000000000000    -0.000000000000     0.000007996088

*** tstop() called on Joses-MacBook-Pro-2.local at Thu Jul 17 09:52:47 2025
Module time:
	user time   =       0.66 seconds =       0.01 minutes
	system time =       2.13 seconds =       0.04 minutes
	total time  =          1 seconds =       0.02 minutes
Total time:
	user time   =      64.69 seconds =       1.08 minutes
	system time =      85.55 seconds =       1.43 minutes
	total time  =         15 seconds =       0.25 minutes

    			-----------------------------------------

    			 OPTKING 3.0: for geometry optimizations

    			     By R.A. King, Bethel University

    			        with contributions from

    			    A.V. Copan, J. Cayton, A. Heide

    			-----------------------------------------

	                            ===> Fragment 1 <==

	 Z (Atomic Numbers)          Masses                          Geom
	       5.000000            11.009305          0.00000000  0.00000000  2.99923290
	      12.000000            23.985042          0.00000000  0.00000000 -1.37666931

	 - Coordinate -           - BOHR/RAD -       - ANG/DEG -
	 R(1,2)           =         4.375902           2.315628

	        --- Internal Coordinate Step in ANG or DEG, aJ/ANG or AJ/DEG ---
	-------------------------------------------------------------------------------
	           Coordinate      Previous         Force          Change          New
	           ----------      --------        ------          ------        ------
	               R(1,2)       2.31563        0.00012        0.00016       2.31579
	-------------------------------------------------------------------------------

	                                 ==> Convergence Check <==

	Measures of convergence in internal coordinates in au.

	Criteria marked as inactive (o), active & met (*), and active & unmet ( ).

	----------------------------------------------------------------------------------------------
	   Step    Total Energy     Delta E     Max Force     RMS Force      Max Disp      RMS Disp
	----------------------------------------------------------------------------------------------
	  Convergence Criteria     1.00e-06 *    3.00e-04 *             o    1.20e-03 *             o
	----------------------------------------------------------------------------------------------
	    13    -224.77345716   -1.07e-07 *    1.46e-05 *    1.46e-05 o    3.08e-04 *    3.08e-04 o  ~
	----------------------------------------------------------------------------------------------

Next Geometry in Ang
	Fragment 1 (Ang)

	    B   0.0000000000   0.0000000000   1.5872070980
	   Mg   0.0000000000   0.0000000000  -0.7285834254

    Final optimized geometry and variables:
    Molecular point group: c2v
    Full point group: C_inf_v

    Geometry (in Angstrom), charge = -1, multiplicity = 1:

    B            0.000000000000     0.000000000000     1.587125697935
    MG           0.000000000000     0.000000000000    -0.728502025304

    Psi4 stopped on: Thursday, 17 July 2025 09:52AM
    Psi4 wall time for execution: 0:00:15.58

*** Psi4 exiting successfully. Buy a developer a beer!
