                               Psi4 1.9.1 release

  ==> Input File <==

--------------------------------------------------------------------------
molecule {
-1 1
Li   0.00000        0.60000        0.00000
Ar   0.00000       -0.60000        0.00000
}

set {
basis              cc-pvdz
reference          uks
maxiter            500
geom_maxiter       500
DAMPING_PERCENTAGE 1
guess              SAP
}

optimize('b3lyp')
--------------------------------------------------------------------------

    Molecular point group: c2v
  Charge       = -1
  Multiplicity = 1
  Basis Set: CC-PVDZ
    Blend: CC-PVDZ
  Basis Set: (CC-PVDZ AUX)
    Blend: CC-PVDZ-JKFIT + DEF2-UNIVERSAL-JKFIT
  @DF-UKS Final Energy:  -534.53360846991745
    Total Energy =                       -534.5336084699174535
 Dipole X            :          0.0000000            0.0000000            0.0000000
 Dipole Y            :          0.0000000            0.0000000            0.0000000
 Dipole Z            :         -2.5063791           -0.3089754           -2.8153545
 Magnitude           :                                                    2.8153545
    Molecular point group: c2v
  Basis Set: CC-PVDZ
    Blend: CC-PVDZ
  Basis Set: (CC-PVDZ AUX)
    Blend: CC-PVDZ-JKFIT + DEF2-UNIVERSAL-JKFIT
  Basis Set: CC-PVDZ
    Blend: CC-PVDZ
  Basis Set: (CC-PVDZ AUX)
    Blend: CC-PVDZ-JKFIT + DEF2-UNIVERSAL-JKFIT
  @DF-UKS Final Energy:  -534.73043658228505
    Total Energy =                       -534.7304365822850514
  Basis Set: CC-PVDZ
    Blend: CC-PVDZ
  Basis Set: (CC-PVDZ AUX)
    Blend: CC-PVDZ-JKFIT + DEF2-UNIVERSAL-JKFIT
  Basis Set: CC-PVDZ
    Blend: CC-PVDZ
  @DF-UKS Final Energy:  -534.86683200080608
    Total Energy =                       -534.8668320008060846
  @DF-UKS Final Energy:  -534.94556509286224
    Total Energy =                       -534.9455650928622390
  @DF-UKS Final Energy:  -534.98603457393369
    Total Energy =                       -534.9860345739336935
  @DF-UKS Final Energy:  -535.00771362208752
    Total Energy =                       -535.0077136220876355
  @DF-UKS Final Energy:  -535.01960629957011
    Total Energy =                       -535.0196062995702277
  @DF-UKS Final Energy:  -535.02656642796535
    Total Energy =                       -535.0265664279653492
  @DF-UKS Final Energy:  -535.03126910657534
    Total Energy =                       -535.0312691065753370
  @DF-UKS Final Energy:  -535.03526677303512
    Total Energy =                       -535.0352667730351186
  @DF-UKS Final Energy:  -535.03915032754696
    Total Energy =                       -535.0391503275469631
  @DF-UKS Final Energy:  -535.03923759579038
    Total Energy =                       -535.0392375957903823
  @DF-UKS Final Energy:  -535.04239990453368
    Total Energy =                       -535.0423999045337951
  @DF-UKS Final Energy:  -535.04244387793665
    Total Energy =                       -535.0424438779365346
  @DF-UKS Final Energy:  -535.04432480205344
    Total Energy =                       -535.0443248020534384
  @DF-UKS Final Energy:  -535.04434409484861
    Total Energy =                       -535.0443440948486113
  @DF-UKS Final Energy:  -535.04545610723756
    Total Energy =                       -535.0454561072375554
  @DF-UKS Final Energy:  -535.04546392359453
    Total Energy =                       -535.0454639235945251
  @DF-UKS Final Energy:  -535.04547168198053
    Total Energy =                       -535.0454716819805299
  @DF-UKS Final Energy:  -535.04610144786488
    Total Energy =                       -535.0461014478648849
  @DF-UKS Final Energy:  -535.04610438184488
    Total Energy =                       -535.0461043818448843
  @DF-UKS Final Energy:  -535.04610729819535
    Total Energy =                       -535.0461072981953521
  @DF-UKS Final Energy:  -535.04611019623007
    Total Energy =                       -535.0461101962300745
  @DF-UKS Final Energy:  -535.04611307612015
    Total Energy =                       -535.0461130761201503
  @DF-UKS Final Energy:  -535.04646492798781
    Total Energy =                       -535.0464649279878131
  @DF-UKS Final Energy:  -535.04646592283757
    Total Energy =                       -535.0464659228375695
  @DF-UKS Final Energy:  -535.04646691602591
    Total Energy =                       -535.0464669160260200
  @DF-UKS Final Energy:  -535.04646790514880
    Total Energy =                       -535.0464679051488019
  @DF-UKS Final Energy:  -535.04646889024582
    Total Energy =                       -535.0464688902458192
  @DF-UKS Final Energy:  -535.04646987134561
    Total Energy =                       -535.0464698713456073
  @DF-UKS Final Energy:  -535.04647084847829
    Total Energy =                       -535.0464708484782932
  @DF-UKS Final Energy:  -535.04647182168844
    Total Energy =                       -535.0464718216884421
  Basis Set: (CC-PVDZ AUX)
    Blend: CC-PVDZ-JKFIT + DEF2-UNIVERSAL-JKFIT
  Basis Set: CC-PVDZ
    Blend: CC-PVDZ
  Basis Set: (CC-PVDZ AUX)
    Blend: CC-PVDZ-JKFIT + DEF2-UNIVERSAL-JKFIT
  @DF-UKS Final Energy:  -535.04665682162829
    Total Energy =                       -535.0466568216282894
  Basis Set: CC-PVDZ
    Blend: CC-PVDZ
  Basis Set: (CC-PVDZ AUX)
    Blend: CC-PVDZ-JKFIT + DEF2-UNIVERSAL-JKFIT
  Charge       = -1
  Multiplicity = 1
  Basis Set: CC-PVDZ
    Blend: CC-PVDZ
  Basis Set: (CC-PVDZ AUX)
    Blend: CC-PVDZ-JKFIT + DEF2-UNIVERSAL-JKFIT

    Orbital Energies [Eh]
    ---------------------

    Alpha Occupied:

       1A1  -115.001252     2A1   -11.037310     1B1    -8.587215
       1B2    -8.587215     3A1    -8.587096     4A1    -1.805902
       5A1    -0.865577     2B2    -0.323771     2B1    -0.323771
       6A1    -0.322359     7A1     0.045018

    Alpha Virtual:

       3B1     0.112691     3B2     0.112691     8A1     0.113866
       4B1     0.235015     4B2     0.235015     9A1     0.235779
      10A1     0.237950    11A1     0.401637     5B1     0.402416
       5B2     0.402416    12A1     0.402475     1A2     0.402476
       6B1     0.680517     6B2     0.680517    13A1     0.692700
      14A1     0.851980     2A2     0.934112    15A1     0.934168
       7B2     0.934979     7B1     0.934979    16A1     0.935581

    Beta Occupied:

       1A1  -115.001252     2A1   -11.037310     1B1    -8.587215
       1B2    -8.587215     3A1    -8.587096     4A1    -1.805902
       5A1    -0.865577     2B2    -0.323771     2B1    -0.323771
       6A1    -0.322359     7A1     0.045018

    Beta Virtual:

       3B1     0.112691     3B2     0.112691     8A1     0.113866
       4B1     0.235015     4B2     0.235015     9A1     0.235779
      10A1     0.237950    11A1     0.401637     5B1     0.402416
       5B2     0.402416    12A1     0.402475     1A2     0.402476
       6B1     0.680517     6B2     0.680517    13A1     0.692700
      14A1     0.851980     2A2     0.934112    15A1     0.934168
       7B2     0.934979     7B1     0.934979    16A1     0.935581

    Final Occupation by Irrep:
             A1    A2    B1    B2
    DOCC [     7,    0,    2,    2 ]
    SOCC [     0,    0,    0,    0 ]
    NA   [     7,    0,    2,    2 ]
    NB   [     7,    0,    2,    2 ]

  @DF-UKS Final Energy:  -535.04665712532517

   => Energetics <=

    Nuclear Repulsion Energy =              5.3057039431078508
    One-Electron Energy =                -751.0948588878652572
    Two-Electron Energy =                 237.2133363906130228
    DFT Exchange-Correlation Energy =     -26.4708385711807459
    Empirical Dispersion Energy =           0.0000000000000000
    VV10 Nonlocal Energy =                  0.0000000000000000
    Total Energy =                       -535.0466571253251686

  UHF NO Occupations:
  HONO-2 :    5 A1 2.0000000
  HONO-1 :    6 A1 2.0000000
  HONO-0 :    7 A1 2.0000000
  LUNO+0 :    8 A1 0.0000000
  LUNO+1 :    9 A1 0.0000000
  LUNO+2 :   10 A1 0.0000000
  LUNO+3 :   11 A1 0.0000000

Computation Completed

Properties will be evaluated at   0.000000,   0.000000,   0.000000 [a0]

Properties computed using the SCF density matrix

 Multipole Moments:

 ------------------------------------------------------------------------------------
     Multipole            Electronic (a.u.)      Nuclear  (a.u.)        Total (a.u.)
 ------------------------------------------------------------------------------------

 L = 1.  Multiply by 2.5417464519 to convert [e a0] to [Debye]
 Dipole X            :          0.0000000            0.0000000            0.0000000
 Dipole Y            :          0.0000000            0.0000000            0.0000000
 Dipole Z            :         -7.3003301           -1.3867384           -8.6870685
 Magnitude           :                                                    8.6870685

 ------------------------------------------------------------------------------------

*** tstop() called on Joses-MacBook-Pro-2.local at Thu Jul 17 09:37:54 2025
Module time:
	user time   =       2.23 seconds =       0.04 minutes
	system time =       2.12 seconds =       0.04 minutes
	total time  =          1 seconds =       0.02 minutes
Total time:
	user time   =     131.68 seconds =       2.19 minutes
	system time =     163.11 seconds =       2.72 minutes
	total time  =         29 seconds =       0.48 minutes

*** tstart() called on Joses-MacBook-Pro-2.local
*** at Thu Jul 17 09:37:54 2025

         ------------------------------------------------------------
                                   SCF GRAD
                          Rob Parrish, Justin Turney,
                       Andy Simmonett, and Alex Sokolov
         ------------------------------------------------------------

  ==> Geometry <==

    Molecular point group: c2v
    Full point group: C_inf_v

    Geometry (in Angstrom), charge = -1, multiplicity = 1:

       Center              X                  Y                   Z               Mass
    ------------   -----------------  -----------------  -----------------  -----------------
         LI           0.000000000000     0.000000000000     4.581473319303     7.016003436600
         AR           0.000000000000     0.000000000000    -0.804347239588    39.962383123700

  Nuclear repulsion =    5.305703943107851

  ==> Basis Set <==

  Basis Set: CC-PVDZ
    Blend: CC-PVDZ
    Number of shells: 14
    Number of basis functions: 32
    Number of Cartesian functions: 34
    Spherical Harmonics?: true
    Max angular momentum: 2

  ==> DFJKGrad: Density-Fitted SCF Gradients <==

    Gradient:                    1
    J tasked:                  Yes
    K tasked:                  Yes
    wK tasked:                  No
    OpenMP threads:              1
    Integrals threads:           1
    Memory [MiB]:              375
    Schwarz Cutoff:          1E-12
    Fitting Condition:       1E-10

   => Auxiliary Basis Set <=

  Basis Set: (CC-PVDZ AUX)
    Blend: CC-PVDZ-JKFIT + DEF2-UNIVERSAL-JKFIT
    Number of shells: 53
    Number of basis functions: 163
    Number of Cartesian functions: 190
    Spherical Harmonics?: true
    Max angular momentum: 3

  ==> DFT Potential <==

   => LibXC <=

    Version 6.2.2
    S. Lehtola, C. Steigemann, M. J.T. Oliveira, and M. A.L. Marques.,  SoftwareX 7, 1â€“5 (2018) (10.1016/j.softx.2017.11.002)

   => Composite Functional: B3LYP <=

    B3LYP Hyb-GGA Exchange-Correlation Functional

    P. J. Stephens, F. J. Devlin, C. F. Chabalowski, and M. J. Frisch.,  J. Phys. Chem. 98, 11623 (1994) (10.1021/j100096a001)

    Deriv               =              1
    GGA                 =           TRUE
    Meta                =          FALSE

    Exchange Hybrid     =           TRUE
    MP2 Hybrid          =          FALSE

   => Exchange Functionals <=

    0.0800   Slater exchange
    0.7200         Becke 88

   => Exact (HF) Exchange <=

    0.2000               HF

   => Correlation Functionals <=

    0.1900   Vosko, Wilk & Nusair (VWN5_RPA)
    0.8100   Lee, Yang & Parr

   => LibXC Density Thresholds  <==

    XC_HYB_GGA_XC_B3LYP:  1.00E-15

   => Molecular Quadrature <=

    Radial Scheme          =       TREUTLER
    Pruning Scheme         =           NONE
    Nuclear Scheme         =       TREUTLER

    Blocking Scheme        =         OCTREE
    BS radius alpha        =              1
    Pruning alpha          =              1
    Radial Points          =             75
    Spherical Points       =            302
    Total Points           =          44422
    Total Blocks           =            472
    Max Points             =            255
    Max Functions          =             32
    Weights Tolerance      =       1.00E-15

  -Total Gradient:
     Atom            X                  Y                   Z
    ------   -----------------  -----------------  -----------------
       1       -0.000000000000    -0.000000000000    -0.000203747515
       2        0.000000000000    -0.000000000000     0.000191116042

*** tstop() called on Joses-MacBook-Pro-2.local at Thu Jul 17 09:37:54 2025
Module time:
	user time   =       0.69 seconds =       0.01 minutes
	system time =       1.49 seconds =       0.02 minutes
	total time  =          0 seconds =       0.00 minutes
Total time:
	user time   =     132.37 seconds =       2.21 minutes
	system time =     164.60 seconds =       2.74 minutes
	total time  =         29 seconds =       0.48 minutes

    			-----------------------------------------

    			 OPTKING 3.0: for geometry optimizations

    			     By R.A. King, Bethel University

    			        with contributions from

    			    A.V. Copan, J. Cayton, A. Heide

    			-----------------------------------------

	                            ===> Fragment 1 <==

	 Z (Atomic Numbers)          Masses                          Geom
	       3.000000             7.016003          0.00000000  0.00000000  8.65772982
	      18.000000            39.962383          0.00000000  0.00000000 -1.51999599

	 - Coordinate -           - BOHR/RAD -       - ANG/DEG -
	 R(1,2)           =        10.177726           5.385821

	        --- Internal Coordinate Step in ANG or DEG, aJ/ANG or AJ/DEG ---
	-------------------------------------------------------------------------------
	           Coordinate      Previous         Force          Change          New
	           ----------      --------        ------          ------        ------
	               R(1,2)       5.38582        0.00163        0.00079       5.38661
	-------------------------------------------------------------------------------

	                                 ==> Convergence Check <==

	Measures of convergence in internal coordinates in au.

	Criteria marked as inactive (o), active & met (*), and active & unmet ( ).

	----------------------------------------------------------------------------------------------
	   Step    Total Energy     Delta E     Max Force     RMS Force      Max Disp      RMS Disp
	----------------------------------------------------------------------------------------------
	  Convergence Criteria     1.00e-06 *    3.00e-04 *             o    1.20e-03 *             o
	----------------------------------------------------------------------------------------------
	    34    -535.04665713   -3.04e-07 *    1.97e-04 *    1.97e-04 o    1.49e-03      1.49e-03 o  ~
	----------------------------------------------------------------------------------------------

Next Geometry in Ang
	Fragment 1 (Ang)

	   Li   0.0000000000   0.0000000000   4.5818669252
	   Ar   0.0000000000   0.0000000000  -0.8047408455

    Final optimized geometry and variables:
    Molecular point group: c2v
    Full point group: C_inf_v

    Geometry (in Angstrom), charge = -1, multiplicity = 1:

    LI           0.000000000000     0.000000000000     4.581473319303
    AR           0.000000000000     0.000000000000    -0.804347239588

    Psi4 stopped on: Thursday, 17 July 2025 09:37AM
    Psi4 wall time for execution: 0:00:29.16

*** Psi4 exiting successfully. Buy a developer a beer!
