                               Psi4 1.9.1 release

  ==> Input File <==

--------------------------------------------------------------------------
molecule {
-1 1
H   0.00000        0.60000        0.00000
He   0.00000       -0.60000        0.00000
}

set {
basis              cc-pvdz
reference          uks
maxiter            500
geom_maxiter       500
DAMPING_PERCENTAGE 1
guess              SAP
}

optimize('b3lyp')
--------------------------------------------------------------------------

    Molecular point group: c2v
  Charge       = -1
  Multiplicity = 1
  Basis Set: CC-PVDZ
    Blend: CC-PVDZ
  Basis Set: (CC-PVDZ AUX)
    Blend: CC-PVDZ-JKFIT + DEF2-UNIVERSAL-JKFIT
  @DF-UKS Final Energy:    -3.29555896812719
    Total Energy =                         -3.2955589681271888
 Dipole X            :          0.0000000            0.0000000            0.0000000
 Dipole Y            :          0.0000000            0.0000000            0.0000000
 Dipole Z            :         -3.2226919            0.8992758           -2.3234161
 Magnitude           :                                                    2.3234161
    Molecular point group: c2v
  Basis Set: CC-PVDZ
    Blend: CC-PVDZ
  Basis Set: (CC-PVDZ AUX)
    Blend: CC-PVDZ-JKFIT + DEF2-UNIVERSAL-JKFIT
  Basis Set: CC-PVDZ
    Blend: CC-PVDZ
  Basis Set: (CC-PVDZ AUX)
    Blend: CC-PVDZ-JKFIT + DEF2-UNIVERSAL-JKFIT
  @DF-UKS Final Energy:    -3.34459399226238
    Total Energy =                         -3.3445939922623786
  Basis Set: CC-PVDZ
    Blend: CC-PVDZ
  Basis Set: (CC-PVDZ AUX)
    Blend: CC-PVDZ-JKFIT + DEF2-UNIVERSAL-JKFIT
  Basis Set: CC-PVDZ
    Blend: CC-PVDZ
  @DF-UKS Final Energy:    -3.36759835290609
    Total Energy =                         -3.3675983529060907
  @DF-UKS Final Energy:    -3.38061186476749
    Total Energy =                         -3.3806118647674936
  @DF-UKS Final Energy:    -3.38795073068267
    Total Energy =                         -3.3879507306826722
  @DF-UKS Final Energy:    -3.39198515346906
    Total Energy =                         -3.3919851534690606
  @DF-UKS Final Energy:    -3.39404571027070
    Total Energy =                         -3.3940457102706998
  @DF-UKS Final Energy:    -3.39503616351412
    Total Energy =                         -3.3950361635141162
  @DF-UKS Final Energy:    -3.39548955129257
    Total Energy =                         -3.3954895512925738
  @DF-UKS Final Energy:    -3.39568946222447
    Total Energy =                         -3.3956894622244684
  @DF-UKS Final Energy:    -3.39577547289676
    Total Energy =                         -3.3957754728967577
  @DF-UKS Final Energy:    -3.39581188438114
    Total Energy =                         -3.3958118843811427
  @DF-UKS Final Energy:    -3.39582706775365
    Total Energy =                         -3.3958270677536451
  @DF-UKS Final Energy:    -3.39583213895853
    Total Energy =                         -3.3958321389585264
  @DF-UKS Final Energy:    -3.39583468770037
    Total Energy =                         -3.3958346877003724
  Basis Set: (CC-PVDZ AUX)
    Blend: CC-PVDZ-JKFIT + DEF2-UNIVERSAL-JKFIT
  Basis Set: CC-PVDZ
    Blend: CC-PVDZ
  Basis Set: (CC-PVDZ AUX)
    Blend: CC-PVDZ-JKFIT + DEF2-UNIVERSAL-JKFIT
  @DF-UKS Final Energy:    -3.39583576382527
    Total Energy =                         -3.3958357638252683
  Basis Set: CC-PVDZ
    Blend: CC-PVDZ
  Basis Set: (CC-PVDZ AUX)
    Blend: CC-PVDZ-JKFIT + DEF2-UNIVERSAL-JKFIT
  Charge       = -1
  Multiplicity = 1
  Basis Set: CC-PVDZ
    Blend: CC-PVDZ
  Basis Set: (CC-PVDZ AUX)
    Blend: CC-PVDZ-JKFIT + DEF2-UNIVERSAL-JKFIT

    Orbital Energies [Eh]
    ---------------------

    Alpha Occupied:

       1A1    -0.512158     2A1     0.143213

    Alpha Virtual:

       3A1     0.849091     4A1     1.256786     5A1     1.715091
       1B2     1.715098     1B1     1.715098     2B1     2.326551
       2B2     2.326551     6A1     2.328174

    Beta Occupied:

       1A1    -0.512158     2A1     0.143213

    Beta Virtual:

       3A1     0.849091     4A1     1.256786     5A1     1.715091
       1B2     1.715098     1B1     1.715098     2B1     2.326551
       2B2     2.326551     6A1     2.328174

    Final Occupation by Irrep:
             A1    A2    B1    B2
    DOCC [     2,    0,    0,    0 ]
    SOCC [     0,    0,    0,    0 ]
    NA   [     2,    0,    0,    0 ]
    NB   [     2,    0,    0,    0 ]

  @DF-UKS Final Energy:    -3.39583676345482

   => Energetics <=

    Nuclear Repulsion Energy =              0.2754438500253747
    One-Electron Energy =                  -5.6544130383277267
    Two-Electron Energy =                   3.2944528051409274
    DFT Exchange-Correlation Energy =      -1.3113203802933948
    Empirical Dispersion Energy =           0.0000000000000000
    VV10 Nonlocal Energy =                  0.0000000000000000
    Total Energy =                         -3.3958367634548194

  UHF NO Occupations:
  HONO-1 :    1 A1 2.0000000
  HONO-0 :    2 A1 2.0000000
  LUNO+0 :    3 A1 0.0000000
  LUNO+1 :    4 A1 0.0000000
  LUNO+2 :    2 B2 0.0000000
  LUNO+3 :    1 B2 0.0000000

Computation Completed

Properties will be evaluated at   0.000000,   0.000000,   0.000000 [a0]

Properties computed using the SCF density matrix

 Multipole Moments:

 ------------------------------------------------------------------------------------
     Multipole            Electronic (a.u.)      Nuclear  (a.u.)        Total (a.u.)
 ------------------------------------------------------------------------------------

 L = 1.  Multiply by 2.5417464519 to convert [e a0] to [Debye]
 Dipole X            :          0.0000000            0.0000000            0.0000000
 Dipole Y            :          0.0000000            0.0000000            0.0000000
 Dipole Z            :         -8.6735257            2.8794511           -5.7940747
 Magnitude           :                                                    5.7940747

 ------------------------------------------------------------------------------------

*** tstop() called on Joses-MacBook-Pro-2.local at Thu Jul 17 09:09:42 2025
Module time:
	user time   =       1.16 seconds =       0.02 minutes
	system time =       1.02 seconds =       0.02 minutes
	total time  =          0 seconds =       0.00 minutes
Total time:
	user time   =      32.21 seconds =       0.54 minutes
	system time =      23.45 seconds =       0.39 minutes
	total time  =          6 seconds =       0.10 minutes

*** tstart() called on Joses-MacBook-Pro-2.local
*** at Thu Jul 17 09:09:42 2025

         ------------------------------------------------------------
                                   SCF GRAD
                          Rob Parrish, Justin Turney,
                       Andy Simmonett, and Alex Sokolov
         ------------------------------------------------------------

  ==> Geometry <==

    Molecular point group: c2v
    Full point group: C_inf_v

    Geometry (in Angstrom), charge = -1, multiplicity = 1:

       Center              X                  Y                   Z               Mass
    ------------   -----------------  -----------------  -----------------  -----------------
         H            0.000000000000     0.000000000000     3.069486601086     1.007825032230
         HE           0.000000000000     0.000000000000    -0.772873361725     4.002603254130

  Nuclear repulsion =    0.275443850025375

  ==> Basis Set <==

  Basis Set: CC-PVDZ
    Blend: CC-PVDZ
    Number of shells: 6
    Number of basis functions: 10
    Number of Cartesian functions: 10
    Spherical Harmonics?: true
    Max angular momentum: 1

  ==> DFJKGrad: Density-Fitted SCF Gradients <==

    Gradient:                    1
    J tasked:                  Yes
    K tasked:                  Yes
    wK tasked:                  No
    OpenMP threads:              1
    Integrals threads:           1
    Memory [MiB]:              375
    Schwarz Cutoff:          1E-12
    Fitting Condition:       1E-10

   => Auxiliary Basis Set <=

  Basis Set: (CC-PVDZ AUX)
    Blend: CC-PVDZ-JKFIT + DEF2-UNIVERSAL-JKFIT
    Number of shells: 18
    Number of basis functions: 46
    Number of Cartesian functions: 50
    Spherical Harmonics?: true
    Max angular momentum: 2

  ==> DFT Potential <==

   => LibXC <=

    Version 6.2.2
    S. Lehtola, C. Steigemann, M. J.T. Oliveira, and M. A.L. Marques.,  SoftwareX 7, 1â€“5 (2018) (10.1016/j.softx.2017.11.002)

   => Composite Functional: B3LYP <=

    B3LYP Hyb-GGA Exchange-Correlation Functional

    P. J. Stephens, F. J. Devlin, C. F. Chabalowski, and M. J. Frisch.,  J. Phys. Chem. 98, 11623 (1994) (10.1021/j100096a001)

    Deriv               =              1
    GGA                 =           TRUE
    Meta                =          FALSE

    Exchange Hybrid     =           TRUE
    MP2 Hybrid          =          FALSE

   => Exchange Functionals <=

    0.0800   Slater exchange
    0.7200         Becke 88

   => Exact (HF) Exchange <=

    0.2000               HF

   => Correlation Functionals <=

    0.1900   Vosko, Wilk & Nusair (VWN5_RPA)
    0.8100   Lee, Yang & Parr

   => LibXC Density Thresholds  <==

    XC_HYB_GGA_XC_B3LYP:  1.00E-15

   => Molecular Quadrature <=

    Radial Scheme          =       TREUTLER
    Pruning Scheme         =           NONE
    Nuclear Scheme         =       TREUTLER

    Blocking Scheme        =         OCTREE
    BS radius alpha        =              1
    Pruning alpha          =              1
    Radial Points          =             75
    Spherical Points       =            302
    Total Points           =          44690
    Total Blocks           =            394
    Max Points             =            256
    Max Functions          =             10
    Weights Tolerance      =       1.00E-15

  -Total Gradient:
     Atom            X                  Y                   Z
    ------   -----------------  -----------------  -----------------
       1        0.000000000000    -0.000000000000    -0.000006063154
       2        0.000000000000     0.000000000000     0.000005475898

*** tstop() called on Joses-MacBook-Pro-2.local at Thu Jul 17 09:09:42 2025
Module time:
	user time   =       0.11 seconds =       0.00 minutes
	system time =       0.38 seconds =       0.01 minutes
	total time  =          0 seconds =       0.00 minutes
Total time:
	user time   =      32.32 seconds =       0.54 minutes
	system time =      23.83 seconds =       0.40 minutes
	total time  =          6 seconds =       0.10 minutes

    			-----------------------------------------

    			 OPTKING 3.0: for geometry optimizations

    			     By R.A. King, Bethel University

    			        with contributions from

    			    A.V. Copan, J. Cayton, A. Heide

    			-----------------------------------------

	                            ===> Fragment 1 <==

	 Z (Atomic Numbers)          Masses                          Geom
	       1.000000             1.007825          0.00000000  0.00000000  5.80048902
	       2.000000             4.002603          0.00000000  0.00000000 -1.46051898

	 - Coordinate -           - BOHR/RAD -       - ANG/DEG -
	 R(1,2)           =         7.261008           3.842360

	        --- Internal Coordinate Step in ANG or DEG, aJ/ANG or AJ/DEG ---
	-------------------------------------------------------------------------------
	           Coordinate      Previous         Force          Change          New
	           ----------      --------        ------          ------        ------
	               R(1,2)       3.84236        0.00005        0.03427       3.87663
	-------------------------------------------------------------------------------

	                                 ==> Convergence Check <==

	Measures of convergence in internal coordinates in au.

	Criteria marked as inactive (o), active & met (*), and active & unmet ( ).

	----------------------------------------------------------------------------------------------
	   Step    Total Energy     Delta E     Max Force     RMS Force      Max Disp      RMS Disp
	----------------------------------------------------------------------------------------------
	  Convergence Criteria     1.00e-06 *    3.00e-04 *             o    1.20e-03 *             o
	----------------------------------------------------------------------------------------------
	    17      -3.39583676   -1.00e-06 *    5.77e-06 *    5.77e-06 o    6.48e-02      6.48e-02 o  ~
	----------------------------------------------------------------------------------------------

Next Geometry in Ang
	Fragment 1 (Ang)

	    H   0.0000000000   0.0000000000   3.0866202027
	   He   0.0000000000   0.0000000000  -0.7900069633

    Final optimized geometry and variables:
    Molecular point group: c2v
    Full point group: C_inf_v

    Geometry (in Angstrom), charge = -1, multiplicity = 1:

    H            0.000000000000     0.000000000000     3.069486601086
    HE           0.000000000000     0.000000000000    -0.772873361725

    Psi4 stopped on: Thursday, 17 July 2025 09:09AM
    Psi4 wall time for execution: 0:00:07.09

*** Psi4 exiting successfully. Buy a developer a beer!
