                               Psi4 1.9.1 release

  ==> Input File <==

--------------------------------------------------------------------------
molecule {
-1 1
Li   0.00000        0.60000        0.00000
S   0.00000       -0.60000        0.00000
}

set {
basis              cc-pvdz
reference          uks
maxiter            500
geom_maxiter       500
DAMPING_PERCENTAGE 1
guess              SAP
}

optimize('b3lyp')
--------------------------------------------------------------------------

    Molecular point group: c2v
  Charge       = -1
  Multiplicity = 1
  Basis Set: CC-PVDZ
    Blend: CC-PVDZ
  Basis Set: (CC-PVDZ AUX)
    Blend: CC-PVDZ-JKFIT + DEF2-UNIVERSAL-JKFIT
  @DF-UKS Final Energy:  -405.33407694619308
    Total Energy =                       -405.3340769461930790
 Dipole X            :          0.0000000            0.0000000            0.0000000
 Dipole Y            :          0.0000000            0.0000000            0.0000000
 Dipole Z            :          1.0244490           -0.9503775            0.0740715
 Magnitude           :                                                    0.0740715
    Molecular point group: c2v
  Basis Set: CC-PVDZ
    Blend: CC-PVDZ
  Basis Set: (CC-PVDZ AUX)
    Blend: CC-PVDZ-JKFIT + DEF2-UNIVERSAL-JKFIT
  Basis Set: CC-PVDZ
    Blend: CC-PVDZ
  Basis Set: (CC-PVDZ AUX)
    Blend: CC-PVDZ-JKFIT + DEF2-UNIVERSAL-JKFIT
  @DF-UKS Final Energy:  -405.48201771877109
    Total Energy =                       -405.4820177187710897
  Basis Set: CC-PVDZ
    Blend: CC-PVDZ
  Basis Set: (CC-PVDZ AUX)
    Blend: CC-PVDZ-JKFIT + DEF2-UNIVERSAL-JKFIT
  Basis Set: CC-PVDZ
    Blend: CC-PVDZ
  @DF-UKS Final Energy:  -405.62219703930396
    Total Energy =                       -405.6221970393040124
  @DF-UKS Final Energy:  -405.71500006351903
    Total Energy =                       -405.7150000635190281
  @DF-UKS Final Energy:  -405.75407329173316
    Total Energy =                       -405.7540732917331638
  @DF-UKS Final Energy:  -405.76870067387944
    Total Energy =                       -405.7687006738794366
  @DF-UKS Final Energy:  -405.77288800589486
    Total Energy =                       -405.7728880058948562
  @DF-UKS Final Energy:  -405.77350591032382
    Total Energy =                       -405.7735059103237631
  @DF-UKS Final Energy:  -405.77360684068509
    Total Energy =                       -405.7736068406850904
  @DF-UKS Final Energy:  -405.77362675646549
    Total Energy =                       -405.7736267564654895
  Basis Set: (CC-PVDZ AUX)
    Blend: CC-PVDZ-JKFIT + DEF2-UNIVERSAL-JKFIT
  Basis Set: CC-PVDZ
    Blend: CC-PVDZ
  Basis Set: (CC-PVDZ AUX)
    Blend: CC-PVDZ-JKFIT + DEF2-UNIVERSAL-JKFIT
  @DF-UKS Final Energy:  -405.77362806261573
    Total Energy =                       -405.7736280626157281
  Basis Set: CC-PVDZ
    Blend: CC-PVDZ
  Basis Set: (CC-PVDZ AUX)
    Blend: CC-PVDZ-JKFIT + DEF2-UNIVERSAL-JKFIT
  Charge       = -1
  Multiplicity = 1
  Basis Set: CC-PVDZ
    Blend: CC-PVDZ
  Basis Set: (CC-PVDZ AUX)
    Blend: CC-PVDZ-JKFIT + DEF2-UNIVERSAL-JKFIT

    Orbital Energies [Eh]
    ---------------------

    Alpha Occupied:

       1A1   -88.576810     2A1    -7.635553     3A1    -5.595714
       1B1    -5.595604     1B2    -5.595604     4A1    -1.799183
       5A1    -0.364184     6A1    -0.002184     2B1     0.017875
       2B2     0.017875

    Alpha Virtual:

       7A1     0.077020     3B1     0.134482     3B2     0.134482
       8A1     0.159271     9A1     0.227578     4B1     0.243740
       4B2     0.243740    10A1     0.370324     1A2     0.402184
      11A1     0.402184     5B1     0.449320     5B2     0.449320
      12A1     0.591379     6B2     0.802398     6B1     0.802398
      13A1     0.850369    14A1     0.892475     2A2     0.921557
      15A1     0.921561     7B2     1.024576     7B1     1.024576
      16A1     1.428108

    Beta Occupied:

       1A1   -88.576810     2A1    -7.635553     3A1    -5.595714
       1B1    -5.595604     1B2    -5.595604     4A1    -1.799183
       5A1    -0.364184     6A1    -0.002184     2B1     0.017875
       2B2     0.017875

    Beta Virtual:

       7A1     0.077020     3B2     0.134482     3B1     0.134482
       8A1     0.159271     9A1     0.227578     4B1     0.243740
       4B2     0.243740    10A1     0.370324     1A2     0.402184
      11A1     0.402184     5B1     0.449320     5B2     0.449320
      12A1     0.591379     6B2     0.802398     6B1     0.802398
      13A1     0.850369    14A1     0.892475     2A2     0.921557
      15A1     0.921561     7B2     1.024576     7B1     1.024576
      16A1     1.428108

    Final Occupation by Irrep:
             A1    A2    B1    B2
    DOCC [     6,    0,    2,    2 ]
    SOCC [     0,    0,    0,    0 ]
    NA   [     6,    0,    2,    2 ]
    NB   [     6,    0,    2,    2 ]

  @DF-UKS Final Energy:  -405.77362815935942

   => Energetics <=

    Nuclear Repulsion Energy =             12.2659508050548354
    One-Electron Energy =                -589.8896699654641225
    Two-Electron Energy =                 194.2218795282226438
    DFT Exchange-Correlation Energy =     -22.3717885271727184
    Empirical Dispersion Energy =           0.0000000000000000
    VV10 Nonlocal Energy =                  0.0000000000000000
    Total Energy =                       -405.7736281593594185

  UHF NO Occupations:
  HONO-2 :    4 A1 2.0000000
  HONO-1 :    5 A1 2.0000000
  HONO-0 :    6 A1 2.0000000
  LUNO+0 :    7 A1 0.0000000
  LUNO+1 :    8 A1 0.0000000
  LUNO+2 :    9 A1 0.0000000
  LUNO+3 :    3 B2 0.0000000

Computation Completed

Properties will be evaluated at   0.000000,   0.000000,   0.000000 [a0]

Properties computed using the SCF density matrix

 Multipole Moments:

 ------------------------------------------------------------------------------------
     Multipole            Electronic (a.u.)      Nuclear  (a.u.)        Total (a.u.)
 ------------------------------------------------------------------------------------

 L = 1.  Multiply by 2.5417464519 to convert [e a0] to [Debye]
 Dipole X            :          0.0000000            0.0000000            0.0000000
 Dipole Y            :          0.0000000            0.0000000            0.0000000
 Dipole Z            :          2.5539622           -1.6400461            0.9139161
 Magnitude           :                                                    0.9139161

 ------------------------------------------------------------------------------------

*** tstop() called on Joses-MacBook-Pro-2.local at Thu Jul 17 09:35:49 2025
Module time:
	user time   =       3.43 seconds =       0.06 minutes
	system time =       3.51 seconds =       0.06 minutes
	total time  =          1 seconds =       0.02 minutes
Total time:
	user time   =      61.79 seconds =       1.03 minutes
	system time =      66.86 seconds =       1.11 minutes
	total time  =         13 seconds =       0.22 minutes

*** tstart() called on Joses-MacBook-Pro-2.local
*** at Thu Jul 17 09:35:49 2025

         ------------------------------------------------------------
                                   SCF GRAD
                          Rob Parrish, Justin Turney,
                       Andy Simmonett, and Alex Sokolov
         ------------------------------------------------------------

  ==> Geometry <==

    Molecular point group: c2v
    Full point group: C_inf_v

    Geometry (in Angstrom), charge = -1, multiplicity = 1:

       Center              X                  Y                   Z               Mass
    ------------   -----------------  -----------------  -----------------  -----------------
         LI           0.000000000000     0.000000000000     1.698165972052     7.016003436600
         S            0.000000000000     0.000000000000    -0.372648310172    31.972071174400

  Nuclear repulsion =   12.265950805054835

  ==> Basis Set <==

  Basis Set: CC-PVDZ
    Blend: CC-PVDZ
    Number of shells: 14
    Number of basis functions: 32
    Number of Cartesian functions: 34
    Spherical Harmonics?: true
    Max angular momentum: 2

  ==> DFJKGrad: Density-Fitted SCF Gradients <==

    Gradient:                    1
    J tasked:                  Yes
    K tasked:                  Yes
    wK tasked:                  No
    OpenMP threads:              1
    Integrals threads:           1
    Memory [MiB]:              375
    Schwarz Cutoff:          1E-12
    Fitting Condition:       1E-10

   => Auxiliary Basis Set <=

  Basis Set: (CC-PVDZ AUX)
    Blend: CC-PVDZ-JKFIT + DEF2-UNIVERSAL-JKFIT
    Number of shells: 53
    Number of basis functions: 163
    Number of Cartesian functions: 190
    Spherical Harmonics?: true
    Max angular momentum: 3

  ==> DFT Potential <==

   => LibXC <=

    Version 6.2.2
    S. Lehtola, C. Steigemann, M. J.T. Oliveira, and M. A.L. Marques.,  SoftwareX 7, 1â€“5 (2018) (10.1016/j.softx.2017.11.002)

   => Composite Functional: B3LYP <=

    B3LYP Hyb-GGA Exchange-Correlation Functional

    P. J. Stephens, F. J. Devlin, C. F. Chabalowski, and M. J. Frisch.,  J. Phys. Chem. 98, 11623 (1994) (10.1021/j100096a001)

    Deriv               =              1
    GGA                 =           TRUE
    Meta                =          FALSE

    Exchange Hybrid     =           TRUE
    MP2 Hybrid          =          FALSE

   => Exchange Functionals <=

    0.0800   Slater exchange
    0.7200         Becke 88

   => Exact (HF) Exchange <=

    0.2000               HF

   => Correlation Functionals <=

    0.1900   Vosko, Wilk & Nusair (VWN5_RPA)
    0.8100   Lee, Yang & Parr

   => LibXC Density Thresholds  <==

    XC_HYB_GGA_XC_B3LYP:  1.00E-15

   => Molecular Quadrature <=

    Radial Scheme          =       TREUTLER
    Pruning Scheme         =           NONE
    Nuclear Scheme         =       TREUTLER

    Blocking Scheme        =         OCTREE
    BS radius alpha        =              1
    Pruning alpha          =              1
    Radial Points          =             75
    Spherical Points       =            302
    Total Points           =          44329
    Total Blocks           =            436
    Max Points             =            256
    Max Functions          =             32
    Weights Tolerance      =       1.00E-15

  -Total Gradient:
     Atom            X                  Y                   Z
    ------   -----------------  -----------------  -----------------
       1        0.000000000000     0.000000000000     0.000005333353
       2        0.000000000000    -0.000000000000     0.000034590266

*** tstop() called on Joses-MacBook-Pro-2.local at Thu Jul 17 09:35:49 2025
Module time:
	user time   =       0.90 seconds =       0.01 minutes
	system time =       1.77 seconds =       0.03 minutes
	total time  =          0 seconds =       0.00 minutes
Total time:
	user time   =      62.69 seconds =       1.04 minutes
	system time =      68.63 seconds =       1.14 minutes
	total time  =         13 seconds =       0.22 minutes

    			-----------------------------------------

    			 OPTKING 3.0: for geometry optimizations

    			     By R.A. King, Bethel University

    			        with contributions from

    			    A.V. Copan, J. Cayton, A. Heide

    			-----------------------------------------

	                            ===> Fragment 1 <==

	 Z (Atomic Numbers)          Masses                          Geom
	       3.000000             7.016003          0.00000000  0.00000000  3.20906860
	      16.000000            31.972071          0.00000000  0.00000000 -0.70420325

	 - Coordinate -           - BOHR/RAD -       - ANG/DEG -
	 R(1,2)           =         3.913272           2.070814

	        --- Internal Coordinate Step in ANG or DEG, aJ/ANG or AJ/DEG ---
	-------------------------------------------------------------------------------
	           Coordinate      Previous         Force          Change          New
	           ----------      --------        ------          ------        ------
	               R(1,2)       2.07081        0.00012        0.00008       2.07089
	-------------------------------------------------------------------------------

	                                 ==> Convergence Check <==

	Measures of convergence in internal coordinates in au.

	Criteria marked as inactive (o), active & met (*), and active & unmet ( ).

	----------------------------------------------------------------------------------------------
	   Step    Total Energy     Delta E     Max Force     RMS Force      Max Disp      RMS Disp
	----------------------------------------------------------------------------------------------
	  Convergence Criteria     1.00e-06 *    3.00e-04 *             o    1.20e-03 *             o
	----------------------------------------------------------------------------------------------
	    12    -405.77362816   -9.67e-08 *    1.46e-05 *    1.46e-05 o    1.49e-04 *    1.49e-04 o  ~
	----------------------------------------------------------------------------------------------

Next Geometry in Ang
	Fragment 1 (Ang)

	   Li   0.0000000000   0.0000000000   1.6982054073
	    S   0.0000000000   0.0000000000  -0.3726877454

    Final optimized geometry and variables:
    Molecular point group: c2v
    Full point group: C_inf_v

    Geometry (in Angstrom), charge = -1, multiplicity = 1:

    LI           0.000000000000     0.000000000000     1.698165972052
    S            0.000000000000     0.000000000000    -0.372648310172

    Psi4 stopped on: Thursday, 17 July 2025 09:35AM
    Psi4 wall time for execution: 0:00:13.28

*** Psi4 exiting successfully. Buy a developer a beer!
