                               Psi4 1.9.1 release

  ==> Input File <==

--------------------------------------------------------------------------
molecule {
-1 1
N   0.00000        0.60000        0.00000
S   0.00000       -0.60000        0.00000
}

set {
basis              cc-pvdz
reference          uks
maxiter            500
geom_maxiter       500
DAMPING_PERCENTAGE 1
guess              SAP
}

optimize('b3lyp')
--------------------------------------------------------------------------

    Molecular point group: c2v
  Charge       = -1
  Multiplicity = 1
  Basis Set: CC-PVDZ
    Blend: CC-PVDZ
  Basis Set: (CC-PVDZ AUX)
    Blend: CC-PVDZ-JKFIT
  @DF-UKS Final Energy:  -452.59203469927456
    Total Energy =                       -452.5920346992745635
 Dipole X            :          0.0000000            0.0000000            0.0000000
 Dipole Y            :          0.0000000            0.0000000            0.0000000
 Dipole Z            :         -0.5533146           -0.0120688           -0.5653834
 Magnitude           :                                                    0.5653834
    Molecular point group: c2v
  Basis Set: CC-PVDZ
    Blend: CC-PVDZ
  Basis Set: (CC-PVDZ AUX)
    Blend: CC-PVDZ-JKFIT
  Basis Set: CC-PVDZ
    Blend: CC-PVDZ
  Basis Set: (CC-PVDZ AUX)
    Blend: CC-PVDZ-JKFIT
  @DF-UKS Final Energy:  -452.75345189503491
    Total Energy =                       -452.7534518950349707
  Basis Set: CC-PVDZ
    Blend: CC-PVDZ
  Basis Set: (CC-PVDZ AUX)
    Blend: CC-PVDZ-JKFIT
  Basis Set: CC-PVDZ
    Blend: CC-PVDZ
  @DF-UKS Final Energy:  -452.82263656456990
    Total Energy =                       -452.8226365645699047
  @DF-UKS Final Energy:  -452.84372033401189
    Total Energy =                       -452.8437203340118344
  @DF-UKS Final Energy:  -452.85395232327681
    Total Energy =                       -452.8539523232768147
  @DF-UKS Final Energy:  -452.85673604984419
    Total Energy =                       -452.8567360498441872
  @DF-UKS Final Energy:  -452.85759955855599
    Total Energy =                       -452.8575995585559895
  @DF-UKS Final Energy:  -452.85795988572960
    Total Energy =                       -452.8579598857295423
  @DF-UKS Final Energy:  -452.85803492838312
    Total Energy =                       -452.8580349283831197
  Basis Set: (CC-PVDZ AUX)
    Blend: CC-PVDZ-JKFIT
  Basis Set: CC-PVDZ
    Blend: CC-PVDZ
  Basis Set: (CC-PVDZ AUX)
    Blend: CC-PVDZ-JKFIT
  @DF-UKS Final Energy:  -452.85804332108972
    Total Energy =                       -452.8580433210897240
  Basis Set: CC-PVDZ
    Blend: CC-PVDZ
  Basis Set: (CC-PVDZ AUX)
    Blend: CC-PVDZ-JKFIT
  Charge       = -1
  Multiplicity = 1
  Basis Set: CC-PVDZ
    Blend: CC-PVDZ
  Basis Set: (CC-PVDZ AUX)
    Blend: CC-PVDZ-JKFIT

    Orbital Energies [Eh]
    ---------------------

    Alpha Occupied:

       1A1   -88.609497     2A1   -14.046491     3A1    -7.668245
       1B2    -5.631530     4A1    -5.631143     1B1    -5.622400
       5A1    -0.551012     6A1    -0.283994     7A1    -0.050502
       2B2    -0.049176     2B1    -0.039109     3B1     0.126629

    Alpha Virtual:

       3B2     0.176388     8A1     0.342617     9A1     0.732756
       4B2     0.734717     4B1     0.751481    10A1     0.757697
       1A2     0.877661    11A1     0.878285     5B2     0.898711
       5B1     0.914817    12A1     0.960273     6B2     1.067474
       6B1     1.081402    13A1     1.306529    14A1     1.486205
       2A2     2.082879    15A1     2.086808     7B2     2.228019
       7B1     2.256947    16A1     2.712073

    Beta Occupied:

       1A1   -88.609497     2A1   -14.046491     3A1    -7.668245
       1B2    -5.631530     4A1    -5.631143     1B1    -5.622400
       5A1    -0.551012     6A1    -0.283994     7A1    -0.050502
       2B2    -0.049176     2B1    -0.039109     3B1     0.126629

    Beta Virtual:

       3B2     0.176388     8A1     0.342617     9A1     0.732756
       4B2     0.734717     4B1     0.751481    10A1     0.757697
       1A2     0.877661    11A1     0.878285     5B2     0.898711
       5B1     0.914817    12A1     0.960273     6B2     1.067474
       6B1     1.081402    13A1     1.306529    14A1     1.486205
       2A2     2.082879    15A1     2.086808     7B2     2.228019
       7B1     2.256947    16A1     2.712073

    Final Occupation by Irrep:
             A1    A2    B1    B2
    DOCC [     7,    0,    3,    2 ]
    SOCC [     0,    0,    0,    0 ]
    NA   [     7,    0,    3,    2 ]
    NB   [     7,    0,    3,    2 ]

  @DF-UKS Final Energy:  -452.85804365990776

   => Energetics <=

    Nuclear Repulsion Energy =             36.3664994896728686
    One-Electron Energy =                -703.4837317632543545
    Two-Electron Energy =                 240.7021886535542308
    DFT Exchange-Correlation Energy =     -26.4430000398804630
    Empirical Dispersion Energy =           0.0000000000000000
    VV10 Nonlocal Energy =                  0.0000000000000000
    Total Energy =                       -452.8580436599077643

  UHF NO Occupations:
  HONO-2 :    3 B1 2.0000000
  HONO-1 :    6 A1 2.0000000
  HONO-0 :    7 A1 2.0000000
  LUNO+0 :    8 A1 0.0000000
  LUNO+1 :    4 B1 0.0000000
  LUNO+2 :    9 A1 0.0000000
  LUNO+3 :    5 B1 0.0000000

Computation Completed

Properties will be evaluated at   0.000000,   0.000000,   0.000000 [a0]

Properties computed using the SCF density matrix

 Multipole Moments:

 ------------------------------------------------------------------------------------
     Multipole            Electronic (a.u.)      Nuclear  (a.u.)        Total (a.u.)
 ------------------------------------------------------------------------------------

 L = 1.  Multiply by 2.5417464519 to convert [e a0] to [Debye]
 Dipole X            :          0.0000000            0.0000000            0.0000000
 Dipole Y            :          0.0000000            0.0000000            0.0000000
 Dipole Z            :         -0.6793955           -0.0163909           -0.6957864
 Magnitude           :                                                    0.6957864

 ------------------------------------------------------------------------------------

*** tstop() called on Joses-MacBook-Pro-2.local at Thu Jul 17 10:35:41 2025
Module time:
	user time   =       3.30 seconds =       0.05 minutes
	system time =       3.04 seconds =       0.05 minutes
	total time  =          0 seconds =       0.00 minutes
Total time:
	user time   =      58.03 seconds =       0.97 minutes
	system time =      53.75 seconds =       0.90 minutes
	total time  =         11 seconds =       0.18 minutes

*** tstart() called on Joses-MacBook-Pro-2.local
*** at Thu Jul 17 10:35:41 2025

         ------------------------------------------------------------
                                   SCF GRAD
                          Rob Parrish, Justin Turney,
                       Andy Simmonett, and Alex Sokolov
         ------------------------------------------------------------

  ==> Geometry <==

    Molecular point group: c2v
    Full point group: C_inf_v

    Geometry (in Angstrom), charge = -1, multiplicity = 1:

       Center              X                  Y                   Z               Mass
    ------------   -----------------  -----------------  -----------------  -----------------
         N            0.000000000000     0.000000000000     1.133353311235    14.003074004430
         S            0.000000000000     0.000000000000    -0.496384178673    31.972071174400

  Nuclear repulsion =   36.366499489672869

  ==> Basis Set <==

  Basis Set: CC-PVDZ
    Blend: CC-PVDZ
    Number of shells: 14
    Number of basis functions: 32
    Number of Cartesian functions: 34
    Spherical Harmonics?: true
    Max angular momentum: 2

  ==> DFJKGrad: Density-Fitted SCF Gradients <==

    Gradient:                    1
    J tasked:                  Yes
    K tasked:                  Yes
    wK tasked:                  No
    OpenMP threads:              1
    Integrals threads:           1
    Memory [MiB]:              375
    Schwarz Cutoff:          1E-12
    Fitting Condition:       1E-10

   => Auxiliary Basis Set <=

  Basis Set: (CC-PVDZ AUX)
    Blend: CC-PVDZ-JKFIT
    Number of shells: 60
    Number of basis functions: 182
    Number of Cartesian functions: 211
    Spherical Harmonics?: true
    Max angular momentum: 3

  ==> DFT Potential <==

   => LibXC <=

    Version 6.2.2
    S. Lehtola, C. Steigemann, M. J.T. Oliveira, and M. A.L. Marques.,  SoftwareX 7, 1â€“5 (2018) (10.1016/j.softx.2017.11.002)

   => Composite Functional: B3LYP <=

    B3LYP Hyb-GGA Exchange-Correlation Functional

    P. J. Stephens, F. J. Devlin, C. F. Chabalowski, and M. J. Frisch.,  J. Phys. Chem. 98, 11623 (1994) (10.1021/j100096a001)

    Deriv               =              1
    GGA                 =           TRUE
    Meta                =          FALSE

    Exchange Hybrid     =           TRUE
    MP2 Hybrid          =          FALSE

   => Exchange Functionals <=

    0.0800   Slater exchange
    0.7200         Becke 88

   => Exact (HF) Exchange <=

    0.2000               HF

   => Correlation Functionals <=

    0.1900   Vosko, Wilk & Nusair (VWN5_RPA)
    0.8100   Lee, Yang & Parr

   => LibXC Density Thresholds  <==

    XC_HYB_GGA_XC_B3LYP:  1.00E-15

   => Molecular Quadrature <=

    Radial Scheme          =       TREUTLER
    Pruning Scheme         =           NONE
    Nuclear Scheme         =       TREUTLER

    Blocking Scheme        =         OCTREE
    BS radius alpha        =              1
    Pruning alpha          =              1
    Radial Points          =             75
    Spherical Points       =            302
    Total Points           =          41597
    Total Blocks           =            371
    Max Points             =            256
    Max Functions          =             32
    Weights Tolerance      =       1.00E-15

  -Total Gradient:
     Atom            X                  Y                   Z
    ------   -----------------  -----------------  -----------------
       1        0.000000000000    -0.000000000000    -0.000066767816
       2        0.000000000000     0.000000000000     0.000046179704

*** tstop() called on Joses-MacBook-Pro-2.local at Thu Jul 17 10:35:41 2025
Module time:
	user time   =       1.00 seconds =       0.02 minutes
	system time =       1.46 seconds =       0.02 minutes
	total time  =          0 seconds =       0.00 minutes
Total time:
	user time   =      59.03 seconds =       0.98 minutes
	system time =      55.21 seconds =       0.92 minutes
	total time  =         11 seconds =       0.18 minutes

    			-----------------------------------------

    			 OPTKING 3.0: for geometry optimizations

    			     By R.A. King, Bethel University

    			        with contributions from

    			    A.V. Copan, J. Cayton, A. Heide

    			-----------------------------------------

	                            ===> Fragment 1 <==

	 Z (Atomic Numbers)          Masses                          Geom
	       7.000000            14.003074          0.00000000  0.00000000  2.14172736
	      16.000000            31.972071          0.00000000  0.00000000 -0.93803015

	 - Coordinate -           - BOHR/RAD -       - ANG/DEG -
	 R(1,2)           =         3.079758           1.629737

	        --- Internal Coordinate Step in ANG or DEG, aJ/ANG or AJ/DEG ---
	-------------------------------------------------------------------------------
	           Coordinate      Previous         Force          Change          New
	           ----------      --------        ------          ------        ------
	               R(1,2)       1.62974        0.00047        0.00009       1.62982
	-------------------------------------------------------------------------------

	                                 ==> Convergence Check <==

	Measures of convergence in internal coordinates in au.

	Criteria marked as inactive (o), active & met (*), and active & unmet ( ).

	----------------------------------------------------------------------------------------------
	   Step    Total Energy     Delta E     Max Force     RMS Force      Max Disp      RMS Disp
	----------------------------------------------------------------------------------------------
	  Convergence Criteria     1.00e-06 *    3.00e-04 *             o    1.20e-03 *             o
	----------------------------------------------------------------------------------------------
	    11    -452.85804366   -3.39e-07 *    5.65e-05 *    5.65e-05 o    1.62e-04 *    1.62e-04 o  ~
	----------------------------------------------------------------------------------------------

Next Geometry in Ang
	Fragment 1 (Ang)

	    N   0.0000000000   0.0000000000   1.1333962198
	    S   0.0000000000   0.0000000000  -0.4964270872

    Final optimized geometry and variables:
    Molecular point group: c2v
    Full point group: C_inf_v

    Geometry (in Angstrom), charge = -1, multiplicity = 1:

    N            0.000000000000     0.000000000000     1.133353311235
    S            0.000000000000     0.000000000000    -0.496384178673

    Psi4 stopped on: Thursday, 17 July 2025 10:35AM
    Psi4 wall time for execution: 0:00:12.39

*** Psi4 exiting successfully. Buy a developer a beer!
