                               Psi4 1.9.1 release

  ==> Input File <==

--------------------------------------------------------------------------
molecule {
-1 1
Cl   0.00000        0.60000        0.00000
Ar   0.00000       -0.60000        0.00000
}

set {
basis              cc-pvdz
reference          uks
maxiter            500
geom_maxiter       500
DAMPING_PERCENTAGE 1
guess              SAP
}

optimize('b3lyp')
--------------------------------------------------------------------------

    Molecular point group: c2v
  Charge       = -1
  Multiplicity = 1
  Basis Set: CC-PVDZ
    Blend: CC-PVDZ
  Basis Set: (CC-PVDZ AUX)
    Blend: CC-PVDZ-JKFIT
  @DF-UKS Final Energy:  -985.73048436074089
    Total Energy =                       -985.7304843607408884
 Dipole X            :          0.0000000            0.0000000            0.0000000
 Dipole Y            :          0.0000000            0.0000000            0.0000000
 Dipole Z            :         -3.3145986            1.5107824           -1.8038162
 Magnitude           :                                                    1.8038162
    Molecular point group: c2v
  Basis Set: CC-PVDZ
    Blend: CC-PVDZ
  Basis Set: (CC-PVDZ AUX)
    Blend: CC-PVDZ-JKFIT
  Basis Set: CC-PVDZ
    Blend: CC-PVDZ
  Basis Set: (CC-PVDZ AUX)
    Blend: CC-PVDZ-JKFIT
  @DF-UKS Final Energy:  -985.78431538953532
    Total Energy =                       -985.7843153895353225
  Basis Set: CC-PVDZ
    Blend: CC-PVDZ
  Basis Set: (CC-PVDZ AUX)
    Blend: CC-PVDZ-JKFIT
  Basis Set: CC-PVDZ
    Blend: CC-PVDZ
  @DF-UKS Final Energy:  -985.88380623058913
    Total Energy =                       -985.8838062305891299
  @DF-UKS Final Energy:  -986.20617712430942
    Total Energy =                       -986.2061771243094199
  @DF-UKS Final Energy:  -986.91145896466196
    Total Energy =                       -986.9114589646619606
  @DF-UKS Final Energy:  -987.26051727455274
    Total Energy =                       -987.2605172745527398
  @DF-UKS Final Energy:  -987.50802917917520
    Total Energy =                       -987.5080291791751961
  @DF-UKS Final Energy:  -987.65871047906194
    Total Energy =                       -987.6587104790619378
  @DF-UKS Final Energy:  -987.73286147553949
    Total Energy =                       -987.7328614755394938
  @DF-UKS Final Energy:  -987.77093845937873
    Total Energy =                       -987.7709384593787263
  @DF-UKS Final Energy:  -987.79041583330263
    Total Energy =                       -987.7904158333026317
  @DF-UKS Final Energy:  -987.80032464079579
    Total Energy =                       -987.8003246407957931
  @DF-UKS Final Energy:  -987.80532033742270
    Total Energy =                       -987.8053203374226996
  @DF-UKS Final Energy:  -987.80779320025545
    Total Energy =                       -987.8077932002554462
  @DF-UKS Final Energy:  -987.80895948562147
    Total Energy =                       -987.8089594856214717
  @DF-UKS Final Energy:  -987.80945734236332
    Total Energy =                       -987.8094573423634301
  @DF-UKS Final Energy:  -987.80963700952520
    Total Energy =                       -987.8096370095252041
  @DF-UKS Final Energy:  -987.80968401501741
    Total Energy =                       -987.8096840150175240
  @DF-UKS Final Energy:  -987.80969085340303
    Total Energy =                       -987.8096908534030263
  Basis Set: (CC-PVDZ AUX)
    Blend: CC-PVDZ-JKFIT
  Basis Set: CC-PVDZ
    Blend: CC-PVDZ
  Basis Set: (CC-PVDZ AUX)
    Blend: CC-PVDZ-JKFIT
  @DF-UKS Final Energy:  -987.80969198169464
    Total Energy =                       -987.8096919816946411
  Basis Set: CC-PVDZ
    Blend: CC-PVDZ
  Basis Set: (CC-PVDZ AUX)
    Blend: CC-PVDZ-JKFIT
  Charge       = -1
  Multiplicity = 1
  Basis Set: CC-PVDZ
    Blend: CC-PVDZ
  Basis Set: (CC-PVDZ AUX)
    Blend: CC-PVDZ-JKFIT

    Orbital Energies [Eh]
    ---------------------

    Alpha Occupied:

       1A1  -114.958166     2A1  -101.166231     3A1   -10.994289
       4A1    -9.078812     1B2    -8.544297     1B1    -8.544297
       5A1    -8.543856     6A1    -6.835645     2B1    -6.835586
       2B2    -6.835586     7A1    -0.822941     8A1    -0.424457
       3B2    -0.282215     3B1    -0.282215     9A1    -0.277396
      10A1     0.025814     4B1     0.025979     4B2     0.025979

    Alpha Virtual:

      11A1     0.702143     5B2     0.718363     5B1     0.718363
      12A1     0.833718     6B1     0.862044     6B2     0.862044
      13A1     0.911099    14A1     0.960499    15A1     0.975711
       1A2     0.975729     7B1     0.978411     7B2     0.978411
      16A1     0.991819     8B1     1.095558     8B2     1.095558
      17A1     1.095649     2A2     1.095669    18A1     1.097196

    Beta Occupied:

       1A1  -114.958166     2A1  -101.166231     3A1   -10.994289
       4A1    -9.078812     1B1    -8.544297     1B2    -8.544297
       5A1    -8.543856     6A1    -6.835645     2B1    -6.835586
       2B2    -6.835586     7A1    -0.822941     8A1    -0.424457
       3B2    -0.282215     3B1    -0.282215     9A1    -0.277396
      10A1     0.025814     4B1     0.025979     4B2     0.025979

    Beta Virtual:

      11A1     0.702143     5B2     0.718363     5B1     0.718363
      12A1     0.833718     6B1     0.862044     6B2     0.862044
      13A1     0.911099    14A1     0.960499    15A1     0.975711
       1A2     0.975729     7B1     0.978411     7B2     0.978411
      16A1     0.991819     8B2     1.095558     8B1     1.095558
      17A1     1.095649     2A2     1.095669    18A1     1.097196

    Final Occupation by Irrep:
             A1    A2    B1    B2
    DOCC [    10,    0,    4,    4 ]
    SOCC [     0,    0,    0,    0 ]
    NA   [    10,    0,    4,    4 ]
    NB   [    10,    0,    4,    4 ]

  @DF-UKS Final Energy:  -987.80969218625785

   => Energetics <=

    Nuclear Repulsion Energy =             42.3969943792228321
    One-Electron Energy =               -1457.7150981943543684
    Two-Electron Energy =                 475.3790835527196919
    DFT Exchange-Correlation Energy =     -47.8706719238459968
    Empirical Dispersion Energy =           0.0000000000000000
    VV10 Nonlocal Energy =                  0.0000000000000000
    Total Energy =                       -987.8096921862577346

  UHF NO Occupations:
  HONO-2 :    8 A1 2.0000000
  HONO-1 :    9 A1 2.0000000
  HONO-0 :   10 A1 2.0000000
  LUNO+0 :   11 A1 0.0000000
  LUNO+1 :    5 B1 0.0000000
  LUNO+2 :    6 B1 0.0000000
  LUNO+3 :   12 A1 0.0000000

Computation Completed

Properties will be evaluated at   0.000000,   0.000000,   0.000000 [a0]

Properties computed using the SCF density matrix

 Multipole Moments:

 ------------------------------------------------------------------------------------
     Multipole            Electronic (a.u.)      Nuclear  (a.u.)        Total (a.u.)
 ------------------------------------------------------------------------------------

 L = 1.  Multiply by 2.5417464519 to convert [e a0] to [Debye]
 Dipole X            :          0.0000000            0.0000000            0.0000000
 Dipole Y            :          0.0000000            0.0000000            0.0000000
 Dipole Z            :         -8.5573849            4.8084840           -3.7489010
 Magnitude           :                                                    3.7489010

 ------------------------------------------------------------------------------------

*** tstop() called on Joses-MacBook-Pro-2.local at Thu Jul 17 12:11:12 2025
Module time:
	user time   =      16.39 seconds =       0.27 minutes
	system time =       2.04 seconds =       0.03 minutes
	total time  =          2 seconds =       0.03 minutes
Total time:
	user time   =     248.88 seconds =       4.15 minutes
	system time =      58.20 seconds =       0.97 minutes
	total time  =         29 seconds =       0.48 minutes

*** tstart() called on Joses-MacBook-Pro-2.local
*** at Thu Jul 17 12:11:12 2025

         ------------------------------------------------------------
                                   SCF GRAD
                          Rob Parrish, Justin Turney,
                       Andy Simmonett, and Alex Sokolov
         ------------------------------------------------------------

  ==> Geometry <==

    Molecular point group: c2v
    Full point group: C_inf_v

    Geometry (in Angstrom), charge = -1, multiplicity = 1:

       Center              X                  Y                   Z               Mass
    ------------   -----------------  -----------------  -----------------  -----------------
         CL           0.000000000000     0.000000000000     2.036929385661    34.968852682000
         AR           0.000000000000     0.000000000000    -1.782403301383    39.962383123700

  Nuclear repulsion =   42.396994379222832

  ==> Basis Set <==

  Basis Set: CC-PVDZ
    Blend: CC-PVDZ
    Number of shells: 16
    Number of basis functions: 36
    Number of Cartesian functions: 38
    Spherical Harmonics?: true
    Max angular momentum: 2

  ==> DFJKGrad: Density-Fitted SCF Gradients <==

    Gradient:                    1
    J tasked:                  Yes
    K tasked:                  Yes
    wK tasked:                  No
    OpenMP threads:              1
    Integrals threads:           1
    Memory [MiB]:              375
    Schwarz Cutoff:          1E-12
    Fitting Condition:       1E-10

   => Auxiliary Basis Set <=

  Basis Set: (CC-PVDZ AUX)
    Blend: CC-PVDZ-JKFIT
    Number of shells: 72
    Number of basis functions: 224
    Number of Cartesian functions: 260
    Spherical Harmonics?: true
    Max angular momentum: 3

  ==> DFT Potential <==

   => LibXC <=

    Version 6.2.2
    S. Lehtola, C. Steigemann, M. J.T. Oliveira, and M. A.L. Marques.,  SoftwareX 7, 1â€“5 (2018) (10.1016/j.softx.2017.11.002)

   => Composite Functional: B3LYP <=

    B3LYP Hyb-GGA Exchange-Correlation Functional

    P. J. Stephens, F. J. Devlin, C. F. Chabalowski, and M. J. Frisch.,  J. Phys. Chem. 98, 11623 (1994) (10.1021/j100096a001)

    Deriv               =              1
    GGA                 =           TRUE
    Meta                =          FALSE

    Exchange Hybrid     =           TRUE
    MP2 Hybrid          =          FALSE

   => Exchange Functionals <=

    0.0800   Slater exchange
    0.7200         Becke 88

   => Exact (HF) Exchange <=

    0.2000               HF

   => Correlation Functionals <=

    0.1900   Vosko, Wilk & Nusair (VWN5_RPA)
    0.8100   Lee, Yang & Parr

   => LibXC Density Thresholds  <==

    XC_HYB_GGA_XC_B3LYP:  1.00E-15

   => Molecular Quadrature <=

    Radial Scheme          =       TREUTLER
    Pruning Scheme         =           NONE
    Nuclear Scheme         =       TREUTLER

    Blocking Scheme        =         OCTREE
    BS radius alpha        =              1
    Pruning alpha          =              1
    Radial Points          =             75
    Spherical Points       =            302
    Total Points           =          39872
    Total Blocks           =            376
    Max Points             =            255
    Max Functions          =             36
    Weights Tolerance      =       1.00E-15

  -Total Gradient:
     Atom            X                  Y                   Z
    ------   -----------------  -----------------  -----------------
       1        0.000000000000    -0.000000000000    -0.000011444867
       2       -0.000000000000     0.000000000000     0.000010233091

*** tstop() called on Joses-MacBook-Pro-2.local at Thu Jul 17 12:11:12 2025
Module time:
	user time   =       4.24 seconds =       0.07 minutes
	system time =       1.38 seconds =       0.02 minutes
	total time  =          0 seconds =       0.00 minutes
Total time:
	user time   =     253.14 seconds =       4.22 minutes
	system time =      59.58 seconds =       0.99 minutes
	total time  =         29 seconds =       0.48 minutes

    			-----------------------------------------

    			 OPTKING 3.0: for geometry optimizations

    			     By R.A. King, Bethel University

    			        with contributions from

    			    A.V. Copan, J. Cayton, A. Heide

    			-----------------------------------------

	                            ===> Fragment 1 <==

	 Z (Atomic Numbers)          Masses                          Geom
	      17.000000            34.968853          0.00000000  0.00000000  3.84923868
	      18.000000            39.962383          0.00000000  0.00000000 -3.36825408

	 - Coordinate -           - BOHR/RAD -       - ANG/DEG -
	 R(1,2)           =         7.217493           3.819333

	        --- Internal Coordinate Step in ANG or DEG, aJ/ANG or AJ/DEG ---
	-------------------------------------------------------------------------------
	           Coordinate      Previous         Force          Change          New
	           ----------      --------        ------          ------        ------
	               R(1,2)       3.81933        0.00009        0.00308       3.82241
	-------------------------------------------------------------------------------

	                                 ==> Convergence Check <==

	Measures of convergence in internal coordinates in au.

	Criteria marked as inactive (o), active & met (*), and active & unmet ( ).

	----------------------------------------------------------------------------------------------
	   Step    Total Energy     Delta E     Max Force     RMS Force      Max Disp      RMS Disp
	----------------------------------------------------------------------------------------------
	  Convergence Criteria     1.00e-06 *    3.00e-04 *             o    1.20e-03 *             o
	----------------------------------------------------------------------------------------------
	    21    -987.80969219   -2.05e-07 *    1.08e-05 *    1.08e-05 o    5.81e-03      5.81e-03 o  ~
	----------------------------------------------------------------------------------------------

Next Geometry in Ang
	Fragment 1 (Ang)

	   Cl   0.0000000000   0.0000000000   2.0384679054
	   Ar   0.0000000000   0.0000000000  -1.7839418211

    Final optimized geometry and variables:
    Molecular point group: c2v
    Full point group: C_inf_v

    Geometry (in Angstrom), charge = -1, multiplicity = 1:

    CL           0.000000000000     0.000000000000     2.036929385661
    AR           0.000000000000     0.000000000000    -1.782403301383

    Psi4 stopped on: Thursday, 17 July 2025 12:11PM
    Psi4 wall time for execution: 0:00:30.36

*** Psi4 exiting successfully. Buy a developer a beer!
