                               Psi4 1.9.1 release

  ==> Input File <==

--------------------------------------------------------------------------
molecule {
-1 1
Si   0.00000        0.60000        0.00000
Cl   0.00000       -0.60000        0.00000
}

set {
basis              cc-pvdz
reference          uks
maxiter            500
geom_maxiter       500
DAMPING_PERCENTAGE 1
guess              SAP
}

optimize('b3lyp')
--------------------------------------------------------------------------

    Molecular point group: c2v
  Charge       = -1
  Multiplicity = 1
  Basis Set: CC-PVDZ
    Blend: CC-PVDZ
  Basis Set: (CC-PVDZ AUX)
    Blend: CC-PVDZ-JKFIT
  @DF-UKS Final Energy:  -748.35990423552391
    Total Energy =                       -748.3599042355239135
 Dipole X            :          0.0000000            0.0000000            0.0000000
 Dipole Y            :          0.0000000            0.0000000            0.0000000
 Dipole Z            :         -3.0952654            0.5027826           -2.5924827
 Magnitude           :                                                    2.5924827
    Molecular point group: c2v
  Basis Set: CC-PVDZ
    Blend: CC-PVDZ
  Basis Set: (CC-PVDZ AUX)
    Blend: CC-PVDZ-JKFIT
  Basis Set: CC-PVDZ
    Blend: CC-PVDZ
  Basis Set: (CC-PVDZ AUX)
    Blend: CC-PVDZ-JKFIT
  @DF-UKS Final Energy:  -748.39955888301733
    Total Energy =                       -748.3995588830172210
  Basis Set: CC-PVDZ
    Blend: CC-PVDZ
  Basis Set: (CC-PVDZ AUX)
    Blend: CC-PVDZ-JKFIT
  Basis Set: CC-PVDZ
    Blend: CC-PVDZ
  @DF-UKS Final Energy:  -748.47358823728973
    Total Energy =                       -748.4735882372897322
  @DF-UKS Final Energy:  -748.71808895859658
    Total Energy =                       -748.7180889585965815
  @DF-UKS Final Energy:  -749.27695259976645
    Total Energy =                       -749.2769525997664459
  @DF-UKS Final Energy:  -749.47172387470800
    Total Energy =                       -749.4717238747080046
  @DF-UKS Final Energy:  -749.59265861555730
    Total Energy =                       -749.5926586155571840
  @DF-UKS Final Energy:  -749.65452227156914
    Total Energy =                       -749.6545222715691352
  @DF-UKS Final Energy:  -749.68205403862930
    Total Energy =                       -749.6820540386293032
  @DF-UKS Final Energy:  -749.69309061418176
    Total Energy =                       -749.6930906141817559
  @DF-UKS Final Energy:  -749.69594691201996
    Total Energy =                       -749.6959469120199628
  @DF-UKS Final Energy:  -749.69702131970473
    Total Energy =                       -749.6970213197047315
  @DF-UKS Final Energy:  -749.69722462927473
    Total Energy =                       -749.6972246292747286
  @DF-UKS Final Energy:  -749.69726674741048
    Total Energy =                       -749.6972667474104810
  Basis Set: (CC-PVDZ AUX)
    Blend: CC-PVDZ-JKFIT
  Basis Set: CC-PVDZ
    Blend: CC-PVDZ
  Basis Set: (CC-PVDZ AUX)
    Blend: CC-PVDZ-JKFIT
  @DF-UKS Final Energy:  -749.69727737490484
    Total Energy =                       -749.6972773749048429
  Basis Set: CC-PVDZ
    Blend: CC-PVDZ
  Basis Set: (CC-PVDZ AUX)
    Blend: CC-PVDZ-JKFIT
  Charge       = -1
  Multiplicity = 1
  Basis Set: CC-PVDZ
    Blend: CC-PVDZ
  Basis Set: (CC-PVDZ AUX)
    Blend: CC-PVDZ-JKFIT

    Orbital Energies [Eh]
    ---------------------

    Alpha Occupied:

       1A1  -101.300757     2A1   -65.922101     3A1    -9.217337
       4A1    -6.976254     1B1    -6.973562     1B2    -6.971064
       5A1    -5.061581     2B1    -3.425288     6A1    -3.421888
       2B2    -3.411009     7A1    -0.571214     8A1    -0.220410
       3B1    -0.105299     3B2    -0.098714     9A1    -0.086489
       4B2     0.085001

    Alpha Virtual:

       4B1     0.113050    10A1     0.198298    11A1     0.457865
      12A1     0.500407     5B1     0.522602     5B2     0.540372
       6B1     0.577864     6B2     0.595832     1A2     0.604199
      13A1     0.607291    14A1     0.640070     7B1     0.789345
       7B2     0.797527    15A1     0.850779    16A1     0.966379
       2A2     0.970190    17A1     0.972283     8B1     1.036157
       8B2     1.044859    18A1     1.370712

    Beta Occupied:

       1A1  -101.300757     2A1   -65.922101     3A1    -9.217337
       4A1    -6.976254     1B1    -6.973562     1B2    -6.971064
       5A1    -5.061581     2B1    -3.425288     6A1    -3.421888
       2B2    -3.411009     7A1    -0.571214     8A1    -0.220410
       3B1    -0.105299     3B2    -0.098714     9A1    -0.086489
       4B2     0.085001

    Beta Virtual:

       4B1     0.113050    10A1     0.198298    11A1     0.457865
      12A1     0.500407     5B1     0.522602     5B2     0.540372
       6B1     0.577864     6B2     0.595832     1A2     0.604199
      13A1     0.607291    14A1     0.640070     7B1     0.789345
       7B2     0.797527    15A1     0.850779    16A1     0.966379
       2A2     0.970190    17A1     0.972283     8B1     1.036157
       8B2     1.044859    18A1     1.370712

    Final Occupation by Irrep:
             A1    A2    B1    B2
    DOCC [     9,    0,    3,    4 ]
    SOCC [     0,    0,    0,    0 ]
    NA   [     9,    0,    3,    4 ]
    NB   [     9,    0,    3,    4 ]

  @DF-UKS Final Energy:  -749.69727835885158

   => Energetics <=

    Nuclear Repulsion Energy =             54.5533007606842446
    One-Electron Energy =               -1152.8678980990507625
    Two-Electron Energy =                 388.3633524656974600
    DFT Exchange-Correlation Energy =     -39.7460334861827107
    Empirical Dispersion Energy =           0.0000000000000000
    VV10 Nonlocal Energy =                  0.0000000000000000
    Total Energy =                       -749.6972783588515767

  UHF NO Occupations:
  HONO-2 :    8 A1 2.0000000
  HONO-1 :    4 B2 2.0000000
  HONO-0 :    9 A1 2.0000000
  LUNO+0 :   10 A1 0.0000000
  LUNO+1 :   11 A1 0.0000000
  LUNO+2 :    4 B1 0.0000000
  LUNO+3 :    5 B1 0.0000000

Computation Completed

Properties will be evaluated at   0.000000,   0.000000,   0.000000 [a0]

Properties computed using the SCF density matrix

 Multipole Moments:

 ------------------------------------------------------------------------------------
     Multipole            Electronic (a.u.)      Nuclear  (a.u.)        Total (a.u.)
 ------------------------------------------------------------------------------------

 L = 1.  Multiply by 2.5417464519 to convert [e a0] to [Debye]
 Dipole X            :          0.0000000            0.0000000            0.0000000
 Dipole Y            :          0.0000000            0.0000000            0.0000000
 Dipole Z            :         -1.7823082            0.9672886           -0.8150196
 Magnitude           :                                                    0.8150196

 ------------------------------------------------------------------------------------

*** tstop() called on Joses-MacBook-Pro-2.local at Thu Jul 17 11:50:53 2025
Module time:
	user time   =       7.49 seconds =       0.12 minutes
	system time =       2.14 seconds =       0.04 minutes
	total time  =          1 seconds =       0.02 minutes
Total time:
	user time   =     196.54 seconds =       3.28 minutes
	system time =      44.12 seconds =       0.74 minutes
	total time  =         23 seconds =       0.38 minutes

*** tstart() called on Joses-MacBook-Pro-2.local
*** at Thu Jul 17 11:50:53 2025

         ------------------------------------------------------------
                                   SCF GRAD
                          Rob Parrish, Justin Turney,
                       Andy Simmonett, and Alex Sokolov
         ------------------------------------------------------------

  ==> Geometry <==

    Molecular point group: c2v
    Full point group: C_inf_v

    Geometry (in Angstrom), charge = -1, multiplicity = 1:

       Center              X                  Y                   Z               Mass
    ------------   -----------------  -----------------  -----------------  -----------------
         SI           0.000000000000     0.000000000000     1.282542680110    27.976926534650
         CL           0.000000000000     0.000000000000    -1.026101790221    34.968852682000

  Nuclear repulsion =   54.553300760684245

  ==> Basis Set <==

  Basis Set: CC-PVDZ
    Blend: CC-PVDZ
    Number of shells: 16
    Number of basis functions: 36
    Number of Cartesian functions: 38
    Spherical Harmonics?: true
    Max angular momentum: 2

  ==> DFJKGrad: Density-Fitted SCF Gradients <==

    Gradient:                    1
    J tasked:                  Yes
    K tasked:                  Yes
    wK tasked:                  No
    OpenMP threads:              1
    Integrals threads:           1
    Memory [MiB]:              375
    Schwarz Cutoff:          1E-12
    Fitting Condition:       1E-10

   => Auxiliary Basis Set <=

  Basis Set: (CC-PVDZ AUX)
    Blend: CC-PVDZ-JKFIT
    Number of shells: 72
    Number of basis functions: 224
    Number of Cartesian functions: 260
    Spherical Harmonics?: true
    Max angular momentum: 3

  ==> DFT Potential <==

   => LibXC <=

    Version 6.2.2
    S. Lehtola, C. Steigemann, M. J.T. Oliveira, and M. A.L. Marques.,  SoftwareX 7, 1â€“5 (2018) (10.1016/j.softx.2017.11.002)

   => Composite Functional: B3LYP <=

    B3LYP Hyb-GGA Exchange-Correlation Functional

    P. J. Stephens, F. J. Devlin, C. F. Chabalowski, and M. J. Frisch.,  J. Phys. Chem. 98, 11623 (1994) (10.1021/j100096a001)

    Deriv               =              1
    GGA                 =           TRUE
    Meta                =          FALSE

    Exchange Hybrid     =           TRUE
    MP2 Hybrid          =          FALSE

   => Exchange Functionals <=

    0.0800   Slater exchange
    0.7200         Becke 88

   => Exact (HF) Exchange <=

    0.2000               HF

   => Correlation Functionals <=

    0.1900   Vosko, Wilk & Nusair (VWN5_RPA)
    0.8100   Lee, Yang & Parr

   => LibXC Density Thresholds  <==

    XC_HYB_GGA_XC_B3LYP:  1.00E-15

   => Molecular Quadrature <=

    Radial Scheme          =       TREUTLER
    Pruning Scheme         =           NONE
    Nuclear Scheme         =       TREUTLER

    Blocking Scheme        =         OCTREE
    BS radius alpha        =              1
    Pruning alpha          =              1
    Radial Points          =             75
    Spherical Points       =            302
    Total Points           =          41627
    Total Blocks           =            384
    Max Points             =            255
    Max Functions          =             36
    Weights Tolerance      =       1.00E-15

  -Total Gradient:
     Atom            X                  Y                   Z
    ------   -----------------  -----------------  -----------------
       1        0.000000000000     0.000000000000    -0.000065639638
       2       -0.000000000000    -0.000000000000     0.000086099191

*** tstop() called on Joses-MacBook-Pro-2.local at Thu Jul 17 11:50:53 2025
Module time:
	user time   =       2.45 seconds =       0.04 minutes
	system time =       1.02 seconds =       0.02 minutes
	total time  =          0 seconds =       0.00 minutes
Total time:
	user time   =     198.99 seconds =       3.32 minutes
	system time =      45.14 seconds =       0.75 minutes
	total time  =         23 seconds =       0.38 minutes

    			-----------------------------------------

    			 OPTKING 3.0: for geometry optimizations

    			     By R.A. King, Bethel University

    			        with contributions from

    			    A.V. Copan, J. Cayton, A. Heide

    			-----------------------------------------

	                            ===> Fragment 1 <==

	 Z (Atomic Numbers)          Masses                          Geom
	      14.000000            27.976927          0.00000000  0.00000000  2.42365441
	      17.000000            34.968853          0.00000000  0.00000000 -1.93905136

	 - Coordinate -           - BOHR/RAD -       - ANG/DEG -
	 R(1,2)           =         4.362706           2.308644

	        --- Internal Coordinate Step in ANG or DEG, aJ/ANG or AJ/DEG ---
	-------------------------------------------------------------------------------
	           Coordinate      Previous         Force          Change          New
	           ----------      --------        ------          ------        ------
	               R(1,2)       2.30864        0.00063        0.00051       2.30916
	-------------------------------------------------------------------------------

	                                 ==> Convergence Check <==

	Measures of convergence in internal coordinates in au.

	Criteria marked as inactive (o), active & met (*), and active & unmet ( ).

	----------------------------------------------------------------------------------------------
	   Step    Total Energy     Delta E     Max Force     RMS Force      Max Disp      RMS Disp
	----------------------------------------------------------------------------------------------
	  Convergence Criteria     1.00e-06 *    3.00e-04 *             o    1.20e-03 *             o
	----------------------------------------------------------------------------------------------
	    16    -749.69727836   -9.84e-07 *    7.59e-05 *    7.59e-05 o    9.66e-04 *    9.66e-04 o  ~
	----------------------------------------------------------------------------------------------

Next Geometry in Ang
	Fragment 1 (Ang)

	   Si   0.0000000000   0.0000000000   1.2827982975
	   Cl   0.0000000000   0.0000000000  -1.0263574076

    Final optimized geometry and variables:
    Molecular point group: c2v
    Full point group: C_inf_v

    Geometry (in Angstrom), charge = -1, multiplicity = 1:

    SI           0.000000000000     0.000000000000     1.282542680110
    CL           0.000000000000     0.000000000000    -1.026101790221

    Psi4 stopped on: Thursday, 17 July 2025 11:50AM
    Psi4 wall time for execution: 0:00:24.05

*** Psi4 exiting successfully. Buy a developer a beer!
