                               Psi4 1.9.1 release

  ==> Input File <==

--------------------------------------------------------------------------
molecule {
-1 1
F   0.00000        0.60000        0.00000
Ne   0.00000       -0.60000        0.00000
}

set {
basis              cc-pvdz
reference          uks
maxiter            500
geom_maxiter       500
DAMPING_PERCENTAGE 1
guess              SAP
}

optimize('b3lyp')
--------------------------------------------------------------------------

    Molecular point group: c2v
  Charge       = -1
  Multiplicity = 1
  Basis Set: CC-PVDZ
    Blend: CC-PVDZ
  Basis Set: (CC-PVDZ AUX)
    Blend: CC-PVDZ-JKFIT
  @DF-UKS Final Energy:  -228.01652792905526
    Total Energy =                       -228.0165279290552576
 Dipole X            :          0.0000000            0.0000000            0.0000000
 Dipole Y            :          0.0000000            0.0000000            0.0000000
 Dipole Z            :         -0.7201077           -0.5846191           -1.3047268
 Magnitude           :                                                    1.3047268
    Molecular point group: c2v
  Basis Set: CC-PVDZ
    Blend: CC-PVDZ
  Basis Set: (CC-PVDZ AUX)
    Blend: CC-PVDZ-JKFIT
  Basis Set: CC-PVDZ
    Blend: CC-PVDZ
  Basis Set: (CC-PVDZ AUX)
    Blend: CC-PVDZ-JKFIT
  @DF-UKS Final Energy:  -228.46715140639930
    Total Energy =                       -228.4671514063992959
  Basis Set: CC-PVDZ
    Blend: CC-PVDZ
  Basis Set: (CC-PVDZ AUX)
    Blend: CC-PVDZ-JKFIT
  Basis Set: CC-PVDZ
    Blend: CC-PVDZ
  @DF-UKS Final Energy:  -228.55521996783509
    Total Energy =                       -228.5552199678350860
  @DF-UKS Final Energy:  -228.61373473778613
    Total Energy =                       -228.6137347377861317
  @DF-UKS Final Energy:  -228.64171311982810
    Total Energy =                       -228.6417131198280970
  @DF-UKS Final Energy:  -228.65860592891511
    Total Energy =                       -228.6586059289151081
  @DF-UKS Final Energy:  -228.66918901475779
    Total Energy =                       -228.6691890147577908
  @DF-UKS Final Energy:  -228.67511297406890
    Total Energy =                       -228.6751129740688953
  @DF-UKS Final Energy:  -228.67818877635068
    Total Energy =                       -228.6781887763506802
  @DF-UKS Final Energy:  -228.67963468548504
    Total Energy =                       -228.6796346854850412
  @DF-UKS Final Energy:  -228.68022952641059
    Total Energy =                       -228.6802295264105851
  @DF-UKS Final Energy:  -228.68044349510973
    Total Energy =                       -228.6804434951097278
  @DF-UKS Final Energy:  -228.68049777497629
    Total Energy =                       -228.6804977749762884
  @DF-UKS Final Energy:  -228.68051766604950
    Total Energy =                       -228.6805176660494965
  @DF-UKS Final Energy:  -228.68052190978705
    Total Energy =                       -228.6805219097870463
  Basis Set: (CC-PVDZ AUX)
    Blend: CC-PVDZ-JKFIT
  Basis Set: CC-PVDZ
    Blend: CC-PVDZ
  Basis Set: (CC-PVDZ AUX)
    Blend: CC-PVDZ-JKFIT
  @DF-UKS Final Energy:  -228.68052304563145
    Total Energy =                       -228.6805230456314462
  Basis Set: CC-PVDZ
    Blend: CC-PVDZ
  Basis Set: (CC-PVDZ AUX)
    Blend: CC-PVDZ-JKFIT
  Charge       = -1
  Multiplicity = 1
  Basis Set: CC-PVDZ
    Blend: CC-PVDZ
  Basis Set: (CC-PVDZ AUX)
    Blend: CC-PVDZ-JKFIT

    Orbital Energies [Eh]
    ---------------------

    Alpha Occupied:

       1A1   -30.758323     2A1   -24.084455     3A1    -1.224622
       4A1    -0.552680     1B2    -0.334509     1B1    -0.334509
       5A1    -0.329231     2B1     0.160522     2B2     0.160522
       6A1     0.160561

    Alpha Virtual:

       7A1     1.484747     3B1     1.557179     3B2     1.557179
       4B1     1.625778     4B2     1.625778     8A1     1.706881
       9A1     1.980790    10A1     2.066981     5B2     4.148222
       5B1     4.148222    11A1     4.148305     1A2     4.148320
      12A1     4.148336     2A2     4.931120    13A1     4.931144
       6B2     4.933826     6B1     4.933826    14A1     4.935117

    Beta Occupied:

       1A1   -30.758323     2A1   -24.084455     3A1    -1.224622
       4A1    -0.552680     1B2    -0.334509     1B1    -0.334509
       5A1    -0.329231     2B2     0.160522     2B1     0.160522
       6A1     0.160561

    Beta Virtual:

       7A1     1.484747     3B1     1.557179     3B2     1.557179
       4B1     1.625778     4B2     1.625778     8A1     1.706881
       9A1     1.980790    10A1     2.066981     5B1     4.148222
       5B2     4.148222    11A1     4.148305     1A2     4.148320
      12A1     4.148336     2A2     4.931120    13A1     4.931144
       6B2     4.933826     6B1     4.933826    14A1     4.935117

    Final Occupation by Irrep:
             A1    A2    B1    B2
    DOCC [     6,    0,    2,    2 ]
    SOCC [     0,    0,    0,    0 ]
    NA   [     6,    0,    2,    2 ]
    NB   [     6,    0,    2,    2 ]

  @DF-UKS Final Energy:  -228.68052319258010

   => Energetics <=

    Nuclear Repulsion Energy =             17.8918175850086492
    One-Electron Energy =                -365.3448790716367967
    Two-Electron Energy =                 137.6573551207045512
    DFT Exchange-Correlation Energy =     -18.8848168266565004
    Empirical Dispersion Energy =           0.0000000000000000
    VV10 Nonlocal Energy =                  0.0000000000000000
    Total Energy =                       -228.6805231925800967

  UHF NO Occupations:
  HONO-2 :    5 A1 2.0000000
  HONO-1 :    6 A1 2.0000000
  HONO-0 :    2 B1 2.0000000
  LUNO+0 :    7 A1 0.0000000
  LUNO+1 :    3 B2 0.0000000
  LUNO+2 :    8 A1 0.0000000
  LUNO+3 :    3 B1 0.0000000

Computation Completed

Properties will be evaluated at   0.000000,   0.000000,   0.000000 [a0]

Properties computed using the SCF density matrix

 Multipole Moments:

 ------------------------------------------------------------------------------------
     Multipole            Electronic (a.u.)      Nuclear  (a.u.)        Total (a.u.)
 ------------------------------------------------------------------------------------

 L = 1.  Multiply by 2.5417464519 to convert [e a0] to [Debye]
 Dipole X            :          0.0000000            0.0000000            0.0000000
 Dipole Y            :          0.0000000            0.0000000            0.0000000
 Dipole Z            :         -1.2542144           -1.2968237           -2.5510381
 Magnitude           :                                                    2.5510381

 ------------------------------------------------------------------------------------

*** tstop() called on Joses-MacBook-Pro-2.local at Thu Jul 17 10:50:04 2025
Module time:
	user time   =       2.13 seconds =       0.04 minutes
	system time =       3.11 seconds =       0.05 minutes
	total time  =          1 seconds =       0.02 minutes
Total time:
	user time   =      78.61 seconds =       1.31 minutes
	system time =      66.26 seconds =       1.10 minutes
	total time  =         16 seconds =       0.27 minutes

*** tstart() called on Joses-MacBook-Pro-2.local
*** at Thu Jul 17 10:50:04 2025

         ------------------------------------------------------------
                                   SCF GRAD
                          Rob Parrish, Justin Turney,
                       Andy Simmonett, and Alex Sokolov
         ------------------------------------------------------------

  ==> Geometry <==

    Molecular point group: c2v
    Full point group: C_inf_v

    Geometry (in Angstrom), charge = -1, multiplicity = 1:

       Center              X                  Y                   Z               Mass
    ------------   -----------------  -----------------  -----------------  -----------------
         F            0.000000000000     0.000000000000     1.364873359308    18.998403162730
         NE           0.000000000000     0.000000000000    -1.297010976032    19.992440176200

  Nuclear repulsion =   17.891817585008649

  ==> Basis Set <==

  Basis Set: CC-PVDZ
    Blend: CC-PVDZ
    Number of shells: 12
    Number of basis functions: 28
    Number of Cartesian functions: 30
    Spherical Harmonics?: true
    Max angular momentum: 2

  ==> DFJKGrad: Density-Fitted SCF Gradients <==

    Gradient:                    1
    J tasked:                  Yes
    K tasked:                  Yes
    wK tasked:                  No
    OpenMP threads:              1
    Integrals threads:           1
    Memory [MiB]:              375
    Schwarz Cutoff:          1E-12
    Fitting Condition:       1E-10

   => Auxiliary Basis Set <=

  Basis Set: (CC-PVDZ AUX)
    Blend: CC-PVDZ-JKFIT
    Number of shells: 48
    Number of basis functions: 140
    Number of Cartesian functions: 162
    Spherical Harmonics?: true
    Max angular momentum: 3

  ==> DFT Potential <==

   => LibXC <=

    Version 6.2.2
    S. Lehtola, C. Steigemann, M. J.T. Oliveira, and M. A.L. Marques.,  SoftwareX 7, 1â€“5 (2018) (10.1016/j.softx.2017.11.002)

   => Composite Functional: B3LYP <=

    B3LYP Hyb-GGA Exchange-Correlation Functional

    P. J. Stephens, F. J. Devlin, C. F. Chabalowski, and M. J. Frisch.,  J. Phys. Chem. 98, 11623 (1994) (10.1021/j100096a001)

    Deriv               =              1
    GGA                 =           TRUE
    Meta                =          FALSE

    Exchange Hybrid     =           TRUE
    MP2 Hybrid          =          FALSE

   => Exchange Functionals <=

    0.0800   Slater exchange
    0.7200         Becke 88

   => Exact (HF) Exchange <=

    0.2000               HF

   => Correlation Functionals <=

    0.1900   Vosko, Wilk & Nusair (VWN5_RPA)
    0.8100   Lee, Yang & Parr

   => LibXC Density Thresholds  <==

    XC_HYB_GGA_XC_B3LYP:  1.00E-15

   => Molecular Quadrature <=

    Radial Scheme          =       TREUTLER
    Pruning Scheme         =           NONE
    Nuclear Scheme         =       TREUTLER

    Blocking Scheme        =         OCTREE
    BS radius alpha        =              1
    Pruning alpha          =              1
    Radial Points          =             75
    Spherical Points       =            302
    Total Points           =          42405
    Total Blocks           =            379
    Max Points             =            253
    Max Functions          =             28
    Weights Tolerance      =       1.00E-15

  -Total Gradient:
     Atom            X                  Y                   Z
    ------   -----------------  -----------------  -----------------
       1        0.000000000000    -0.000000000000    -0.000006547940
       2       -0.000000000000    -0.000000000000     0.000015344780

*** tstop() called on Joses-MacBook-Pro-2.local at Thu Jul 17 10:50:04 2025
Module time:
	user time   =       0.63 seconds =       0.01 minutes
	system time =       0.96 seconds =       0.02 minutes
	total time  =          0 seconds =       0.00 minutes
Total time:
	user time   =      79.24 seconds =       1.32 minutes
	system time =      67.22 seconds =       1.12 minutes
	total time  =         16 seconds =       0.27 minutes

    			-----------------------------------------

    			 OPTKING 3.0: for geometry optimizations

    			     By R.A. King, Bethel University

    			        with contributions from

    			    A.V. Copan, J. Cayton, A. Heide

    			-----------------------------------------

	                            ===> Fragment 1 <==

	 Z (Atomic Numbers)          Masses                          Geom
	       9.000000            18.998403          0.00000000  0.00000000  2.57923685
	      10.000000            19.992440          0.00000000  0.00000000 -2.45099553

	 - Coordinate -           - BOHR/RAD -       - ANG/DEG -
	 R(1,2)           =         5.030232           2.661884

	        --- Internal Coordinate Step in ANG or DEG, aJ/ANG or AJ/DEG ---
	-------------------------------------------------------------------------------
	           Coordinate      Previous         Force          Change          New
	           ----------      --------        ------          ------        ------
	               R(1,2)       2.66188        0.00009        0.00082       2.66270
	-------------------------------------------------------------------------------

	                                 ==> Convergence Check <==

	Measures of convergence in internal coordinates in au.

	Criteria marked as inactive (o), active & met (*), and active & unmet ( ).

	----------------------------------------------------------------------------------------------
	   Step    Total Energy     Delta E     Max Force     RMS Force      Max Disp      RMS Disp
	----------------------------------------------------------------------------------------------
	  Convergence Criteria     1.00e-06 *    3.00e-04 *             o    1.20e-03 *             o
	----------------------------------------------------------------------------------------------
	    17    -228.68052319   -1.47e-07 *    1.09e-05 *    1.09e-05 o    1.54e-03      1.54e-03 o  ~
	----------------------------------------------------------------------------------------------

Next Geometry in Ang
	Fragment 1 (Ang)

	    F   0.0000000000   0.0000000000   1.3652812746
	   Ne   0.0000000000   0.0000000000  -1.2974188914

    Final optimized geometry and variables:
    Molecular point group: c2v
    Full point group: C_inf_v

    Geometry (in Angstrom), charge = -1, multiplicity = 1:

    F            0.000000000000     0.000000000000     1.364873359308
    NE           0.000000000000     0.000000000000    -1.297010976032

    Psi4 stopped on: Thursday, 17 July 2025 10:50AM
    Psi4 wall time for execution: 0:00:16.17

*** Psi4 exiting successfully. Buy a developer a beer!
