                               Psi4 1.9.1 release

  ==> Input File <==

--------------------------------------------------------------------------
molecule {
-1 1
N   0.00000        0.60000        0.00000
Si   0.00000       -0.60000        0.00000
}

set {
basis              cc-pvdz
reference          uks
maxiter            500
geom_maxiter       500
DAMPING_PERCENTAGE 1
guess              SAP
}

optimize('b3lyp')
--------------------------------------------------------------------------

    Molecular point group: c2v
  Charge       = -1
  Multiplicity = 1
  Basis Set: CC-PVDZ
    Blend: CC-PVDZ
  Basis Set: (CC-PVDZ AUX)
    Blend: CC-PVDZ-JKFIT
  @DF-UKS Final Energy:  -343.92768268261102
    Total Energy =                       -343.9276826826110209
 Dipole X            :          0.0000000            0.0000000            0.0000000
 Dipole Y            :          0.0000000            0.0000000            0.0000000
 Dipole Z            :         -0.5898391           -0.0110494           -0.6008884
 Magnitude           :                                                    0.6008884
    Molecular point group: c2v
  Basis Set: CC-PVDZ
    Blend: CC-PVDZ
  Basis Set: (CC-PVDZ AUX)
    Blend: CC-PVDZ-JKFIT
  Basis Set: CC-PVDZ
    Blend: CC-PVDZ
  Basis Set: (CC-PVDZ AUX)
    Blend: CC-PVDZ-JKFIT
  @DF-UKS Final Energy:  -344.12137168914325
    Total Energy =                       -344.1213716891432455
  Basis Set: CC-PVDZ
    Blend: CC-PVDZ
  Basis Set: (CC-PVDZ AUX)
    Blend: CC-PVDZ-JKFIT
  Basis Set: CC-PVDZ
    Blend: CC-PVDZ
  @DF-UKS Final Energy:  -344.18977990282275
    Total Energy =                       -344.1897799028226927
  @DF-UKS Final Energy:  -344.20949704714894
    Total Energy =                       -344.2094970471489432
  @DF-UKS Final Energy:  -344.21828865456422
    Total Energy =                       -344.2182886545642759
  @DF-UKS Final Energy:  -344.22018585935086
    Total Energy =                       -344.2201858593508632
  @DF-UKS Final Energy:  -344.22064301187868
    Total Energy =                       -344.2206430118786784
  @DF-UKS Final Energy:  -344.22078200301581
    Total Energy =                       -344.2207820030158700
  Basis Set: (CC-PVDZ AUX)
    Blend: CC-PVDZ-JKFIT
  Basis Set: CC-PVDZ
    Blend: CC-PVDZ
  Basis Set: (CC-PVDZ AUX)
    Blend: CC-PVDZ-JKFIT
  @DF-UKS Final Energy:  -344.22080036171366
    Total Energy =                       -344.2208003617136569
  Basis Set: CC-PVDZ
    Blend: CC-PVDZ
  Basis Set: (CC-PVDZ AUX)
    Blend: CC-PVDZ-JKFIT
  Charge       = -1
  Multiplicity = 1
  Basis Set: CC-PVDZ
    Blend: CC-PVDZ
  Basis Set: (CC-PVDZ AUX)
    Blend: CC-PVDZ-JKFIT

    Orbital Energies [Eh]
    ---------------------

    Alpha Occupied:

       1A1   -65.851555     2A1   -14.042635     3A1    -5.003451
       1B2    -3.362406     1B1    -3.362406     4A1    -3.358130
       5A1    -0.473559     6A1    -0.127769     2B1    -0.001410
       2B2    -0.001410     7A1     0.005668

    Alpha Virtual:

       3B1     0.202491     3B2     0.202491     8A1     0.296561
       9A1     0.486707     4B2     0.547863     4B1     0.547863
       1A2     0.624441    10A1     0.624441    11A1     0.626042
       5B1     0.725925     5B2     0.725925    12A1     0.888300
       6B1     1.071452     6B2     1.071452    13A1     1.221490
      14A1     1.513325     2A2     2.085447    15A1     2.085451
       7B1     2.257507     7B2     2.257507    16A1     2.663953

    Beta Occupied:

       1A1   -65.851555     2A1   -14.042635     3A1    -5.003451
       1B2    -3.362406     1B1    -3.362406     4A1    -3.358130
       5A1    -0.473559     6A1    -0.127769     2B1    -0.001410
       2B2    -0.001410     7A1     0.005668

    Beta Virtual:

       3B1     0.202491     3B2     0.202491     8A1     0.296561
       9A1     0.486707     4B2     0.547863     4B1     0.547863
       1A2     0.624441    10A1     0.624441    11A1     0.626042
       5B1     0.725925     5B2     0.725925    12A1     0.888300
       6B1     1.071452     6B2     1.071452    13A1     1.221490
      14A1     1.513325     2A2     2.085447    15A1     2.085451
       7B1     2.257507     7B2     2.257507    16A1     2.663953

    Final Occupation by Irrep:
             A1    A2    B1    B2
    DOCC [     7,    0,    2,    2 ]
    SOCC [     0,    0,    0,    0 ]
    NA   [     7,    0,    2,    2 ]
    NB   [     7,    0,    2,    2 ]

  @DF-UKS Final Energy:  -344.22080145604656

   => Energetics <=

    Nuclear Repulsion Energy =             32.4009471316965545
    One-Electron Energy =                -545.9702502569305125
    Two-Electron Energy =                 191.9082219332734667
    DFT Exchange-Correlation Energy =     -22.5597202640860068
    Empirical Dispersion Energy =           0.0000000000000000
    VV10 Nonlocal Energy =                  0.0000000000000000
    Total Energy =                       -344.2208014560465585

  UHF NO Occupations:
  HONO-2 :    2 B1 2.0000000
  HONO-1 :    6 A1 2.0000000
  HONO-0 :    7 A1 2.0000000
  LUNO+0 :    8 A1 0.0000000
  LUNO+1 :    9 A1 0.0000000
  LUNO+2 :   10 A1 0.0000000
  LUNO+3 :    3 B2 0.0000000

Computation Completed

Properties will be evaluated at   0.000000,   0.000000,   0.000000 [a0]

Properties computed using the SCF density matrix

 Multipole Moments:

 ------------------------------------------------------------------------------------
     Multipole            Electronic (a.u.)      Nuclear  (a.u.)        Total (a.u.)
 ------------------------------------------------------------------------------------

 L = 1.  Multiply by 2.5417464519 to convert [e a0] to [Debye]
 Dipole X            :          0.0000000            0.0000000            0.0000000
 Dipole Y            :          0.0000000            0.0000000            0.0000000
 Dipole Z            :         -0.6031868           -0.0147376           -0.6179244
 Magnitude           :                                                    0.6179244

 ------------------------------------------------------------------------------------

*** tstop() called on Joses-MacBook-Pro-2.local at Thu Jul 17 10:31:08 2025
Module time:
	user time   =       2.43 seconds =       0.04 minutes
	system time =       3.10 seconds =       0.05 minutes
	total time  =          1 seconds =       0.02 minutes
Total time:
	user time   =      51.94 seconds =       0.87 minutes
	system time =      53.43 seconds =       0.89 minutes
	total time  =         11 seconds =       0.18 minutes

*** tstart() called on Joses-MacBook-Pro-2.local
*** at Thu Jul 17 10:31:08 2025

         ------------------------------------------------------------
                                   SCF GRAD
                          Rob Parrish, Justin Turney,
                       Andy Simmonett, and Alex Sokolov
         ------------------------------------------------------------

  ==> Geometry <==

    Molecular point group: c2v
    Full point group: C_inf_v

    Geometry (in Angstrom), charge = -1, multiplicity = 1:

       Center              X                  Y                   Z               Mass
    ------------   -----------------  -----------------  -----------------  -----------------
         N            0.000000000000     0.000000000000     1.066662594339    14.003074004430
         SI           0.000000000000     0.000000000000    -0.533888353597    27.976926534650

  Nuclear repulsion =   32.400947131696554

  ==> Basis Set <==

  Basis Set: CC-PVDZ
    Blend: CC-PVDZ
    Number of shells: 14
    Number of basis functions: 32
    Number of Cartesian functions: 34
    Spherical Harmonics?: true
    Max angular momentum: 2

  ==> DFJKGrad: Density-Fitted SCF Gradients <==

    Gradient:                    1
    J tasked:                  Yes
    K tasked:                  Yes
    wK tasked:                  No
    OpenMP threads:              1
    Integrals threads:           1
    Memory [MiB]:              375
    Schwarz Cutoff:          1E-12
    Fitting Condition:       1E-10

   => Auxiliary Basis Set <=

  Basis Set: (CC-PVDZ AUX)
    Blend: CC-PVDZ-JKFIT
    Number of shells: 60
    Number of basis functions: 182
    Number of Cartesian functions: 211
    Spherical Harmonics?: true
    Max angular momentum: 3

  ==> DFT Potential <==

   => LibXC <=

    Version 6.2.2
    S. Lehtola, C. Steigemann, M. J.T. Oliveira, and M. A.L. Marques.,  SoftwareX 7, 1â€“5 (2018) (10.1016/j.softx.2017.11.002)

   => Composite Functional: B3LYP <=

    B3LYP Hyb-GGA Exchange-Correlation Functional

    P. J. Stephens, F. J. Devlin, C. F. Chabalowski, and M. J. Frisch.,  J. Phys. Chem. 98, 11623 (1994) (10.1021/j100096a001)

    Deriv               =              1
    GGA                 =           TRUE
    Meta                =          FALSE

    Exchange Hybrid     =           TRUE
    MP2 Hybrid          =          FALSE

   => Exchange Functionals <=

    0.0800   Slater exchange
    0.7200         Becke 88

   => Exact (HF) Exchange <=

    0.2000               HF

   => Correlation Functionals <=

    0.1900   Vosko, Wilk & Nusair (VWN5_RPA)
    0.8100   Lee, Yang & Parr

   => LibXC Density Thresholds  <==

    XC_HYB_GGA_XC_B3LYP:  1.00E-15

   => Molecular Quadrature <=

    Radial Scheme          =       TREUTLER
    Pruning Scheme         =           NONE
    Nuclear Scheme         =       TREUTLER

    Blocking Scheme        =         OCTREE
    BS radius alpha        =              1
    Pruning alpha          =              1
    Radial Points          =             75
    Spherical Points       =            302
    Total Points           =          42630
    Total Blocks           =            395
    Max Points             =            255
    Max Functions          =             32
    Weights Tolerance      =       1.00E-15

  -Total Gradient:
     Atom            X                  Y                   Z
    ------   -----------------  -----------------  -----------------
       1        0.000000000000     0.000000000000    -0.000147146844
       2        0.000000000000    -0.000000000000     0.000114722500

*** tstop() called on Joses-MacBook-Pro-2.local at Thu Jul 17 10:31:08 2025
Module time:
	user time   =       1.03 seconds =       0.02 minutes
	system time =       1.40 seconds =       0.02 minutes
	total time  =          0 seconds =       0.00 minutes
Total time:
	user time   =      52.98 seconds =       0.88 minutes
	system time =      54.83 seconds =       0.91 minutes
	total time  =         11 seconds =       0.18 minutes

    			-----------------------------------------

    			 OPTKING 3.0: for geometry optimizations

    			     By R.A. King, Bethel University

    			        with contributions from

    			    A.V. Copan, J. Cayton, A. Heide

    			-----------------------------------------

	                            ===> Fragment 1 <==

	 Z (Atomic Numbers)          Masses                          Geom
	       7.000000            14.003074          0.00000000  0.00000000  2.01570017
	      14.000000            27.976927          0.00000000  0.00000000 -1.00890277

	 - Coordinate -           - BOHR/RAD -       - ANG/DEG -
	 R(1,2)           =         3.024603           1.600551

	        --- Internal Coordinate Step in ANG or DEG, aJ/ANG or AJ/DEG ---
	-------------------------------------------------------------------------------
	           Coordinate      Previous         Force          Change          New
	           ----------      --------        ------          ------        ------
	               R(1,2)       1.60055        0.00108        0.00014       1.60069
	-------------------------------------------------------------------------------

	                                 ==> Convergence Check <==

	Measures of convergence in internal coordinates in au.

	Criteria marked as inactive (o), active & met (*), and active & unmet ( ).

	----------------------------------------------------------------------------------------------
	   Step    Total Energy     Delta E     Max Force     RMS Force      Max Disp      RMS Disp
	----------------------------------------------------------------------------------------------
	  Convergence Criteria     1.00e-06 *    3.00e-04 *             o    1.20e-03 *             o
	----------------------------------------------------------------------------------------------
	    10    -344.22080146   -1.09e-06      1.31e-04 *    1.31e-04 o    2.60e-04 *    2.60e-04 o  ~
	----------------------------------------------------------------------------------------------

Next Geometry in Ang
	Fragment 1 (Ang)

	    N   0.0000000000   0.0000000000   1.0667313068
	   Si   0.0000000000   0.0000000000  -0.5339570661

    Final optimized geometry and variables:
    Molecular point group: c2v
    Full point group: C_inf_v

    Geometry (in Angstrom), charge = -1, multiplicity = 1:

    N            0.000000000000     0.000000000000     1.066662594339
    SI           0.000000000000     0.000000000000    -0.533888353597

    Psi4 stopped on: Thursday, 17 July 2025 10:31AM
    Psi4 wall time for execution: 0:00:11.31

*** Psi4 exiting successfully. Buy a developer a beer!
