                               Psi4 1.9.1 release

  ==> Input File <==

--------------------------------------------------------------------------
molecule {
-1 1
B   0.00000        0.60000        0.00000
Si   0.00000       -0.60000        0.00000
}

set {
basis              cc-pvdz
reference          uks
maxiter            500
geom_maxiter       500
DAMPING_PERCENTAGE 1
guess              SAP
}

optimize('b3lyp')
--------------------------------------------------------------------------

    Molecular point group: c2v
  Charge       = -1
  Multiplicity = 1
  Basis Set: CC-PVDZ
    Blend: CC-PVDZ
  Basis Set: (CC-PVDZ AUX)
    Blend: CC-PVDZ-JKFIT
  @DF-UKS Final Energy:  -313.78671561797188
    Total Energy =                       -313.7867156179718791
 Dipole X            :          0.0000000            0.0000000            0.0000000
 Dipole Y            :          0.0000000            0.0000000            0.0000000
 Dipole Z            :          0.5767687           -0.8286114           -0.2518426
 Magnitude           :                                                    0.2518426
    Molecular point group: c2v
  Basis Set: CC-PVDZ
    Blend: CC-PVDZ
  Basis Set: (CC-PVDZ AUX)
    Blend: CC-PVDZ-JKFIT
  Basis Set: CC-PVDZ
    Blend: CC-PVDZ
  Basis Set: (CC-PVDZ AUX)
    Blend: CC-PVDZ-JKFIT
  @DF-UKS Final Energy:  -313.98199352099573
    Total Energy =                       -313.9819935209957293
  Basis Set: CC-PVDZ
    Blend: CC-PVDZ
  Basis Set: (CC-PVDZ AUX)
    Blend: CC-PVDZ-JKFIT
  Basis Set: CC-PVDZ
    Blend: CC-PVDZ
  @DF-UKS Final Energy:  -314.10967432068725
    Total Energy =                       -314.1096743206873043
  @DF-UKS Final Energy:  -314.16457427515576
    Total Energy =                       -314.1645742751557577
  @DF-UKS Final Energy:  -314.18185288029588
    Total Energy =                       -314.1818528802959349
  @DF-UKS Final Energy:  -314.18534007444413
    Total Energy =                       -314.1853400744441274
  @DF-UKS Final Energy:  -314.18633980131813
    Total Energy =                       -314.1863398013181836
  @DF-UKS Final Energy:  -314.18646359056822
    Total Energy =                       -314.1864635905682235
  Basis Set: (CC-PVDZ AUX)
    Blend: CC-PVDZ-JKFIT
  Basis Set: CC-PVDZ
    Blend: CC-PVDZ
  Basis Set: (CC-PVDZ AUX)
    Blend: CC-PVDZ-JKFIT
  @DF-UKS Final Energy:  -314.18648021093787
    Total Energy =                       -314.1864802109379298
  Basis Set: CC-PVDZ
    Blend: CC-PVDZ
  Basis Set: (CC-PVDZ AUX)
    Blend: CC-PVDZ-JKFIT
  Charge       = -1
  Multiplicity = 1
  Basis Set: CC-PVDZ
    Blend: CC-PVDZ
  Basis Set: (CC-PVDZ AUX)
    Blend: CC-PVDZ-JKFIT

    Orbital Energies [Eh]
    ---------------------

    Alpha Occupied:

       1A1   -65.894943     2A1    -6.574113     3A1    -5.039626
       4A1    -3.400943     1B1    -3.395673     1B2    -3.395673
       5A1    -0.266659     6A1    -0.080027     2B2     0.031184
       2B1     0.031184

    Alpha Virtual:

       7A1     0.073076     3B1     0.196946     3B2     0.196946
       8A1     0.296706     9A1     0.440718    10A1     0.482453
       4B2     0.498993     4B1     0.498993     5B2     0.568854
       5B1     0.568854    11A1     0.602462     1A2     0.611224
      12A1     0.611224     6B2     0.674298     6B1     0.674298
      13A1     0.801425    14A1     0.983977     2A2     0.983977
      15A1     1.048384     7B2     1.188109     7B1     1.188109
      16A1     1.396260

    Beta Occupied:

       1A1   -65.894943     2A1    -6.574113     3A1    -5.039626
       4A1    -3.400943     1B1    -3.395673     1B2    -3.395673
       5A1    -0.266659     6A1    -0.080027     2B2     0.031184
       2B1     0.031184

    Beta Virtual:

       7A1     0.073076     3B1     0.196946     3B2     0.196946
       8A1     0.296706     9A1     0.440718    10A1     0.482453
       4B2     0.498993     4B1     0.498993     5B2     0.568854
       5B1     0.568854    11A1     0.602462     1A2     0.611224
      12A1     0.611224     6B2     0.674298     6B1     0.674298
      13A1     0.801425    14A1     0.983977     2A2     0.983977
      15A1     1.048384     7B2     1.188109     7B1     1.188109
      16A1     1.396260

    Final Occupation by Irrep:
             A1    A2    B1    B2
    DOCC [     6,    0,    2,    2 ]
    SOCC [     0,    0,    0,    0 ]
    NA   [     6,    0,    2,    2 ]
    NB   [     6,    0,    2,    2 ]

  @DF-UKS Final Energy:  -314.18648277777515

   => Energetics <=

    Nuclear Repulsion Energy =             20.5200347192625472
    One-Electron Energy =                -479.0426151500422520
    Two-Electron Energy =                 164.5000009880569110
    DFT Exchange-Correlation Energy =     -20.1639033350523427
    Empirical Dispersion Energy =           0.0000000000000000
    VV10 Nonlocal Energy =                  0.0000000000000000
    Total Energy =                       -314.1864827777751543

  UHF NO Occupations:
  HONO-2 :    1 B1 2.0000000
  HONO-1 :    2 B1 2.0000000
  HONO-0 :    6 A1 2.0000000
  LUNO+0 :    7 A1 0.0000000
  LUNO+1 :    8 A1 0.0000000
  LUNO+2 :    9 A1 0.0000000
  LUNO+3 :    3 B2 0.0000000

Computation Completed

Properties will be evaluated at   0.000000,   0.000000,   0.000000 [a0]

Properties computed using the SCF density matrix

 Multipole Moments:

 ------------------------------------------------------------------------------------
     Multipole            Electronic (a.u.)      Nuclear  (a.u.)        Total (a.u.)
 ------------------------------------------------------------------------------------

 L = 1.  Multiply by 2.5417464519 to convert [e a0] to [Debye]
 Dipole X            :          0.0000000            0.0000000            0.0000000
 Dipole Y            :          0.0000000            0.0000000            0.0000000
 Dipole Z            :          0.7260255           -1.2464955           -0.5204700
 Magnitude           :                                                    0.5204700

 ------------------------------------------------------------------------------------

*** tstop() called on Joses-MacBook-Pro-2.local at Thu Jul 17 09:54:07 2025
Module time:
	user time   =       4.26 seconds =       0.07 minutes
	system time =       3.28 seconds =       0.05 minutes
	total time  =          1 seconds =       0.02 minutes
Total time:
	user time   =      56.08 seconds =       0.93 minutes
	system time =      62.64 seconds =       1.04 minutes
	total time  =         12 seconds =       0.20 minutes

*** tstart() called on Joses-MacBook-Pro-2.local
*** at Thu Jul 17 09:54:07 2025

         ------------------------------------------------------------
                                   SCF GRAD
                          Rob Parrish, Justin Turney,
                       Andy Simmonett, and Alex Sokolov
         ------------------------------------------------------------

  ==> Geometry <==

    Molecular point group: c2v
    Full point group: C_inf_v

    Geometry (in Angstrom), charge = -1, multiplicity = 1:

       Center              X                  Y                   Z               Mass
    ------------   -----------------  -----------------  -----------------  -----------------
         B            0.000000000000     0.000000000000     1.295417686565    11.009305360000
         SI           0.000000000000     0.000000000000    -0.509764675633    27.976926534650

  Nuclear repulsion =   20.520034719262547

  ==> Basis Set <==

  Basis Set: CC-PVDZ
    Blend: CC-PVDZ
    Number of shells: 14
    Number of basis functions: 32
    Number of Cartesian functions: 34
    Spherical Harmonics?: true
    Max angular momentum: 2

  ==> DFJKGrad: Density-Fitted SCF Gradients <==

    Gradient:                    1
    J tasked:                  Yes
    K tasked:                  Yes
    wK tasked:                  No
    OpenMP threads:              1
    Integrals threads:           1
    Memory [MiB]:              375
    Schwarz Cutoff:          1E-12
    Fitting Condition:       1E-10

   => Auxiliary Basis Set <=

  Basis Set: (CC-PVDZ AUX)
    Blend: CC-PVDZ-JKFIT
    Number of shells: 60
    Number of basis functions: 182
    Number of Cartesian functions: 211
    Spherical Harmonics?: true
    Max angular momentum: 3

  ==> DFT Potential <==

   => LibXC <=

    Version 6.2.2
    S. Lehtola, C. Steigemann, M. J.T. Oliveira, and M. A.L. Marques.,  SoftwareX 7, 1â€“5 (2018) (10.1016/j.softx.2017.11.002)

   => Composite Functional: B3LYP <=

    B3LYP Hyb-GGA Exchange-Correlation Functional

    P. J. Stephens, F. J. Devlin, C. F. Chabalowski, and M. J. Frisch.,  J. Phys. Chem. 98, 11623 (1994) (10.1021/j100096a001)

    Deriv               =              1
    GGA                 =           TRUE
    Meta                =          FALSE

    Exchange Hybrid     =           TRUE
    MP2 Hybrid          =          FALSE

   => Exchange Functionals <=

    0.0800   Slater exchange
    0.7200         Becke 88

   => Exact (HF) Exchange <=

    0.2000               HF

   => Correlation Functionals <=

    0.1900   Vosko, Wilk & Nusair (VWN5_RPA)
    0.8100   Lee, Yang & Parr

   => LibXC Density Thresholds  <==

    XC_HYB_GGA_XC_B3LYP:  1.00E-15

   => Molecular Quadrature <=

    Radial Scheme          =       TREUTLER
    Pruning Scheme         =           NONE
    Nuclear Scheme         =       TREUTLER

    Blocking Scheme        =         OCTREE
    BS radius alpha        =              1
    Pruning alpha          =              1
    Radial Points          =             75
    Spherical Points       =            302
    Total Points           =          42104
    Total Blocks           =            389
    Max Points             =            255
    Max Functions          =             32
    Weights Tolerance      =       1.00E-15

  -Total Gradient:
     Atom            X                  Y                   Z
    ------   -----------------  -----------------  -----------------
       1        0.000000000000     0.000000000000    -0.000235403131
       2        0.000000000000    -0.000000000000     0.000222627205

*** tstop() called on Joses-MacBook-Pro-2.local at Thu Jul 17 09:54:07 2025
Module time:
	user time   =       1.33 seconds =       0.02 minutes
	system time =       1.49 seconds =       0.02 minutes
	total time  =          0 seconds =       0.00 minutes
Total time:
	user time   =      57.41 seconds =       0.96 minutes
	system time =      64.14 seconds =       1.07 minutes
	total time  =         12 seconds =       0.20 minutes

    			-----------------------------------------

    			 OPTKING 3.0: for geometry optimizations

    			     By R.A. King, Bethel University

    			        with contributions from

    			    A.V. Copan, J. Cayton, A. Heide

    			-----------------------------------------

	                            ===> Fragment 1 <==

	 Z (Atomic Numbers)          Masses                          Geom
	       5.000000            11.009305          0.00000000  0.00000000  2.44798465
	      14.000000            27.976927          0.00000000  0.00000000 -0.96331563

	 - Coordinate -           - BOHR/RAD -       - ANG/DEG -
	 R(1,2)           =         3.411300           1.805182

	        --- Internal Coordinate Step in ANG or DEG, aJ/ANG or AJ/DEG ---
	-------------------------------------------------------------------------------
	           Coordinate      Previous         Force          Change          New
	           ----------      --------        ------          ------        ------
	               R(1,2)       1.80518        0.00189        0.00048       1.80566
	-------------------------------------------------------------------------------

	                                 ==> Convergence Check <==

	Measures of convergence in internal coordinates in au.

	Criteria marked as inactive (o), active & met (*), and active & unmet ( ).

	----------------------------------------------------------------------------------------------
	   Step    Total Energy     Delta E     Max Force     RMS Force      Max Disp      RMS Disp
	----------------------------------------------------------------------------------------------
	  Convergence Criteria     1.00e-06 *    3.00e-04 *             o    1.20e-03 *             o
	----------------------------------------------------------------------------------------------
	    10    -314.18648278   -2.57e-06      2.29e-04 *    2.29e-04 o    9.00e-04 *    9.00e-04 o  ~
	----------------------------------------------------------------------------------------------

Next Geometry in Ang
	Fragment 1 (Ang)

	    B   0.0000000000   0.0000000000   1.2956558193
	   Si   0.0000000000   0.0000000000  -0.5100028084

    Final optimized geometry and variables:
    Molecular point group: c2v
    Full point group: C_inf_v

    Geometry (in Angstrom), charge = -1, multiplicity = 1:

    B            0.000000000000     0.000000000000     1.295417686565
    SI           0.000000000000     0.000000000000    -0.509764675633

    Psi4 stopped on: Thursday, 17 July 2025 09:54AM
    Psi4 wall time for execution: 0:00:12.77

*** Psi4 exiting successfully. Buy a developer a beer!
