                               Psi4 1.9.1 release

  ==> Input File <==

--------------------------------------------------------------------------
molecule {
-1 1
Na   0.00000        0.60000        0.00000
Si   0.00000       -0.60000        0.00000
}

set {
basis              cc-pvdz
reference          uks
maxiter            500
geom_maxiter       500
DAMPING_PERCENTAGE 1
guess              SAP
}

optimize('b3lyp')
--------------------------------------------------------------------------

    Molecular point group: c2v
  Charge       = -1
  Multiplicity = 1
  Basis Set: CC-PVDZ
    Blend: CC-PVDZ
  Basis Set: (CC-PVDZ AUX)
    Blend: CC-PVDZ-JKFIT + DEF2-UNIVERSAL-JKFIT
  @DF-UKS Final Energy:  -450.96537882441226
    Total Energy =                       -450.9653788244122552
 Dipole X            :          0.0000000            0.0000000            0.0000000
 Dipole Y            :          0.0000000            0.0000000            0.0000000
 Dipole Z            :          1.9881426           -0.6278248            1.3603178
 Magnitude           :                                                    1.3603178
    Molecular point group: c2v
  Basis Set: CC-PVDZ
    Blend: CC-PVDZ
  Basis Set: (CC-PVDZ AUX)
    Blend: CC-PVDZ-JKFIT + DEF2-UNIVERSAL-JKFIT
  Basis Set: CC-PVDZ
    Blend: CC-PVDZ
  Basis Set: (CC-PVDZ AUX)
    Blend: CC-PVDZ-JKFIT + DEF2-UNIVERSAL-JKFIT
  @DF-UKS Final Energy:  -450.97348757334703
    Total Energy =                       -450.9734875733470290
  Basis Set: CC-PVDZ
    Blend: CC-PVDZ
  Basis Set: (CC-PVDZ AUX)
    Blend: CC-PVDZ-JKFIT + DEF2-UNIVERSAL-JKFIT
  Basis Set: CC-PVDZ
    Blend: CC-PVDZ
  @DF-UKS Final Energy:  -450.98917592367167
    Total Energy =                       -450.9891759236716666
  @DF-UKS Final Energy:  -451.04645727214393
    Total Energy =                       -451.0464572721439254
  @DF-UKS Final Energy:  -451.31284544228623
    Total Energy =                       -451.3128454422862319
  @DF-UKS Final Energy:  -451.46323733636171
    Total Energy =                       -451.4632373363617148
  @DF-UKS Final Energy:  -451.56685049061923
    Total Energy =                       -451.5668504906192311
  @DF-UKS Final Energy:  -451.62384183765187
    Total Energy =                       -451.6238418376518666
  @DF-UKS Final Energy:  -451.65044337778716
    Total Energy =                       -451.6504433777871554
  @DF-UKS Final Energy:  -451.70397747103289
    Total Energy =                       -451.7039774710328857
  @DF-UKS Final Energy:  -451.72402353423286
    Total Energy =                       -451.7240235342329129
  @DF-UKS Final Energy:  -451.72402859101248
    Total Energy =                       -451.7240285910124840
  Basis Set: (CC-PVDZ AUX)
    Blend: CC-PVDZ-JKFIT + DEF2-UNIVERSAL-JKFIT
  Basis Set: CC-PVDZ
    Blend: CC-PVDZ
  Basis Set: (CC-PVDZ AUX)
    Blend: CC-PVDZ-JKFIT + DEF2-UNIVERSAL-JKFIT
  @DF-UKS Final Energy:  -451.72406974709543
    Total Energy =                       -451.7240697470954274
  Basis Set: CC-PVDZ
    Blend: CC-PVDZ
  Basis Set: (CC-PVDZ AUX)
    Blend: CC-PVDZ-JKFIT + DEF2-UNIVERSAL-JKFIT
  Charge       = -1
  Multiplicity = 1
  Basis Set: CC-PVDZ
    Blend: CC-PVDZ
  Basis Set: (CC-PVDZ AUX)
    Blend: CC-PVDZ-JKFIT + DEF2-UNIVERSAL-JKFIT

    Orbital Energies [Eh]
    ---------------------

    Alpha Occupied:

       1A1   -65.957211     2A1   -38.294861     3A1    -5.097091
       1B1    -3.461468     4A1    -3.453754     1B2    -3.449565
       5A1    -2.043678     2B1    -0.975639     6A1    -0.974738
       2B2    -0.974422     7A1    -0.224452     8A1     0.007989
       3B2     0.033704

    Alpha Virtual:

       3B1     0.061374     9A1     0.073020     4B2     0.112511
       4B1     0.114020    10A1     0.126234    11A1     0.176952
       5B1     0.209066     5B2     0.212557    12A1     0.269962
       1A2     0.311811    13A1     0.312523     6B1     0.324873
       6B2     0.332533    14A1     0.377458     7B1     0.510452
       7B2     0.525393    15A1     0.543410    16A1     0.572050
       2A2     0.577176    17A1     0.581998     8B1     0.648712
       8B2     0.664953    18A1     0.841787

    Beta Occupied:

       1A1   -65.957211     2A1   -38.294861     3A1    -5.097091
       1B1    -3.461468     4A1    -3.453754     1B2    -3.449565
       5A1    -2.043678     2B1    -0.975639     6A1    -0.974738
       2B2    -0.974422     7A1    -0.224452     8A1     0.007989
       3B2     0.033704

    Beta Virtual:

       3B1     0.061374     9A1     0.073020     4B2     0.112511
       4B1     0.114020    10A1     0.126234    11A1     0.176952
       5B1     0.209066     5B2     0.212557    12A1     0.269962
       1A2     0.311811    13A1     0.312523     6B1     0.324873
       6B2     0.332533    14A1     0.377458     7B1     0.510452
       7B2     0.525393    15A1     0.543410    16A1     0.572050
       2A2     0.577176    17A1     0.581998     8B1     0.648712
       8B2     0.664953    18A1     0.841787

    Final Occupation by Irrep:
             A1    A2    B1    B2
    DOCC [     8,    0,    2,    3 ]
    SOCC [     0,    0,    0,    0 ]
    NA   [     8,    0,    2,    3 ]
    NB   [     8,    0,    2,    3 ]

  @DF-UKS Final Energy:  -451.72406977247960

   => Energetics <=

    Nuclear Repulsion Energy =             29.1152959273149818
    One-Electron Energy =                -691.5755081274335225
    Two-Electron Energy =                 239.2825034620727251
    DFT Exchange-Correlation Energy =     -28.5463610344337226
    Empirical Dispersion Energy =           0.0000000000000000
    VV10 Nonlocal Energy =                  0.0000000000000000
    Total Energy =                       -451.7240697724795950

  UHF NO Occupations:
  HONO-2 :    6 A1 2.0000000
  HONO-1 :    7 A1 2.0000000
  HONO-0 :    8 A1 2.0000000
  LUNO+0 :    9 A1 0.0000000
  LUNO+1 :   10 A1 0.0000000
  LUNO+2 :   11 A1 0.0000000
  LUNO+3 :   12 A1 0.0000000

Computation Completed

Properties will be evaluated at   0.000000,   0.000000,   0.000000 [a0]

Properties computed using the SCF density matrix

 Multipole Moments:

 ------------------------------------------------------------------------------------
     Multipole            Electronic (a.u.)      Nuclear  (a.u.)        Total (a.u.)
 ------------------------------------------------------------------------------------

 L = 1.  Multiply by 2.5417464519 to convert [e a0] to [Debye]
 Dipole X            :          0.0000000            0.0000000            0.0000000
 Dipole Y            :          0.0000000            0.0000000            0.0000000
 Dipole Z            :          1.4359523           -1.4643937           -0.0284414
 Magnitude           :                                                    0.0284414

 ------------------------------------------------------------------------------------

*** tstop() called on Joses-MacBook-Pro-2.local at Thu Jul 17 11:10:48 2025
Module time:
	user time   =       7.83 seconds =       0.13 minutes
	system time =       2.69 seconds =       0.04 minutes
	total time  =          1 seconds =       0.02 minutes
Total time:
	user time   =     179.87 seconds =       3.00 minutes
	system time =      58.58 seconds =       0.98 minutes
	total time  =         23 seconds =       0.38 minutes

*** tstart() called on Joses-MacBook-Pro-2.local
*** at Thu Jul 17 11:10:48 2025

         ------------------------------------------------------------
                                   SCF GRAD
                          Rob Parrish, Justin Turney,
                       Andy Simmonett, and Alex Sokolov
         ------------------------------------------------------------

  ==> Geometry <==

    Molecular point group: c2v
    Full point group: C_inf_v

    Geometry (in Angstrom), charge = -1, multiplicity = 1:

       Center              X                  Y                   Z               Mass
    ------------   -----------------  -----------------  -----------------  -----------------
         NA           0.000000000000     0.000000000000     1.536434916793    22.989769282000
         SI           0.000000000000     0.000000000000    -1.262550559660    27.976926534650

  Nuclear repulsion =   29.115295927314982

  ==> Basis Set <==

  Basis Set: CC-PVDZ
    Blend: CC-PVDZ
    Number of shells: 16
    Number of basis functions: 36
    Number of Cartesian functions: 38
    Spherical Harmonics?: true
    Max angular momentum: 2

  ==> DFJKGrad: Density-Fitted SCF Gradients <==

    Gradient:                    1
    J tasked:                  Yes
    K tasked:                  Yes
    wK tasked:                  No
    OpenMP threads:              1
    Integrals threads:           1
    Memory [MiB]:              375
    Schwarz Cutoff:          1E-12
    Fitting Condition:       1E-10

   => Auxiliary Basis Set <=

  Basis Set: (CC-PVDZ AUX)
    Blend: CC-PVDZ-JKFIT + DEF2-UNIVERSAL-JKFIT
    Number of shells: 70
    Number of basis functions: 224
    Number of Cartesian functions: 267
    Spherical Harmonics?: true
    Max angular momentum: 4

  ==> DFT Potential <==

   => LibXC <=

    Version 6.2.2
    S. Lehtola, C. Steigemann, M. J.T. Oliveira, and M. A.L. Marques.,  SoftwareX 7, 1â€“5 (2018) (10.1016/j.softx.2017.11.002)

   => Composite Functional: B3LYP <=

    B3LYP Hyb-GGA Exchange-Correlation Functional

    P. J. Stephens, F. J. Devlin, C. F. Chabalowski, and M. J. Frisch.,  J. Phys. Chem. 98, 11623 (1994) (10.1021/j100096a001)

    Deriv               =              1
    GGA                 =           TRUE
    Meta                =          FALSE

    Exchange Hybrid     =           TRUE
    MP2 Hybrid          =          FALSE

   => Exchange Functionals <=

    0.0800   Slater exchange
    0.7200         Becke 88

   => Exact (HF) Exchange <=

    0.2000               HF

   => Correlation Functionals <=

    0.1900   Vosko, Wilk & Nusair (VWN5_RPA)
    0.8100   Lee, Yang & Parr

   => LibXC Density Thresholds  <==

    XC_HYB_GGA_XC_B3LYP:  1.00E-15

   => Molecular Quadrature <=

    Radial Scheme          =       TREUTLER
    Pruning Scheme         =           NONE
    Nuclear Scheme         =       TREUTLER

    Blocking Scheme        =         OCTREE
    BS radius alpha        =              1
    Pruning alpha          =              1
    Radial Points          =             75
    Spherical Points       =            302
    Total Points           =          43847
    Total Blocks           =            446
    Max Points             =            256
    Max Functions          =             36
    Weights Tolerance      =       1.00E-15

  -Total Gradient:
     Atom            X                  Y                   Z
    ------   -----------------  -----------------  -----------------
       1        0.000000000000     0.000000000000     0.000019466321
       2        0.000000000000     0.000000000000     0.000012154883

*** tstop() called on Joses-MacBook-Pro-2.local at Thu Jul 17 11:10:49 2025
Module time:
	user time   =       2.45 seconds =       0.04 minutes
	system time =       1.58 seconds =       0.03 minutes
	total time  =          1 seconds =       0.02 minutes
Total time:
	user time   =     182.32 seconds =       3.04 minutes
	system time =      60.16 seconds =       1.00 minutes
	total time  =         24 seconds =       0.40 minutes

    			-----------------------------------------

    			 OPTKING 3.0: for geometry optimizations

    			     By R.A. King, Bethel University

    			        with contributions from

    			    A.V. Copan, J. Cayton, A. Heide

    			-----------------------------------------

	                            ===> Fragment 1 <==

	 Z (Atomic Numbers)          Masses                          Geom
	      11.000000            22.989769          0.00000000  0.00000000  2.90344120
	      14.000000            27.976927          0.00000000  0.00000000 -2.38587478

	 - Coordinate -           - BOHR/RAD -       - ANG/DEG -
	 R(1,2)           =         5.289316           2.798985

	        --- Internal Coordinate Step in ANG or DEG, aJ/ANG or AJ/DEG ---
	-------------------------------------------------------------------------------
	           Coordinate      Previous         Force          Change          New
	           ----------      --------        ------          ------        ------
	               R(1,2)       2.79899       -0.00003       -0.00008       2.79891
	-------------------------------------------------------------------------------

	                                 ==> Convergence Check <==

	Measures of convergence in internal coordinates in au.

	Criteria marked as inactive (o), active & met (*), and active & unmet ( ).

	----------------------------------------------------------------------------------------------
	   Step    Total Energy     Delta E     Max Force     RMS Force      Max Disp      RMS Disp
	----------------------------------------------------------------------------------------------
	  Convergence Criteria     1.00e-06 *    3.00e-04 *             o    1.20e-03 *             o
	----------------------------------------------------------------------------------------------
	    14    -451.72406977   -2.54e-08 *    3.66e-06 *    3.66e-06 o    1.45e-04 *    1.45e-04 o  ~
	----------------------------------------------------------------------------------------------

Next Geometry in Ang
	Fragment 1 (Ang)

	   Na   0.0000000000   0.0000000000   1.5363964876
	   Si   0.0000000000   0.0000000000  -1.2625121304

    Final optimized geometry and variables:
    Molecular point group: c2v
    Full point group: C_inf_v

    Geometry (in Angstrom), charge = -1, multiplicity = 1:

    NA           0.000000000000     0.000000000000     1.536434916793
    SI           0.000000000000     0.000000000000    -1.262550559660

    Psi4 stopped on: Thursday, 17 July 2025 11:10AM
    Psi4 wall time for execution: 0:00:24.26

*** Psi4 exiting successfully. Buy a developer a beer!
