                               Psi4 1.9.1 release

  ==> Input File <==

--------------------------------------------------------------------------
molecule {
-1 1
O   0.00000        0.60000        0.00000
Cl   0.00000       -0.60000        0.00000
}

set {
basis              cc-pvdz
reference          uks
maxiter            500
geom_maxiter       500
DAMPING_PERCENTAGE 1
guess              SAP
}

optimize('b3lyp')
--------------------------------------------------------------------------

    Molecular point group: c2v
  Charge       = -1
  Multiplicity = 1
  Basis Set: CC-PVDZ
    Blend: CC-PVDZ
  Basis Set: (CC-PVDZ AUX)
    Blend: CC-PVDZ-JKFIT
  @DF-UKS Final Energy:  -535.05949212634619
    Total Energy =                       -535.0594921263461856
 Dipole X            :          0.0000000            0.0000000            0.0000000
 Dipole Y            :          0.0000000            0.0000000            0.0000000
 Dipole Z            :         -0.6967735            0.3487254           -0.3480482
 Magnitude           :                                                    0.3480482
    Molecular point group: c2v
  Basis Set: CC-PVDZ
    Blend: CC-PVDZ
  Basis Set: (CC-PVDZ AUX)
    Blend: CC-PVDZ-JKFIT
  Basis Set: CC-PVDZ
    Blend: CC-PVDZ
  Basis Set: (CC-PVDZ AUX)
    Blend: CC-PVDZ-JKFIT
  @DF-UKS Final Energy:  -535.22396019097164
    Total Energy =                       -535.2239601909716384
  Basis Set: CC-PVDZ
    Blend: CC-PVDZ
  Basis Set: (CC-PVDZ AUX)
    Blend: CC-PVDZ-JKFIT
  Basis Set: CC-PVDZ
    Blend: CC-PVDZ
  @DF-UKS Final Energy:  -535.30532491742372
    Total Energy =                       -535.3053249174237180
  @DF-UKS Final Energy:  -535.33462419043497
    Total Energy =                       -535.3346241904349654
  @DF-UKS Final Energy:  -535.35232142588200
    Total Energy =                       -535.3523214258819962
  @DF-UKS Final Energy:  -535.36106375635870
    Total Energy =                       -535.3610637563587034
  @DF-UKS Final Energy:  -535.36361503676073
    Total Energy =                       -535.3636150367607343
  @DF-UKS Final Energy:  -535.36462455899891
    Total Energy =                       -535.3646245589989121
  @DF-UKS Final Energy:  -535.36487491806531
    Total Energy =                       -535.3648749180653112
  @DF-UKS Final Energy:  -535.36495213716421
    Total Energy =                       -535.3649521371642095
  Basis Set: (CC-PVDZ AUX)
    Blend: CC-PVDZ-JKFIT
  Basis Set: CC-PVDZ
    Blend: CC-PVDZ
  Basis Set: (CC-PVDZ AUX)
    Blend: CC-PVDZ-JKFIT
  @DF-UKS Final Energy:  -535.36496537358971
    Total Energy =                       -535.3649653735897118
  Basis Set: CC-PVDZ
    Blend: CC-PVDZ
  Basis Set: (CC-PVDZ AUX)
    Blend: CC-PVDZ-JKFIT
  Charge       = -1
  Multiplicity = 1
  Basis Set: CC-PVDZ
    Blend: CC-PVDZ
  Basis Set: (CC-PVDZ AUX)
    Blend: CC-PVDZ-JKFIT

    Orbital Energies [Eh]
    ---------------------

    Alpha Occupied:

       1A1  -101.275762     2A1   -18.803037     3A1    -9.189862
       4A1    -6.952324     1B1    -6.943395     1B2    -6.943395
       5A1    -0.624189     6A1    -0.455647     7A1    -0.100160
       2B2    -0.075348     2B1    -0.075348     3B1     0.072583
       3B2     0.072583

    Alpha Virtual:

       8A1     0.248405     9A1     0.759310     4B1     0.803303
       4B2     0.803303    10A1     0.875672     5B1     0.977247
       5B2     0.977247     1A2     1.006212    11A1     1.006212
      12A1     1.168945     6B1     1.324525     6B2     1.324525
      13A1     1.333345    14A1     1.936605    15A1     2.968706
       2A2     2.968717     7B1     2.969933     7B2     2.969933
      16A1     3.214344

    Beta Occupied:

       1A1  -101.275762     2A1   -18.803037     3A1    -9.189862
       4A1    -6.952324     1B1    -6.943395     1B2    -6.943395
       5A1    -0.624189     6A1    -0.455647     7A1    -0.100160
       2B2    -0.075348     2B1    -0.075348     3B2     0.072583
       3B1     0.072583

    Beta Virtual:

       8A1     0.248405     9A1     0.759310     4B1     0.803303
       4B2     0.803303    10A1     0.875672     5B1     0.977247
       5B2     0.977247     1A2     1.006212    11A1     1.006212
      12A1     1.168945     6B1     1.324525     6B2     1.324525
      13A1     1.333345    14A1     1.936605    15A1     2.968706
       2A2     2.968717     7B1     2.969933     7B2     2.969933
      16A1     3.214344

    Final Occupation by Irrep:
             A1    A2    B1    B2
    DOCC [     7,    0,    3,    3 ]
    SOCC [     0,    0,    0,    0 ]
    NA   [     7,    0,    3,    3 ]
    NB   [     7,    0,    3,    3 ]

  @DF-UKS Final Energy:  -535.36496620404910

   => Energetics <=

    Nuclear Repulsion Energy =             40.2393665619808942
    One-Electron Energy =                -827.3186389099882945
    Two-Electron Energy =                 281.6188331834841279
    DFT Exchange-Correlation Energy =     -29.9045270395258633
    Empirical Dispersion Energy =           0.0000000000000000
    VV10 Nonlocal Energy =                  0.0000000000000000
    Total Energy =                       -535.3649662040490966

  UHF NO Occupations:
  HONO-2 :    3 B2 2.0000000
  HONO-1 :    6 A1 2.0000000
  HONO-0 :    7 A1 2.0000000
  LUNO+0 :    4 B2 0.0000000
  LUNO+1 :    4 B1 0.0000000
  LUNO+2 :    8 A1 0.0000000
  LUNO+3 :    9 A1 0.0000000

Computation Completed

Properties will be evaluated at   0.000000,   0.000000,   0.000000 [a0]

Properties computed using the SCF density matrix

 Multipole Moments:

 ------------------------------------------------------------------------------------
     Multipole            Electronic (a.u.)      Nuclear  (a.u.)        Total (a.u.)
 ------------------------------------------------------------------------------------

 L = 1.  Multiply by 2.5417464519 to convert [e a0] to [Debye]
 Dipole X            :          0.0000000            0.0000000            0.0000000
 Dipole Y            :          0.0000000            0.0000000            0.0000000
 Dipole Z            :         -1.5157514            0.5197461           -0.9960053
 Magnitude           :                                                    0.9960053

 ------------------------------------------------------------------------------------

*** tstop() called on Joses-MacBook-Pro-2.local at Thu Jul 17 10:48:02 2025
Module time:
	user time   =       3.41 seconds =       0.06 minutes
	system time =       3.78 seconds =       0.06 minutes
	total time  =          0 seconds =       0.00 minutes
Total time:
	user time   =      69.69 seconds =       1.16 minutes
	system time =      60.02 seconds =       1.00 minutes
	total time  =         13 seconds =       0.22 minutes

*** tstart() called on Joses-MacBook-Pro-2.local
*** at Thu Jul 17 10:48:02 2025

         ------------------------------------------------------------
                                   SCF GRAD
                          Rob Parrish, Justin Turney,
                       Andy Simmonett, and Alex Sokolov
         ------------------------------------------------------------

  ==> Geometry <==

    Molecular point group: c2v
    Full point group: C_inf_v

    Geometry (in Angstrom), charge = -1, multiplicity = 1:

       Center              X                  Y                   Z               Mass
    ------------   -----------------  -----------------  -----------------  -----------------
         O            0.000000000000     0.000000000000     1.227181402247    15.994914619570
         CL           0.000000000000     0.000000000000    -0.561318437587    34.968852682000

  Nuclear repulsion =   40.239366561980894

  ==> Basis Set <==

  Basis Set: CC-PVDZ
    Blend: CC-PVDZ
    Number of shells: 14
    Number of basis functions: 32
    Number of Cartesian functions: 34
    Spherical Harmonics?: true
    Max angular momentum: 2

  ==> DFJKGrad: Density-Fitted SCF Gradients <==

    Gradient:                    1
    J tasked:                  Yes
    K tasked:                  Yes
    wK tasked:                  No
    OpenMP threads:              1
    Integrals threads:           1
    Memory [MiB]:              375
    Schwarz Cutoff:          1E-12
    Fitting Condition:       1E-10

   => Auxiliary Basis Set <=

  Basis Set: (CC-PVDZ AUX)
    Blend: CC-PVDZ-JKFIT
    Number of shells: 60
    Number of basis functions: 182
    Number of Cartesian functions: 211
    Spherical Harmonics?: true
    Max angular momentum: 3

  ==> DFT Potential <==

   => LibXC <=

    Version 6.2.2
    S. Lehtola, C. Steigemann, M. J.T. Oliveira, and M. A.L. Marques.,  SoftwareX 7, 1â€“5 (2018) (10.1016/j.softx.2017.11.002)

   => Composite Functional: B3LYP <=

    B3LYP Hyb-GGA Exchange-Correlation Functional

    P. J. Stephens, F. J. Devlin, C. F. Chabalowski, and M. J. Frisch.,  J. Phys. Chem. 98, 11623 (1994) (10.1021/j100096a001)

    Deriv               =              1
    GGA                 =           TRUE
    Meta                =          FALSE

    Exchange Hybrid     =           TRUE
    MP2 Hybrid          =          FALSE

   => Exchange Functionals <=

    0.0800   Slater exchange
    0.7200         Becke 88

   => Exact (HF) Exchange <=

    0.2000               HF

   => Correlation Functionals <=

    0.1900   Vosko, Wilk & Nusair (VWN5_RPA)
    0.8100   Lee, Yang & Parr

   => LibXC Density Thresholds  <==

    XC_HYB_GGA_XC_B3LYP:  1.00E-15

   => Molecular Quadrature <=

    Radial Scheme          =       TREUTLER
    Pruning Scheme         =           NONE
    Nuclear Scheme         =       TREUTLER

    Blocking Scheme        =         OCTREE
    BS radius alpha        =              1
    Pruning alpha          =              1
    Radial Points          =             75
    Spherical Points       =            302
    Total Points           =          41363
    Total Blocks           =            368
    Max Points             =            256
    Max Functions          =             32
    Weights Tolerance      =       1.00E-15

  -Total Gradient:
     Atom            X                  Y                   Z
    ------   -----------------  -----------------  -----------------
       1        0.000000000000     0.000000000000    -0.000096767190
       2        0.000000000000     0.000000000000     0.000074044345

*** tstop() called on Joses-MacBook-Pro-2.local at Thu Jul 17 10:48:03 2025
Module time:
	user time   =       1.01 seconds =       0.02 minutes
	system time =       1.49 seconds =       0.02 minutes
	total time  =          1 seconds =       0.02 minutes
Total time:
	user time   =      70.70 seconds =       1.18 minutes
	system time =      61.51 seconds =       1.03 minutes
	total time  =         14 seconds =       0.23 minutes

    			-----------------------------------------

    			 OPTKING 3.0: for geometry optimizations

    			     By R.A. King, Bethel University

    			        with contributions from

    			    A.V. Copan, J. Cayton, A. Heide

    			-----------------------------------------

	                            ===> Fragment 1 <==

	 Z (Atomic Numbers)          Masses                          Geom
	       8.000000            15.994915          0.00000000  0.00000000  2.31903676
	      17.000000            34.968853          0.00000000  0.00000000 -1.06073812

	 - Coordinate -           - BOHR/RAD -       - ANG/DEG -
	 R(1,2)           =         3.379775           1.788500

	        --- Internal Coordinate Step in ANG or DEG, aJ/ANG or AJ/DEG ---
	-------------------------------------------------------------------------------
	           Coordinate      Previous         Force          Change          New
	           ----------      --------        ------          ------        ------
	               R(1,2)       1.78850        0.00070        0.00030       1.78880
	-------------------------------------------------------------------------------

	                                 ==> Convergence Check <==

	Measures of convergence in internal coordinates in au.

	Criteria marked as inactive (o), active & met (*), and active & unmet ( ).

	----------------------------------------------------------------------------------------------
	   Step    Total Energy     Delta E     Max Force     RMS Force      Max Disp      RMS Disp
	----------------------------------------------------------------------------------------------
	  Convergence Criteria     1.00e-06 *    3.00e-04 *             o    1.20e-03 *             o
	----------------------------------------------------------------------------------------------
	    12    -535.36496620   -8.30e-07 *    8.54e-05 *    8.54e-05 o    5.70e-04 *    5.70e-04 o  ~
	----------------------------------------------------------------------------------------------

Next Geometry in Ang
	Fragment 1 (Ang)

	    O   0.0000000000   0.0000000000   1.2273322558
	   Cl   0.0000000000   0.0000000000  -0.5614692911

    Final optimized geometry and variables:
    Molecular point group: c2v
    Full point group: C_inf_v

    Geometry (in Angstrom), charge = -1, multiplicity = 1:

    O            0.000000000000     0.000000000000     1.227181402247
    CL           0.000000000000     0.000000000000    -0.561318437587

    Psi4 stopped on: Thursday, 17 July 2025 10:48AM
    Psi4 wall time for execution: 0:00:14.79

*** Psi4 exiting successfully. Buy a developer a beer!
