                               Psi4 1.9.1 release

  ==> Input File <==

--------------------------------------------------------------------------
molecule {
-1 1
Be   0.00000        0.60000        0.00000
Na   0.00000       -0.60000        0.00000
}

set {
basis              cc-pvdz
reference          uks
maxiter            500
geom_maxiter       500
DAMPING_PERCENTAGE 1
guess              SAP
}

optimize('b3lyp')
--------------------------------------------------------------------------

    Molecular point group: c2v
  Charge       = -1
  Multiplicity = 1
  Basis Set: CC-PVDZ
    Blend: CC-PVDZ
  Basis Set: (CC-PVDZ AUX)
    Blend: DEF2-UNIVERSAL-JKFIT
  @DF-UKS Final Energy:  -176.61694304857400
    Total Energy =                       -176.6169430485739724
 Dipole X            :          0.0000000            0.0000000            0.0000000
 Dipole Y            :          0.0000000            0.0000000            0.0000000
 Dipole Z            :         -0.8974221           -0.5084189           -1.4058410
 Magnitude           :                                                    1.4058410
    Molecular point group: c2v
  Basis Set: CC-PVDZ
    Blend: CC-PVDZ
  Basis Set: (CC-PVDZ AUX)
    Blend: DEF2-UNIVERSAL-JKFIT
  Basis Set: CC-PVDZ
    Blend: CC-PVDZ
  Basis Set: (CC-PVDZ AUX)
    Blend: DEF2-UNIVERSAL-JKFIT
  @DF-UKS Final Energy:  -176.66816055613376
    Total Energy =                       -176.6681605561337562
  Basis Set: CC-PVDZ
    Blend: CC-PVDZ
  Basis Set: (CC-PVDZ AUX)
    Blend: DEF2-UNIVERSAL-JKFIT
  Basis Set: CC-PVDZ
    Blend: CC-PVDZ
  @DF-UKS Final Energy:  -176.73066932434526
    Total Energy =                       -176.7306693243452571
  @DF-UKS Final Energy:  -176.81761058861599
    Total Energy =                       -176.8176105886159633
  @DF-UKS Final Energy:  -176.87829837558783
    Total Energy =                       -176.8782983755878320
  @DF-UKS Final Energy:  -176.91070960551966
    Total Energy =                       -176.9107096055196564
  @DF-UKS Final Energy:  -176.96361904516505
    Total Energy =                       -176.9636190451650464
  @DF-UKS Final Energy:  -176.98873315801686
    Total Energy =                       -176.9887331580168564
  @DF-UKS Final Energy:  -176.98933735017116
    Total Energy =                       -176.9893373501711835
  @DF-UKS Final Energy:  -176.99190961501441
    Total Energy =                       -176.9919096150144355
  @DF-UKS Final Energy:  -176.99257124389658
    Total Energy =                       -176.9925712438965490
  @DF-UKS Final Energy:  -176.99278950158936
    Total Energy =                       -176.9927895015893569
  @DF-UKS Final Energy:  -176.99281725258484
    Total Energy =                       -176.9928172525848709
  Basis Set: (CC-PVDZ AUX)
    Blend: DEF2-UNIVERSAL-JKFIT
  Basis Set: CC-PVDZ
    Blend: CC-PVDZ
  Basis Set: (CC-PVDZ AUX)
    Blend: DEF2-UNIVERSAL-JKFIT
  @DF-UKS Final Energy:  -176.99282128197703
    Total Energy =                       -176.9928212819770295
  Basis Set: CC-PVDZ
    Blend: CC-PVDZ
  Basis Set: (CC-PVDZ AUX)
    Blend: DEF2-UNIVERSAL-JKFIT
  Charge       = -1
  Multiplicity = 1
  Basis Set: CC-PVDZ
    Blend: CC-PVDZ
  Basis Set: (CC-PVDZ AUX)
    Blend: DEF2-UNIVERSAL-JKFIT

    Orbital Energies [Eh]
    ---------------------

    Alpha Occupied:

       1A1   -38.289160     2A1    -3.911011     3A1    -2.035640
       1B2    -0.967198     1B1    -0.967198     4A1    -0.966541
       5A1    -0.079984     6A1     0.029503

    Alpha Virtual:

       2B2     0.085304     2B1     0.085304     7A1     0.091800
       3B2     0.118957     3B1     0.118957     8A1     0.128055
       9A1     0.184407     4B2     0.214047     4B1     0.214047
      10A1     0.255616    11A1     0.310462     1A2     0.315589
      12A1     0.315589     5B2     0.329193     5B1     0.329193
       6B1     0.357795     6B2     0.357795    13A1     0.433886
      14A1     0.446144    15A1     0.640086     2A2     0.640090
       7B2     0.686199     7B1     0.686199    16A1     0.810165

    Beta Occupied:

       1A1   -38.289160     2A1    -3.911011     3A1    -2.035640
       1B2    -0.967198     1B1    -0.967198     4A1    -0.966541
       5A1    -0.079984     6A1     0.029503

    Beta Virtual:

       2B2     0.085304     2B1     0.085304     7A1     0.091800
       3B2     0.118957     3B1     0.118957     8A1     0.128055
       9A1     0.184407     4B2     0.214047     4B1     0.214047
      10A1     0.255616    11A1     0.310462     1A2     0.315589
      12A1     0.315589     5B2     0.329193     5B1     0.329193
       6B1     0.357795     6B2     0.357795    13A1     0.433886
      14A1     0.446144    15A1     0.640086     2A2     0.640090
       7B2     0.686199     7B1     0.686199    16A1     0.810165

    Final Occupation by Irrep:
             A1    A2    B1    B2
    DOCC [     6,    0,    1,    1 ]
    SOCC [     0,    0,    0,    0 ]
    NA   [     6,    0,    1,    1 ]
    NB   [     6,    0,    1,    1 ]

  @DF-UKS Final Energy:  -176.99282147965494

   => Energetics <=

    Nuclear Repulsion Energy =              7.0009255942888426
    One-Electron Energy =                -263.5875055095821153
    Two-Electron Energy =                  93.5849952552996598
    DFT Exchange-Correlation Energy =     -13.9912368196612977
    Empirical Dispersion Energy =           0.0000000000000000
    VV10 Nonlocal Energy =                  0.0000000000000000
    Total Energy =                       -176.9928214796549355

  UHF NO Occupations:
  HONO-2 :    5 A1 2.0000000
  HONO-1 :    6 A1 2.0000000
  HONO-0 :    1 B1 2.0000000
  LUNO+0 :    7 A1 0.0000000
  LUNO+1 :    8 A1 0.0000000
  LUNO+2 :    9 A1 0.0000000
  LUNO+3 :   10 A1 0.0000000

Computation Completed

Properties will be evaluated at   0.000000,   0.000000,   0.000000 [a0]

Properties computed using the SCF density matrix

 Multipole Moments:

 ------------------------------------------------------------------------------------
     Multipole            Electronic (a.u.)      Nuclear  (a.u.)        Total (a.u.)
 ------------------------------------------------------------------------------------

 L = 1.  Multiply by 2.5417464519 to convert [e a0] to [Debye]
 Dipole X            :          0.0000000            0.0000000            0.0000000
 Dipole Y            :          0.0000000            0.0000000            0.0000000
 Dipole Z            :          1.8401590           -1.4090902            0.4310688
 Magnitude           :                                                    0.4310688

 ------------------------------------------------------------------------------------

*** tstop() called on Joses-MacBook-Pro-2.local at Thu Jul 17 09:42:22 2025
Module time:
	user time   =       3.36 seconds =       0.06 minutes
	system time =       2.20 seconds =       0.04 minutes
	total time  =          0 seconds =       0.00 minutes
Total time:
	user time   =      79.73 seconds =       1.33 minutes
	system time =      82.79 seconds =       1.38 minutes
	total time  =         16 seconds =       0.27 minutes

*** tstart() called on Joses-MacBook-Pro-2.local
*** at Thu Jul 17 09:42:22 2025

         ------------------------------------------------------------
                                   SCF GRAD
                          Rob Parrish, Justin Turney,
                       Andy Simmonett, and Alex Sokolov
         ------------------------------------------------------------

  ==> Geometry <==

    Molecular point group: c2v
    Full point group: C_inf_v

    Geometry (in Angstrom), charge = -1, multiplicity = 1:

       Center              X                  Y                   Z               Mass
    ------------   -----------------  -----------------  -----------------  -----------------
         BE           0.000000000000     0.000000000000     2.389221894557     9.012183065000
         NA           0.000000000000     0.000000000000    -0.936595092910    22.989769282000

  Nuclear repulsion =    7.000925594288843

  ==> Basis Set <==

  Basis Set: CC-PVDZ
    Blend: CC-PVDZ
    Number of shells: 14
    Number of basis functions: 32
    Number of Cartesian functions: 34
    Spherical Harmonics?: true
    Max angular momentum: 2

  ==> DFJKGrad: Density-Fitted SCF Gradients <==

    Gradient:                    1
    J tasked:                  Yes
    K tasked:                  Yes
    wK tasked:                  No
    OpenMP threads:              1
    Integrals threads:           1
    Memory [MiB]:              375
    Schwarz Cutoff:          1E-12
    Fitting Condition:       1E-10

   => Auxiliary Basis Set <=

  Basis Set: (CC-PVDZ AUX)
    Blend: DEF2-UNIVERSAL-JKFIT
    Number of shells: 51
    Number of basis functions: 163
    Number of Cartesian functions: 197
    Spherical Harmonics?: true
    Max angular momentum: 4

  ==> DFT Potential <==

   => LibXC <=

    Version 6.2.2
    S. Lehtola, C. Steigemann, M. J.T. Oliveira, and M. A.L. Marques.,  SoftwareX 7, 1â€“5 (2018) (10.1016/j.softx.2017.11.002)

   => Composite Functional: B3LYP <=

    B3LYP Hyb-GGA Exchange-Correlation Functional

    P. J. Stephens, F. J. Devlin, C. F. Chabalowski, and M. J. Frisch.,  J. Phys. Chem. 98, 11623 (1994) (10.1021/j100096a001)

    Deriv               =              1
    GGA                 =           TRUE
    Meta                =          FALSE

    Exchange Hybrid     =           TRUE
    MP2 Hybrid          =          FALSE

   => Exchange Functionals <=

    0.0800   Slater exchange
    0.7200         Becke 88

   => Exact (HF) Exchange <=

    0.2000               HF

   => Correlation Functionals <=

    0.1900   Vosko, Wilk & Nusair (VWN5_RPA)
    0.8100   Lee, Yang & Parr

   => LibXC Density Thresholds  <==

    XC_HYB_GGA_XC_B3LYP:  1.00E-15

   => Molecular Quadrature <=

    Radial Scheme          =       TREUTLER
    Pruning Scheme         =           NONE
    Nuclear Scheme         =       TREUTLER

    Blocking Scheme        =         OCTREE
    BS radius alpha        =              1
    Pruning alpha          =              1
    Radial Points          =             75
    Spherical Points       =            302
    Total Points           =          43873
    Total Blocks           =            454
    Max Points             =            253
    Max Functions          =             32
    Weights Tolerance      =       1.00E-15

  -Total Gradient:
     Atom            X                  Y                   Z
    ------   -----------------  -----------------  -----------------
       1       -0.000000000000    -0.000000000000    -0.000012740120
       2        0.000000000000     0.000000000000     0.000007195201

*** tstop() called on Joses-MacBook-Pro-2.local at Thu Jul 17 09:42:22 2025
Module time:
	user time   =       0.70 seconds =       0.01 minutes
	system time =       2.09 seconds =       0.03 minutes
	total time  =          0 seconds =       0.00 minutes
Total time:
	user time   =      80.44 seconds =       1.34 minutes
	system time =      84.88 seconds =       1.41 minutes
	total time  =         16 seconds =       0.27 minutes

    			-----------------------------------------

    			 OPTKING 3.0: for geometry optimizations

    			     By R.A. King, Bethel University

    			        with contributions from

    			    A.V. Copan, J. Cayton, A. Heide

    			-----------------------------------------

	                            ===> Fragment 1 <==

	 Z (Atomic Numbers)          Masses                          Geom
	       4.000000             9.012183          0.00000000  0.00000000  4.51497503
	      11.000000            22.989769          0.00000000  0.00000000 -1.76990822

	 - Coordinate -           - BOHR/RAD -       - ANG/DEG -
	 R(1,2)           =         6.284883           3.325817

	        --- Internal Coordinate Step in ANG or DEG, aJ/ANG or AJ/DEG ---
	-------------------------------------------------------------------------------
	           Coordinate      Previous         Force          Change          New
	           ----------      --------        ------          ------        ------
	               R(1,2)       3.32582        0.00008        0.00103       3.32685
	-------------------------------------------------------------------------------

	                                 ==> Convergence Check <==

	Measures of convergence in internal coordinates in au.

	Criteria marked as inactive (o), active & met (*), and active & unmet ( ).

	----------------------------------------------------------------------------------------------
	   Step    Total Energy     Delta E     Max Force     RMS Force      Max Disp      RMS Disp
	----------------------------------------------------------------------------------------------
	  Convergence Criteria     1.00e-06 *    3.00e-04 *             o    1.20e-03 *             o
	----------------------------------------------------------------------------------------------
	    15    -176.99282148   -1.98e-07 *    9.97e-06 *    9.97e-06 o    1.95e-03      1.95e-03 o  ~
	----------------------------------------------------------------------------------------------

Next Geometry in Ang
	Fragment 1 (Ang)

	   Be   0.0000000000   0.0000000000   2.3897367298
	   Na   0.0000000000   0.0000000000  -0.9371099282

    Final optimized geometry and variables:
    Molecular point group: c2v
    Full point group: C_inf_v

    Geometry (in Angstrom), charge = -1, multiplicity = 1:

    BE           0.000000000000     0.000000000000     2.389221894557
    NA           0.000000000000     0.000000000000    -0.936595092910

    Psi4 stopped on: Thursday, 17 July 2025 09:42AM
    Psi4 wall time for execution: 0:00:17.02

*** Psi4 exiting successfully. Buy a developer a beer!
