                               Psi4 1.9.1 release

  ==> Input File <==

--------------------------------------------------------------------------
molecule {
-1 1
B   0.00000        0.60000        0.00000
Ar   0.00000       -0.60000        0.00000
}

set {
basis              cc-pvdz
reference          uks
maxiter            500
geom_maxiter       500
DAMPING_PERCENTAGE 1
guess              SAP
}

optimize('b3lyp')
--------------------------------------------------------------------------

    Molecular point group: c2v
  Charge       = -1
  Multiplicity = 1
  Basis Set: CC-PVDZ
    Blend: CC-PVDZ
  Basis Set: (CC-PVDZ AUX)
    Blend: CC-PVDZ-JKFIT
  @DF-UKS Final Energy:  -551.58399406616809
    Total Energy =                       -551.5839940661680885
 Dipole X            :          0.0000000            0.0000000            0.0000000
 Dipole Y            :          0.0000000            0.0000000            0.0000000
 Dipole Z            :         -4.0049853            0.0731583           -3.9318270
 Magnitude           :                                                    3.9318270
    Molecular point group: c2v
  Basis Set: CC-PVDZ
    Blend: CC-PVDZ
  Basis Set: (CC-PVDZ AUX)
    Blend: CC-PVDZ-JKFIT
  Basis Set: CC-PVDZ
    Blend: CC-PVDZ
  Basis Set: (CC-PVDZ AUX)
    Blend: CC-PVDZ-JKFIT
  @DF-UKS Final Energy:  -551.80811936281486
    Total Energy =                       -551.8081193628148640
  Basis Set: CC-PVDZ
    Blend: CC-PVDZ
  Basis Set: (CC-PVDZ AUX)
    Blend: CC-PVDZ-JKFIT
  Basis Set: CC-PVDZ
    Blend: CC-PVDZ
  @DF-UKS Final Energy:  -551.93421537589359
    Total Energy =                       -551.9342153758935865
  @DF-UKS Final Energy:  -552.00965694606725
    Total Energy =                       -552.0096569460672526
  @DF-UKS Final Energy:  -552.06229112451365
    Total Energy =                       -552.0622911245136493
  @DF-UKS Final Energy:  -552.10024121005176
    Total Energy =                       -552.1002412100517631
  @DF-UKS Final Energy:  -552.12479710379876
    Total Energy =                       -552.1247971037986417
  @DF-UKS Final Energy:  -552.13789351462401
    Total Energy =                       -552.1378935146240110
  @DF-UKS Final Energy:  -552.14428868106859
    Total Energy =                       -552.1442886810687014
  @DF-UKS Final Energy:  -552.14734711221206
    Total Energy =                       -552.1473471122121737
  @DF-UKS Final Energy:  -552.14879204169472
    Total Energy =                       -552.1487920416947190
  @DF-UKS Final Energy:  -552.14946515193697
    Total Energy =                       -552.1494651519369654
  @DF-UKS Final Energy:  -552.14976752704422
    Total Energy =                       -552.1497675270442187
  @DF-UKS Final Energy:  -552.14989329656669
    Total Energy =                       -552.1498932965665745
  @DF-UKS Final Energy:  -552.14993760099719
    Total Energy =                       -552.1499376009973048
  @DF-UKS Final Energy:  -552.14994740987356
    Total Energy =                       -552.1499474098735618
  Basis Set: (CC-PVDZ AUX)
    Blend: CC-PVDZ-JKFIT
  Basis Set: CC-PVDZ
    Blend: CC-PVDZ
  Basis Set: (CC-PVDZ AUX)
    Blend: CC-PVDZ-JKFIT
  @DF-UKS Final Energy:  -552.14995050158450
    Total Energy =                       -552.1499505015844989
  Basis Set: CC-PVDZ
    Blend: CC-PVDZ
  Basis Set: (CC-PVDZ AUX)
    Blend: CC-PVDZ-JKFIT
  Charge       = -1
  Multiplicity = 1
  Basis Set: CC-PVDZ
    Blend: CC-PVDZ
  Basis Set: (CC-PVDZ AUX)
    Blend: CC-PVDZ-JKFIT

    Orbital Energies [Eh]
    ---------------------

    Alpha Occupied:

       1A1  -114.969631     2A1   -11.005703     1B1    -8.555677
       1B2    -8.555618     3A1    -8.555412     4A1    -6.510525
       5A1    -0.834097     2B1    -0.293003     2B2    -0.292459
       6A1    -0.289876     7A1    -0.062129     3B2     0.155264

    Alpha Virtual:

       3B1     0.197088     8A1     0.197484     9A1     0.558529
       4B1     0.571442     4B2     0.575293    10A1     0.620552
       5B1     0.712175     5B2     0.713435    11A1     0.753606
      12A1     0.895277    13A1     0.965169     1A2     0.965180
       6B1     0.966837     6B2     0.967200    14A1     0.973220
       7B1     1.002498    15A1     1.011855     2A2     1.015958
       7B2     1.016082    16A1     1.034036

    Beta Occupied:

       1A1  -114.969631     2A1   -11.005703     1B1    -8.555677
       1B2    -8.555618     3A1    -8.555412     4A1    -6.510525
       5A1    -0.834097     2B1    -0.293003     2B2    -0.292459
       6A1    -0.289876     7A1    -0.062129     3B2     0.155264

    Beta Virtual:

       3B1     0.197088     8A1     0.197484     9A1     0.558529
       4B1     0.571442     4B2     0.575293    10A1     0.620552
       5B1     0.712175     5B2     0.713435    11A1     0.753606
      12A1     0.895277    13A1     0.965169     1A2     0.965180
       6B1     0.966837     6B2     0.967200    14A1     0.973220
       7B1     1.002498    15A1     1.011855     2A2     1.015958
       7B2     1.016082    16A1     1.034036

    Final Occupation by Irrep:
             A1    A2    B1    B2
    DOCC [     7,    0,    2,    3 ]
    SOCC [     0,    0,    0,    0 ]
    NA   [     7,    0,    2,    3 ]
    NB   [     7,    0,    2,    3 ]

  @DF-UKS Final Energy:  -552.14995096416931

   => Energetics <=

    Nuclear Repulsion Energy =             12.2704692759181224
    One-Electron Energy =                -789.2209424065514440
    Two-Electron Energy =                 253.0215103464164486
    DFT Exchange-Correlation Energy =     -28.2209881799524531
    Empirical Dispersion Energy =           0.0000000000000000
    VV10 Nonlocal Energy =                  0.0000000000000000
    Total Energy =                       -552.1499509641693066

  UHF NO Occupations:
  HONO-2 :    2 B1 2.0000000
  HONO-1 :    6 A1 2.0000000
  HONO-0 :    7 A1 2.0000000
  LUNO+0 :    8 A1 0.0000000
  LUNO+1 :    9 A1 0.0000000
  LUNO+2 :    3 B1 0.0000000
  LUNO+3 :    4 B2 0.0000000

Computation Completed

Properties will be evaluated at   0.000000,   0.000000,   0.000000 [a0]

Properties computed using the SCF density matrix

 Multipole Moments:

 ------------------------------------------------------------------------------------
     Multipole            Electronic (a.u.)      Nuclear  (a.u.)        Total (a.u.)
 ------------------------------------------------------------------------------------

 L = 1.  Multiply by 2.5417464519 to convert [e a0] to [Debye]
 Dipole X            :          0.0000000            0.0000000            0.0000000
 Dipole Y            :          0.0000000            0.0000000            0.0000000
 Dipole Z            :         -5.9278567            0.2366273           -5.6912294
 Magnitude           :                                                    5.6912294

 ------------------------------------------------------------------------------------

*** tstop() called on Joses-MacBook-Pro-2.local at Thu Jul 17 09:57:05 2025
Module time:
	user time   =       3.24 seconds =       0.05 minutes
	system time =       3.74 seconds =       0.06 minutes
	total time  =          1 seconds =       0.02 minutes
Total time:
	user time   =      76.04 seconds =       1.27 minutes
	system time =      96.49 seconds =       1.61 minutes
	total time  =         17 seconds =       0.28 minutes

*** tstart() called on Joses-MacBook-Pro-2.local
*** at Thu Jul 17 09:57:05 2025

         ------------------------------------------------------------
                                   SCF GRAD
                          Rob Parrish, Justin Turney,
                       Andy Simmonett, and Alex Sokolov
         ------------------------------------------------------------

  ==> Geometry <==

    Molecular point group: c2v
    Full point group: C_inf_v

    Geometry (in Angstrom), charge = -1, multiplicity = 1:

       Center              X                  Y                   Z               Mass
    ------------   -----------------  -----------------  -----------------  -----------------
         B            0.000000000000     0.000000000000     3.043020154284    11.009305360000
         AR           0.000000000000     0.000000000000    -0.838326833298    39.962383123700

  Nuclear repulsion =   12.270469275918122

  ==> Basis Set <==

  Basis Set: CC-PVDZ
    Blend: CC-PVDZ
    Number of shells: 14
    Number of basis functions: 32
    Number of Cartesian functions: 34
    Spherical Harmonics?: true
    Max angular momentum: 2

  ==> DFJKGrad: Density-Fitted SCF Gradients <==

    Gradient:                    1
    J tasked:                  Yes
    K tasked:                  Yes
    wK tasked:                  No
    OpenMP threads:              1
    Integrals threads:           1
    Memory [MiB]:              375
    Schwarz Cutoff:          1E-12
    Fitting Condition:       1E-10

   => Auxiliary Basis Set <=

  Basis Set: (CC-PVDZ AUX)
    Blend: CC-PVDZ-JKFIT
    Number of shells: 60
    Number of basis functions: 182
    Number of Cartesian functions: 211
    Spherical Harmonics?: true
    Max angular momentum: 3

  ==> DFT Potential <==

   => LibXC <=

    Version 6.2.2
    S. Lehtola, C. Steigemann, M. J.T. Oliveira, and M. A.L. Marques.,  SoftwareX 7, 1â€“5 (2018) (10.1016/j.softx.2017.11.002)

   => Composite Functional: B3LYP <=

    B3LYP Hyb-GGA Exchange-Correlation Functional

    P. J. Stephens, F. J. Devlin, C. F. Chabalowski, and M. J. Frisch.,  J. Phys. Chem. 98, 11623 (1994) (10.1021/j100096a001)

    Deriv               =              1
    GGA                 =           TRUE
    Meta                =          FALSE

    Exchange Hybrid     =           TRUE
    MP2 Hybrid          =          FALSE

   => Exchange Functionals <=

    0.0800   Slater exchange
    0.7200         Becke 88

   => Exact (HF) Exchange <=

    0.2000               HF

   => Correlation Functionals <=

    0.1900   Vosko, Wilk & Nusair (VWN5_RPA)
    0.8100   Lee, Yang & Parr

   => LibXC Density Thresholds  <==

    XC_HYB_GGA_XC_B3LYP:  1.00E-15

   => Molecular Quadrature <=

    Radial Scheme          =       TREUTLER
    Pruning Scheme         =           NONE
    Nuclear Scheme         =       TREUTLER

    Blocking Scheme        =         OCTREE
    BS radius alpha        =              1
    Pruning alpha          =              1
    Radial Points          =             75
    Spherical Points       =            302
    Total Points           =          42152
    Total Blocks           =            405
    Max Points             =            254
    Max Functions          =             32
    Weights Tolerance      =       1.00E-15

  -Total Gradient:
     Atom            X                  Y                   Z
    ------   -----------------  -----------------  -----------------
       1        0.000000000000     0.000000000000    -0.000013094077
       2        0.000000000000     0.000000000000     0.000004351954

*** tstop() called on Joses-MacBook-Pro-2.local at Thu Jul 17 09:57:05 2025
Module time:
	user time   =       1.00 seconds =       0.02 minutes
	system time =       1.43 seconds =       0.02 minutes
	total time  =          0 seconds =       0.00 minutes
Total time:
	user time   =      77.04 seconds =       1.28 minutes
	system time =      97.92 seconds =       1.63 minutes
	total time  =         17 seconds =       0.28 minutes

    			-----------------------------------------

    			 OPTKING 3.0: for geometry optimizations

    			     By R.A. King, Bethel University

    			        with contributions from

    			    A.V. Copan, J. Cayton, A. Heide

    			-----------------------------------------

	                            ===> Fragment 1 <==

	 Z (Atomic Numbers)          Masses                          Geom
	       5.000000            11.009305          0.00000000  0.00000000  5.75047469
	      18.000000            39.962383          0.00000000  0.00000000 -1.58420812

	 - Coordinate -           - BOHR/RAD -       - ANG/DEG -
	 R(1,2)           =         7.334683           3.881347

	        --- Internal Coordinate Step in ANG or DEG, aJ/ANG or AJ/DEG ---
	-------------------------------------------------------------------------------
	           Coordinate      Previous         Force          Change          New
	           ----------      --------        ------          ------        ------
	               R(1,2)       3.88135        0.00007        0.00673       3.88808
	-------------------------------------------------------------------------------

	                                 ==> Convergence Check <==

	Measures of convergence in internal coordinates in au.

	Criteria marked as inactive (o), active & met (*), and active & unmet ( ).

	----------------------------------------------------------------------------------------------
	   Step    Total Energy     Delta E     Max Force     RMS Force      Max Disp      RMS Disp
	----------------------------------------------------------------------------------------------
	  Convergence Criteria     1.00e-06 *    3.00e-04 *             o    1.20e-03 *             o
	----------------------------------------------------------------------------------------------
	    18    -552.14995096   -4.63e-07 *    8.72e-06 *    8.72e-06 o    1.27e-02      1.27e-02 o  ~
	----------------------------------------------------------------------------------------------

Next Geometry in Ang
	Fragment 1 (Ang)

	    B   0.0000000000   0.0000000000   3.0463858597
	   Ar   0.0000000000   0.0000000000  -0.8416925387

    Final optimized geometry and variables:
    Molecular point group: c2v
    Full point group: C_inf_v

    Geometry (in Angstrom), charge = -1, multiplicity = 1:

    B            0.000000000000     0.000000000000     3.043020154284
    AR           0.000000000000     0.000000000000    -0.838326833298

    Psi4 stopped on: Thursday, 17 July 2025 09:57AM
    Psi4 wall time for execution: 0:00:17.51

*** Psi4 exiting successfully. Buy a developer a beer!
