                               Psi4 1.9.1 release

  ==> Input File <==

--------------------------------------------------------------------------
molecule {
-1 1
F   0.00000        0.60000        0.00000
Mg   0.00000       -0.60000        0.00000
}

set {
basis              cc-pvdz
reference          uks
maxiter            500
geom_maxiter       500
DAMPING_PERCENTAGE 1
guess              SAP
}

optimize('b3lyp')
--------------------------------------------------------------------------

    Molecular point group: c2v
  Charge       = -1
  Multiplicity = 1
  Basis Set: CC-PVDZ
    Blend: CC-PVDZ
  Basis Set: (CC-PVDZ AUX)
    Blend: CC-PVDZ-JKFIT + DEF2-UNIVERSAL-JKFIT
  @DF-UKS Final Energy:  -299.60893583581264
    Total Energy =                       -299.6089358358125878
 Dipole X            :          0.0000000            0.0000000            0.0000000
 Dipole Y            :          0.0000000            0.0000000            0.0000000
 Dipole Z            :          2.2945512           -0.6391737            1.6553775
 Magnitude           :                                                    1.6553775
    Molecular point group: c2v
  Basis Set: CC-PVDZ
    Blend: CC-PVDZ
  Basis Set: (CC-PVDZ AUX)
    Blend: CC-PVDZ-JKFIT + DEF2-UNIVERSAL-JKFIT
  Basis Set: CC-PVDZ
    Blend: CC-PVDZ
  Basis Set: (CC-PVDZ AUX)
    Blend: CC-PVDZ-JKFIT + DEF2-UNIVERSAL-JKFIT
  @DF-UKS Final Energy:  -299.85436419332154
    Total Energy =                       -299.8543641933216009
  Basis Set: CC-PVDZ
    Blend: CC-PVDZ
  Basis Set: (CC-PVDZ AUX)
    Blend: CC-PVDZ-JKFIT + DEF2-UNIVERSAL-JKFIT
  Basis Set: CC-PVDZ
    Blend: CC-PVDZ
  @DF-UKS Final Energy:  -299.94839845866613
    Total Energy =                       -299.9483984586661336
  @DF-UKS Final Energy:  -299.99425127774583
    Total Energy =                       -299.9942512777458319
  @DF-UKS Final Energy:  -300.00887221635253
    Total Energy =                       -300.0088722163525290
  @DF-UKS Final Energy:  -300.01625328642439
    Total Energy =                       -300.0162532864243872
  @DF-UKS Final Energy:  -300.01846827539595
    Total Energy =                       -300.0184682753959464
  @DF-UKS Final Energy:  -300.01941388171110
    Total Energy =                       -300.0194138817111025
  @DF-UKS Final Energy:  -300.01960474716986
    Total Energy =                       -300.0196047471699217
  @DF-UKS Final Energy:  -300.01965122567225
    Total Energy =                       -300.0196512256721917
  Basis Set: (CC-PVDZ AUX)
    Blend: CC-PVDZ-JKFIT + DEF2-UNIVERSAL-JKFIT
  Basis Set: CC-PVDZ
    Blend: CC-PVDZ
  Basis Set: (CC-PVDZ AUX)
    Blend: CC-PVDZ-JKFIT + DEF2-UNIVERSAL-JKFIT
  @DF-UKS Final Energy:  -300.01965734463778
    Total Energy =                       -300.0196573446377784
  Basis Set: CC-PVDZ
    Blend: CC-PVDZ
  Basis Set: (CC-PVDZ AUX)
    Blend: CC-PVDZ-JKFIT + DEF2-UNIVERSAL-JKFIT
  Charge       = -1
  Multiplicity = 1
  Basis Set: CC-PVDZ
    Blend: CC-PVDZ
  Basis Set: (CC-PVDZ AUX)
    Blend: CC-PVDZ-JKFIT + DEF2-UNIVERSAL-JKFIT

    Orbital Energies [Eh]
    ---------------------

    Alpha Occupied:

       1A1   -46.582494     2A1   -24.380172     3A1    -2.869127
       1B2    -1.614106     1B1    -1.614106     4A1    -1.610633
       5A1    -0.842815     6A1    -0.144338     2B1    -0.116647
       2B2    -0.116647     7A1     0.029607

    Alpha Virtual:

       3B1     0.149943     3B2     0.149943     8A1     0.188976
       9A1     0.282522     4B1     0.351456     4B2     0.351456
      10A1     0.426943     1A2     0.528426    11A1     0.528426
       5B2     0.579721     5B1     0.579721    12A1     0.722993
       6B1     1.510224     6B2     1.510224    13A1     1.533149
      14A1     2.475231     2A2     3.868552    15A1     3.868791
      16A1     3.887235     7B1     3.889988     7B2     3.889988

    Beta Occupied:

       1A1   -46.582494     2A1   -24.380172     3A1    -2.869127
       1B2    -1.614106     1B1    -1.614106     4A1    -1.610633
       5A1    -0.842815     6A1    -0.144338     2B1    -0.116647
       2B2    -0.116647     7A1     0.029607

    Beta Virtual:

       3B1     0.149943     3B2     0.149943     8A1     0.188976
       9A1     0.282522     4B1     0.351456     4B2     0.351456
      10A1     0.426943     1A2     0.528426    11A1     0.528426
       5B2     0.579721     5B1     0.579721    12A1     0.722993
       6B1     1.510224     6B2     1.510224    13A1     1.533149
      14A1     2.475231     2A2     3.868552    15A1     3.868791
      16A1     3.887235     7B1     3.889988     7B2     3.889988

    Final Occupation by Irrep:
             A1    A2    B1    B2
    DOCC [     7,    0,    2,    2 ]
    SOCC [     0,    0,    0,    0 ]
    NA   [     7,    0,    2,    2 ]
    NB   [     7,    0,    2,    2 ]

  @DF-UKS Final Energy:  -300.01965757842038

   => Energetics <=

    Nuclear Repulsion Energy =             31.3494201549798426
    One-Electron Energy =                -487.3141877647541378
    Two-Electron Energy =                 177.8944611438603260
    DFT Exchange-Correlation Energy =     -21.9493511125064167
    Empirical Dispersion Energy =           0.0000000000000000
    VV10 Nonlocal Energy =                  0.0000000000000000
    Total Energy =                       -300.0196575784203787

  UHF NO Occupations:
  HONO-2 :    7 A1 2.0000000
  HONO-1 :    2 B2 2.0000000
  HONO-0 :    2 B1 2.0000000
  LUNO+0 :    8 A1 0.0000000
  LUNO+1 :    9 A1 0.0000000
  LUNO+2 :    3 B2 0.0000000
  LUNO+3 :    3 B1 0.0000000

Computation Completed

Properties will be evaluated at   0.000000,   0.000000,   0.000000 [a0]

Properties computed using the SCF density matrix

 Multipole Moments:

 ------------------------------------------------------------------------------------
     Multipole            Electronic (a.u.)      Nuclear  (a.u.)        Total (a.u.)
 ------------------------------------------------------------------------------------

 L = 1.  Multiply by 2.5417464519 to convert [e a0] to [Debye]
 Dipole X            :          0.0000000            0.0000000            0.0000000
 Dipole Y            :          0.0000000            0.0000000            0.0000000
 Dipole Z            :          2.2919254           -0.9710309            1.3208945
 Magnitude           :                                                    1.3208945

 ------------------------------------------------------------------------------------

*** tstop() called on Joses-MacBook-Pro-2.local at Thu Jul 17 10:51:36 2025
Module time:
	user time   =       2.82 seconds =       0.05 minutes
	system time =       3.36 seconds =       0.06 minutes
	total time  =          1 seconds =       0.02 minutes
Total time:
	user time   =      60.51 seconds =       1.01 minutes
	system time =      61.07 seconds =       1.02 minutes
	total time  =         13 seconds =       0.22 minutes

*** tstart() called on Joses-MacBook-Pro-2.local
*** at Thu Jul 17 10:51:36 2025

         ------------------------------------------------------------
                                   SCF GRAD
                          Rob Parrish, Justin Turney,
                       Andy Simmonett, and Alex Sokolov
         ------------------------------------------------------------

  ==> Geometry <==

    Molecular point group: c2v
    Full point group: C_inf_v

    Geometry (in Angstrom), charge = -1, multiplicity = 1:

       Center              X                  Y                   Z               Mass
    ------------   -----------------  -----------------  -----------------  -----------------
         F            0.000000000000     0.000000000000     1.017266247524    18.998403162730
         MG           0.000000000000     0.000000000000    -0.805770302110    23.985041697000

  Nuclear repulsion =   31.349420154979850

  ==> Basis Set <==

  Basis Set: CC-PVDZ
    Blend: CC-PVDZ
    Number of shells: 14
    Number of basis functions: 32
    Number of Cartesian functions: 34
    Spherical Harmonics?: true
    Max angular momentum: 2

  ==> DFJKGrad: Density-Fitted SCF Gradients <==

    Gradient:                    1
    J tasked:                  Yes
    K tasked:                  Yes
    wK tasked:                  No
    OpenMP threads:              1
    Integrals threads:           1
    Memory [MiB]:              375
    Schwarz Cutoff:          1E-12
    Fitting Condition:       1E-10

   => Auxiliary Basis Set <=

  Basis Set: (CC-PVDZ AUX)
    Blend: CC-PVDZ-JKFIT + DEF2-UNIVERSAL-JKFIT
    Number of shells: 58
    Number of basis functions: 182
    Number of Cartesian functions: 218
    Spherical Harmonics?: true
    Max angular momentum: 4

  ==> DFT Potential <==

   => LibXC <=

    Version 6.2.2
    S. Lehtola, C. Steigemann, M. J.T. Oliveira, and M. A.L. Marques.,  SoftwareX 7, 1â€“5 (2018) (10.1016/j.softx.2017.11.002)

   => Composite Functional: B3LYP <=

    B3LYP Hyb-GGA Exchange-Correlation Functional

    P. J. Stephens, F. J. Devlin, C. F. Chabalowski, and M. J. Frisch.,  J. Phys. Chem. 98, 11623 (1994) (10.1021/j100096a001)

    Deriv               =              1
    GGA                 =           TRUE
    Meta                =          FALSE

    Exchange Hybrid     =           TRUE
    MP2 Hybrid          =          FALSE

   => Exchange Functionals <=

    0.0800   Slater exchange
    0.7200         Becke 88

   => Exact (HF) Exchange <=

    0.2000               HF

   => Correlation Functionals <=

    0.1900   Vosko, Wilk & Nusair (VWN5_RPA)
    0.8100   Lee, Yang & Parr

   => LibXC Density Thresholds  <==

    XC_HYB_GGA_XC_B3LYP:  1.00E-15

   => Molecular Quadrature <=

    Radial Scheme          =       TREUTLER
    Pruning Scheme         =           NONE
    Nuclear Scheme         =       TREUTLER

    Blocking Scheme        =         OCTREE
    BS radius alpha        =              1
    Pruning alpha          =              1
    Radial Points          =             75
    Spherical Points       =            302
    Total Points           =          43429
    Total Blocks           =            407
    Max Points             =            256
    Max Functions          =             32
    Weights Tolerance      =       1.00E-15

  -Total Gradient:
     Atom            X                  Y                   Z
    ------   -----------------  -----------------  -----------------
       1       -0.000000000000     0.000000000000    -0.000109260385
       2        0.000000000000     0.000000000000    -0.000005880677

*** tstop() called on Joses-MacBook-Pro-2.local at Thu Jul 17 10:51:36 2025
Module time:
	user time   =       1.29 seconds =       0.02 minutes
	system time =       1.58 seconds =       0.03 minutes
	total time  =          0 seconds =       0.00 minutes
Total time:
	user time   =      61.80 seconds =       1.03 minutes
	system time =      62.65 seconds =       1.04 minutes
	total time  =         13 seconds =       0.22 minutes

    			-----------------------------------------

    			 OPTKING 3.0: for geometry optimizations

    			     By R.A. King, Bethel University

    			        with contributions from

    			    A.V. Copan, J. Cayton, A. Heide

    			-----------------------------------------

	                            ===> Fragment 1 <==

	 Z (Atomic Numbers)          Masses                          Geom
	       9.000000            18.998403          0.00000000  0.00000000  1.92235460
	      12.000000            23.985042          0.00000000  0.00000000 -1.52268519

	 - Coordinate -           - BOHR/RAD -       - ANG/DEG -
	 R(1,2)           =         3.445040           1.823037

	        --- Internal Coordinate Step in ANG or DEG, aJ/ANG or AJ/DEG ---
	-------------------------------------------------------------------------------
	           Coordinate      Previous         Force          Change          New
	           ----------      --------        ------          ------        ------
	               R(1,2)       1.82304        0.00043        0.00016       1.82320
	-------------------------------------------------------------------------------

	                                 ==> Convergence Check <==

	Measures of convergence in internal coordinates in au.

	Criteria marked as inactive (o), active & met (*), and active & unmet ( ).

	----------------------------------------------------------------------------------------------
	   Step    Total Energy     Delta E     Max Force     RMS Force      Max Disp      RMS Disp
	----------------------------------------------------------------------------------------------
	  Convergence Criteria     1.00e-06 *    3.00e-04 *             o    1.20e-03 *             o
	----------------------------------------------------------------------------------------------
	    12    -300.01965758   -2.34e-07 *    5.17e-05 *    5.17e-05 o    3.06e-04 *    3.06e-04 o  ~
	----------------------------------------------------------------------------------------------

Next Geometry in Ang
	Fragment 1 (Ang)

	    F   0.0000000000   0.0000000000   1.0173472370
	   Mg   0.0000000000   0.0000000000  -0.8058512916

    Final optimized geometry and variables:
    Molecular point group: c2v
    Full point group: C_inf_v

    Geometry (in Angstrom), charge = -1, multiplicity = 1:

    F            0.000000000000     0.000000000000     1.017266247524
    MG           0.000000000000     0.000000000000    -0.805770302110

    Psi4 stopped on: Thursday, 17 July 2025 10:51AM
    Psi4 wall time for execution: 0:00:13.71

*** Psi4 exiting successfully. Buy a developer a beer!
