                               Psi4 1.9.1 release

  ==> Input File <==

--------------------------------------------------------------------------
molecule {
-1 1
N   0.00000        0.60000        0.00000
Mg   0.00000       -0.60000        0.00000
}

set {
basis              cc-pvdz
reference          uks
maxiter            500
geom_maxiter       500
DAMPING_PERCENTAGE 1
guess              SAP
}

optimize('b3lyp')
--------------------------------------------------------------------------

    Molecular point group: c2v
  Charge       = -1
  Multiplicity = 1
  Basis Set: CC-PVDZ
    Blend: CC-PVDZ
  Basis Set: (CC-PVDZ AUX)
    Blend: CC-PVDZ-JKFIT + DEF2-UNIVERSAL-JKFIT
  @DF-UKS Final Energy:  -254.30922120177985
    Total Energy =                       -254.3092212017798488
 Dipole X            :          0.0000000            0.0000000            0.0000000
 Dipole Y            :          0.0000000            0.0000000            0.0000000
 Dipole Z            :          0.7465227           -0.0084525            0.7380702
 Magnitude           :                                                    0.7380702
    Molecular point group: c2v
  Basis Set: CC-PVDZ
    Blend: CC-PVDZ
  Basis Set: (CC-PVDZ AUX)
    Blend: CC-PVDZ-JKFIT + DEF2-UNIVERSAL-JKFIT
  Basis Set: CC-PVDZ
    Blend: CC-PVDZ
  Basis Set: (CC-PVDZ AUX)
    Blend: CC-PVDZ-JKFIT + DEF2-UNIVERSAL-JKFIT
  @DF-UKS Final Energy:  -254.48802404504596
    Total Energy =                       -254.4880240450459610
  Basis Set: CC-PVDZ
    Blend: CC-PVDZ
  Basis Set: (CC-PVDZ AUX)
    Blend: CC-PVDZ-JKFIT + DEF2-UNIVERSAL-JKFIT
  Basis Set: CC-PVDZ
    Blend: CC-PVDZ
  @DF-UKS Final Energy:  -254.61385120639417
    Total Energy =                       -254.6138512063941732
  @DF-UKS Final Energy:  -254.66627780905975
    Total Energy =                       -254.6662778090597499
  @DF-UKS Final Energy:  -254.68724364906990
    Total Energy =                       -254.6872436490698988
  @DF-UKS Final Energy:  -254.69622877759861
    Total Energy =                       -254.6962287775986056
  @DF-UKS Final Energy:  -254.69918635871144
    Total Energy =                       -254.6991863587114437
  @DF-UKS Final Energy:  -254.69973546383613
    Total Energy =                       -254.6997354638361344
  @DF-UKS Final Energy:  -254.69984878098720
    Total Energy =                       -254.6998487809871961
  @DF-UKS Final Energy:  -254.69987672212915
    Total Energy =                       -254.6998767221291473
  Basis Set: (CC-PVDZ AUX)
    Blend: CC-PVDZ-JKFIT + DEF2-UNIVERSAL-JKFIT
  Basis Set: CC-PVDZ
    Blend: CC-PVDZ
  Basis Set: (CC-PVDZ AUX)
    Blend: CC-PVDZ-JKFIT + DEF2-UNIVERSAL-JKFIT
  @DF-UKS Final Energy:  -254.69988010985051
    Total Energy =                       -254.6998801098505112
  Basis Set: CC-PVDZ
    Blend: CC-PVDZ
  Basis Set: (CC-PVDZ AUX)
    Blend: CC-PVDZ-JKFIT + DEF2-UNIVERSAL-JKFIT
  Charge       = -1
  Multiplicity = 1
  Basis Set: CC-PVDZ
    Blend: CC-PVDZ
  Basis Set: (CC-PVDZ AUX)
    Blend: CC-PVDZ-JKFIT + DEF2-UNIVERSAL-JKFIT

    Orbital Energies [Eh]
    ---------------------

    Alpha Occupied:

       1A1   -46.600396     2A1   -14.087701     3A1    -2.887965
       4A1    -1.632154     1B1    -1.630975     1B2    -1.630975
       5A1    -0.425302     6A1    -0.017695     2B1     0.023766
       2B2     0.023766

    Alpha Virtual:

       7A1     0.079096     3B2     0.163222     3B1     0.163222
       8A1     0.200370     9A1     0.267900     4B2     0.342054
       4B1     0.342054    10A1     0.437098    11A1     0.521956
       1A2     0.521956     5B2     0.588246     5B1     0.588246
      12A1     0.785171     6B2     1.065337     6B1     1.065337
      13A1     1.086887    14A1     1.618104    15A1     2.077199
       2A2     2.077229     7B2     2.147037     7B1     2.147037
      16A1     2.322581

    Beta Occupied:

       1A1   -46.600396     2A1   -14.087701     3A1    -2.887965
       4A1    -1.632154     1B1    -1.630975     1B2    -1.630975
       5A1    -0.425302     6A1    -0.017695     2B2     0.023766
       2B1     0.023766

    Beta Virtual:

       7A1     0.079096     3B2     0.163222     3B1     0.163222
       8A1     0.200370     9A1     0.267900     4B2     0.342054
       4B1     0.342054    10A1     0.437098    11A1     0.521956
       1A2     0.521956     5B2     0.588246     5B1     0.588246
      12A1     0.785171     6B2     1.065337     6B1     1.065337
      13A1     1.086887    14A1     1.618104    15A1     2.077199
       2A2     2.077229     7B2     2.147037     7B1     2.147037
      16A1     2.322581

    Final Occupation by Irrep:
             A1    A2    B1    B2
    DOCC [     6,    0,    2,    2 ]
    SOCC [     0,    0,    0,    0 ]
    NA   [     6,    0,    2,    2 ]
    NB   [     6,    0,    2,    2 ]

  @DF-UKS Final Energy:  -254.69988022312117

   => Energetics <=

    Nuclear Repulsion Energy =             23.9968407834880963
    One-Electron Energy =                -406.1026423897570794
    Two-Electron Energy =                 146.3441467493136656
    DFT Exchange-Correlation Energy =     -18.9382253661658631
    Empirical Dispersion Energy =           0.0000000000000000
    VV10 Nonlocal Energy =                  0.0000000000000000
    Total Energy =                       -254.6998802231211698

  UHF NO Occupations:
  HONO-2 :    5 A1 2.0000000
  HONO-1 :    2 B1 2.0000000
  HONO-0 :    6 A1 2.0000000
  LUNO+0 :    7 A1 0.0000000
  LUNO+1 :    8 A1 0.0000000
  LUNO+2 :    9 A1 0.0000000
  LUNO+3 :   10 A1 0.0000000

Computation Completed

Properties will be evaluated at   0.000000,   0.000000,   0.000000 [a0]

Properties computed using the SCF density matrix

 Multipole Moments:

 ------------------------------------------------------------------------------------
     Multipole            Electronic (a.u.)      Nuclear  (a.u.)        Total (a.u.)
 ------------------------------------------------------------------------------------

 L = 1.  Multiply by 2.5417464519 to convert [e a0] to [Debye]
 Dipole X            :          0.0000000            0.0000000            0.0000000
 Dipole Y            :          0.0000000            0.0000000            0.0000000
 Dipole Z            :         -0.6402282           -0.0130476           -0.6532757
 Magnitude           :                                                    0.6532757

 ------------------------------------------------------------------------------------

*** tstop() called on Joses-MacBook-Pro-2.local at Thu Jul 17 10:29:42 2025
Module time:
	user time   =       3.90 seconds =       0.07 minutes
	system time =       3.53 seconds =       0.06 minutes
	total time  =          1 seconds =       0.02 minutes
Total time:
	user time   =      70.13 seconds =       1.17 minutes
	system time =      67.03 seconds =       1.12 minutes
	total time  =         13 seconds =       0.22 minutes

*** tstart() called on Joses-MacBook-Pro-2.local
*** at Thu Jul 17 10:29:42 2025

         ------------------------------------------------------------
                                   SCF GRAD
                          Rob Parrish, Justin Turney,
                       Andy Simmonett, and Alex Sokolov
         ------------------------------------------------------------

  ==> Geometry <==

    Molecular point group: c2v
    Full point group: C_inf_v

    Geometry (in Angstrom), charge = -1, multiplicity = 1:

       Center              X                  Y                   Z               Mass
    ------------   -----------------  -----------------  -----------------  -----------------
         N            0.000000000000     0.000000000000     1.169550757442    14.003074004430
         MG           0.000000000000     0.000000000000    -0.682813314035    23.985041697000

  Nuclear repulsion =   23.996840783488096

  ==> Basis Set <==

  Basis Set: CC-PVDZ
    Blend: CC-PVDZ
    Number of shells: 14
    Number of basis functions: 32
    Number of Cartesian functions: 34
    Spherical Harmonics?: true
    Max angular momentum: 2

  ==> DFJKGrad: Density-Fitted SCF Gradients <==

    Gradient:                    1
    J tasked:                  Yes
    K tasked:                  Yes
    wK tasked:                  No
    OpenMP threads:              1
    Integrals threads:           1
    Memory [MiB]:              375
    Schwarz Cutoff:          1E-12
    Fitting Condition:       1E-10

   => Auxiliary Basis Set <=

  Basis Set: (CC-PVDZ AUX)
    Blend: CC-PVDZ-JKFIT + DEF2-UNIVERSAL-JKFIT
    Number of shells: 58
    Number of basis functions: 182
    Number of Cartesian functions: 218
    Spherical Harmonics?: true
    Max angular momentum: 4

  ==> DFT Potential <==

   => LibXC <=

    Version 6.2.2
    S. Lehtola, C. Steigemann, M. J.T. Oliveira, and M. A.L. Marques.,  SoftwareX 7, 1â€“5 (2018) (10.1016/j.softx.2017.11.002)

   => Composite Functional: B3LYP <=

    B3LYP Hyb-GGA Exchange-Correlation Functional

    P. J. Stephens, F. J. Devlin, C. F. Chabalowski, and M. J. Frisch.,  J. Phys. Chem. 98, 11623 (1994) (10.1021/j100096a001)

    Deriv               =              1
    GGA                 =           TRUE
    Meta                =          FALSE

    Exchange Hybrid     =           TRUE
    MP2 Hybrid          =          FALSE

   => Exchange Functionals <=

    0.0800   Slater exchange
    0.7200         Becke 88

   => Exact (HF) Exchange <=

    0.2000               HF

   => Correlation Functionals <=

    0.1900   Vosko, Wilk & Nusair (VWN5_RPA)
    0.8100   Lee, Yang & Parr

   => LibXC Density Thresholds  <==

    XC_HYB_GGA_XC_B3LYP:  1.00E-15

   => Molecular Quadrature <=

    Radial Scheme          =       TREUTLER
    Pruning Scheme         =           NONE
    Nuclear Scheme         =       TREUTLER

    Blocking Scheme        =         OCTREE
    BS radius alpha        =              1
    Pruning alpha          =              1
    Radial Points          =             75
    Spherical Points       =            302
    Total Points           =          43435
    Total Blocks           =            412
    Max Points             =            256
    Max Functions          =             32
    Weights Tolerance      =       1.00E-15

  -Total Gradient:
     Atom            X                  Y                   Z
    ------   -----------------  -----------------  -----------------
       1        0.000000000000    -0.000000000000    -0.000034094608
       2        0.000000000000     0.000000000000     0.000015741631

*** tstop() called on Joses-MacBook-Pro-2.local at Thu Jul 17 10:29:42 2025
Module time:
	user time   =       0.69 seconds =       0.01 minutes
	system time =       1.79 seconds =       0.03 minutes
	total time  =          0 seconds =       0.00 minutes
Total time:
	user time   =      70.83 seconds =       1.18 minutes
	system time =      68.82 seconds =       1.15 minutes
	total time  =         13 seconds =       0.22 minutes

    			-----------------------------------------

    			 OPTKING 3.0: for geometry optimizations

    			     By R.A. King, Bethel University

    			        with contributions from

    			    A.V. Copan, J. Cayton, A. Heide

    			-----------------------------------------

	                            ===> Fragment 1 <==

	 Z (Atomic Numbers)          Masses                          Geom
	       7.000000            14.003074          0.00000000  0.00000000  2.21013062
	      12.000000            23.985042          0.00000000  0.00000000 -1.29033016

	 - Coordinate -           - BOHR/RAD -       - ANG/DEG -
	 R(1,2)           =         3.500461           1.852364

	        --- Internal Coordinate Step in ANG or DEG, aJ/ANG or AJ/DEG ---
	-------------------------------------------------------------------------------
	           Coordinate      Previous         Force          Change          New
	           ----------      --------        ------          ------        ------
	               R(1,2)       1.85236        0.00021        0.00008       1.85244
	-------------------------------------------------------------------------------

	                                 ==> Convergence Check <==

	Measures of convergence in internal coordinates in au.

	Criteria marked as inactive (o), active & met (*), and active & unmet ( ).

	----------------------------------------------------------------------------------------------
	   Step    Total Energy     Delta E     Max Force     RMS Force      Max Disp      RMS Disp
	----------------------------------------------------------------------------------------------
	  Convergence Criteria     1.00e-06 *    3.00e-04 *             o    1.20e-03 *             o
	----------------------------------------------------------------------------------------------
	    12    -254.69988022   -1.13e-07 *    2.49e-05 *    2.49e-05 o    1.42e-04 *    1.42e-04 o  ~
	----------------------------------------------------------------------------------------------

Next Geometry in Ang
	Fragment 1 (Ang)

	    N   0.0000000000   0.0000000000   1.1695883971
	   Mg   0.0000000000   0.0000000000  -0.6828509537

    Final optimized geometry and variables:
    Molecular point group: c2v
    Full point group: C_inf_v

    Geometry (in Angstrom), charge = -1, multiplicity = 1:

    N            0.000000000000     0.000000000000     1.169550757442
    MG           0.000000000000     0.000000000000    -0.682813314035

    Psi4 stopped on: Thursday, 17 July 2025 10:29AM
    Psi4 wall time for execution: 0:00:14.59

*** Psi4 exiting successfully. Buy a developer a beer!
