                               Psi4 1.9.1 release

  ==> Input File <==

--------------------------------------------------------------------------
molecule {
-1 1
C   0.00000        0.60000        0.00000
Na   0.00000       -0.60000        0.00000
}

set {
basis              cc-pvdz
reference          uks
maxiter            500
geom_maxiter       500
DAMPING_PERCENTAGE 1
guess              SAP
}

optimize('b3lyp')
--------------------------------------------------------------------------

    Molecular point group: c2v
  Charge       = -1
  Multiplicity = 1
  Basis Set: CC-PVDZ
    Blend: CC-PVDZ
  Basis Set: (CC-PVDZ AUX)
    Blend: CC-PVDZ-JKFIT + DEF2-UNIVERSAL-JKFIT
  @DF-UKS Final Energy:  -199.78128654999298
    Total Energy =                       -199.7812865499929558
 Dipole X            :          0.0000000            0.0000000            0.0000000
 Dipole Y            :          0.0000000            0.0000000            0.0000000
 Dipole Z            :         -2.6383246            0.3848790           -2.2534456
 Magnitude           :                                                    2.2534456
    Molecular point group: c2v
  Basis Set: CC-PVDZ
    Blend: CC-PVDZ
  Basis Set: (CC-PVDZ AUX)
    Blend: CC-PVDZ-JKFIT + DEF2-UNIVERSAL-JKFIT
  Basis Set: CC-PVDZ
    Blend: CC-PVDZ
  Basis Set: (CC-PVDZ AUX)
    Blend: CC-PVDZ-JKFIT + DEF2-UNIVERSAL-JKFIT
  @DF-UKS Final Energy:  -199.87748725086891
    Total Energy =                       -199.8774872508689100
  Basis Set: CC-PVDZ
    Blend: CC-PVDZ
  Basis Set: (CC-PVDZ AUX)
    Blend: CC-PVDZ-JKFIT + DEF2-UNIVERSAL-JKFIT
  Basis Set: CC-PVDZ
    Blend: CC-PVDZ
  @DF-UKS Final Energy:  -199.97631695268416
    Total Energy =                       -199.9763169526841580
  @DF-UKS Final Energy:  -200.06110843916355
    Total Energy =                       -200.0611084391635472
  @DF-UKS Final Energy:  -200.10062390823043
    Total Energy =                       -200.1006239082304319
  @DF-UKS Final Energy:  -200.11536429171139
    Total Energy =                       -200.1153642917114439
  @DF-UKS Final Energy:  -200.11998447951191
    Total Energy =                       -200.1199844795119418
  @DF-UKS Final Energy:  -200.12081614135784
    Total Energy =                       -200.1208161413578637
  @DF-UKS Final Energy:  -200.12101653104901
    Total Energy =                       -200.1210165310490083
  @DF-UKS Final Energy:  -200.12103577728570
    Total Energy =                       -200.1210357772856980
  Basis Set: (CC-PVDZ AUX)
    Blend: CC-PVDZ-JKFIT + DEF2-UNIVERSAL-JKFIT
  Basis Set: CC-PVDZ
    Blend: CC-PVDZ
  Basis Set: (CC-PVDZ AUX)
    Blend: CC-PVDZ-JKFIT + DEF2-UNIVERSAL-JKFIT
  @DF-UKS Final Energy:  -200.12103766225997
    Total Energy =                       -200.1210376622599654
  Basis Set: CC-PVDZ
    Blend: CC-PVDZ
  Basis Set: (CC-PVDZ AUX)
    Blend: CC-PVDZ-JKFIT + DEF2-UNIVERSAL-JKFIT
  Charge       = -1
  Multiplicity = 1
  Basis Set: CC-PVDZ
    Blend: CC-PVDZ
  Basis Set: (CC-PVDZ AUX)
    Blend: CC-PVDZ-JKFIT + DEF2-UNIVERSAL-JKFIT

    Orbital Energies [Eh]
    ---------------------

    Alpha Occupied:

       1A1   -38.346695     2A1   -10.028995     3A1    -2.093957
       4A1    -1.028121     1B2    -1.024203     1B1    -1.024203
       5A1    -0.288950     2B2     0.037320     2B1     0.037320

    Alpha Virtual:

       6A1     0.046377     7A1     0.093318     3B1     0.112422
       3B2     0.112422     8A1     0.129640     9A1     0.178861
       4B2     0.213225     4B1     0.213225    10A1     0.282056
       1A2     0.310597    11A1     0.310597     5B2     0.369590
       5B1     0.369590    12A1     0.419807    13A1     0.784912
       6B2     0.795732     6B1     0.795732    14A1     1.239226
      15A1     1.389442    16A1     1.431772     2A2     1.431780
       7B2     1.444613     7B1     1.444613

    Beta Occupied:

       1A1   -38.346695     2A1   -10.028995     3A1    -2.093957
       4A1    -1.028121     1B2    -1.024203     1B1    -1.024203
       5A1    -0.288950     2B1     0.037320     2B2     0.037320

    Beta Virtual:

       6A1     0.046377     7A1     0.093318     3B1     0.112422
       3B2     0.112422     8A1     0.129640     9A1     0.178861
       4B2     0.213225     4B1     0.213225    10A1     0.282056
       1A2     0.310597    11A1     0.310597     5B2     0.369590
       5B1     0.369590    12A1     0.419807    13A1     0.784912
       6B2     0.795732     6B1     0.795732    14A1     1.239226
      15A1     1.389442    16A1     1.431772     2A2     1.431780
       7B2     1.444613     7B1     1.444613

    Final Occupation by Irrep:
             A1    A2    B1    B2
    DOCC [     5,    0,    2,    2 ]
    SOCC [     0,    0,    0,    0 ]
    NA   [     5,    0,    2,    2 ]
    NB   [     5,    0,    2,    2 ]

  @DF-UKS Final Energy:  -200.12103784120828

   => Energetics <=

    Nuclear Repulsion Energy =             16.7313109508573774
    One-Electron Energy =                -314.7146912545453574
    Two-Electron Energy =                 113.8605405112608793
    DFT Exchange-Correlation Energy =     -15.9981980487811750
    Empirical Dispersion Energy =           0.0000000000000000
    VV10 Nonlocal Energy =                  0.0000000000000000
    Total Energy =                       -200.1210378412082775

  UHF NO Occupations:
  HONO-2 :    2 B2 2.0000000
  HONO-1 :    4 A1 2.0000000
  HONO-0 :    5 A1 2.0000000
  LUNO+0 :    3 B1 0.0000000
  LUNO+1 :    6 A1 0.0000000
  LUNO+2 :    7 A1 0.0000000
  LUNO+3 :    3 B2 0.0000000

Computation Completed

Properties will be evaluated at   0.000000,   0.000000,   0.000000 [a0]

Properties computed using the SCF density matrix

 Multipole Moments:

 ------------------------------------------------------------------------------------
     Multipole            Electronic (a.u.)      Nuclear  (a.u.)        Total (a.u.)
 ------------------------------------------------------------------------------------

 L = 1.  Multiply by 2.5417464519 to convert [e a0] to [Debye]
 Dipole X            :          0.0000000            0.0000000            0.0000000
 Dipole Y            :          0.0000000            0.0000000            0.0000000
 Dipole Z            :         -2.7010927            0.6695116           -2.0315811
 Magnitude           :                                                    2.0315811

 ------------------------------------------------------------------------------------

*** tstop() called on Joses-MacBook-Pro-2.local at Thu Jul 17 10:00:23 2025
Module time:
	user time   =       3.39 seconds =       0.06 minutes
	system time =       2.68 seconds =       0.04 minutes
	total time  =          0 seconds =       0.00 minutes
Total time:
	user time   =      64.85 seconds =       1.08 minutes
	system time =      65.94 seconds =       1.10 minutes
	total time  =         12 seconds =       0.20 minutes

*** tstart() called on Joses-MacBook-Pro-2.local
*** at Thu Jul 17 10:00:23 2025

         ------------------------------------------------------------
                                   SCF GRAD
                          Rob Parrish, Justin Turney,
                       Andy Simmonett, and Alex Sokolov
         ------------------------------------------------------------

  ==> Geometry <==

    Molecular point group: c2v
    Full point group: C_inf_v

    Geometry (in Angstrom), charge = -1, multiplicity = 1:

       Center              X                  Y                   Z               Mass
    ------------   -----------------  -----------------  -----------------  -----------------
         C            0.000000000000     0.000000000000     1.371540485388    12.000000000000
         NA           0.000000000000     0.000000000000    -0.715904784549    22.989769282000

  Nuclear repulsion =   16.731310950857377

  ==> Basis Set <==

  Basis Set: CC-PVDZ
    Blend: CC-PVDZ
    Number of shells: 14
    Number of basis functions: 32
    Number of Cartesian functions: 34
    Spherical Harmonics?: true
    Max angular momentum: 2

  ==> DFJKGrad: Density-Fitted SCF Gradients <==

    Gradient:                    1
    J tasked:                  Yes
    K tasked:                  Yes
    wK tasked:                  No
    OpenMP threads:              1
    Integrals threads:           1
    Memory [MiB]:              375
    Schwarz Cutoff:          1E-12
    Fitting Condition:       1E-10

   => Auxiliary Basis Set <=

  Basis Set: (CC-PVDZ AUX)
    Blend: CC-PVDZ-JKFIT + DEF2-UNIVERSAL-JKFIT
    Number of shells: 58
    Number of basis functions: 182
    Number of Cartesian functions: 218
    Spherical Harmonics?: true
    Max angular momentum: 4

  ==> DFT Potential <==

   => LibXC <=

    Version 6.2.2
    S. Lehtola, C. Steigemann, M. J.T. Oliveira, and M. A.L. Marques.,  SoftwareX 7, 1â€“5 (2018) (10.1016/j.softx.2017.11.002)

   => Composite Functional: B3LYP <=

    B3LYP Hyb-GGA Exchange-Correlation Functional

    P. J. Stephens, F. J. Devlin, C. F. Chabalowski, and M. J. Frisch.,  J. Phys. Chem. 98, 11623 (1994) (10.1021/j100096a001)

    Deriv               =              1
    GGA                 =           TRUE
    Meta                =          FALSE

    Exchange Hybrid     =           TRUE
    MP2 Hybrid          =          FALSE

   => Exchange Functionals <=

    0.0800   Slater exchange
    0.7200         Becke 88

   => Exact (HF) Exchange <=

    0.2000               HF

   => Correlation Functionals <=

    0.1900   Vosko, Wilk & Nusair (VWN5_RPA)
    0.8100   Lee, Yang & Parr

   => LibXC Density Thresholds  <==

    XC_HYB_GGA_XC_B3LYP:  1.00E-15

   => Molecular Quadrature <=

    Radial Scheme          =       TREUTLER
    Pruning Scheme         =           NONE
    Nuclear Scheme         =       TREUTLER

    Blocking Scheme        =         OCTREE
    BS radius alpha        =              1
    Pruning alpha          =              1
    Radial Points          =             75
    Spherical Points       =            302
    Total Points           =          43785
    Total Blocks           =            432
    Max Points             =            250
    Max Functions          =             32
    Weights Tolerance      =       1.00E-15

  -Total Gradient:
     Atom            X                  Y                   Z
    ------   -----------------  -----------------  -----------------
       1        0.000000000000     0.000000000000    -0.000031368381
       2        0.000000000000    -0.000000000000     0.000026420675

*** tstop() called on Joses-MacBook-Pro-2.local at Thu Jul 17 10:00:24 2025
Module time:
	user time   =       1.22 seconds =       0.02 minutes
	system time =       1.60 seconds =       0.03 minutes
	total time  =          1 seconds =       0.02 minutes
Total time:
	user time   =      66.08 seconds =       1.10 minutes
	system time =      67.54 seconds =       1.13 minutes
	total time  =         13 seconds =       0.22 minutes

    			-----------------------------------------

    			 OPTKING 3.0: for geometry optimizations

    			     By R.A. King, Bethel University

    			        with contributions from

    			    A.V. Copan, J. Cayton, A. Heide

    			-----------------------------------------

	                            ===> Fragment 1 <==

	 Z (Atomic Numbers)          Masses                          Geom
	       6.000000            12.000000          0.00000000  0.00000000  2.59183589
	      11.000000            22.989769          0.00000000  0.00000000 -1.35286397

	 - Coordinate -           - BOHR/RAD -       - ANG/DEG -
	 R(1,2)           =         3.944700           2.087445

	        --- Internal Coordinate Step in ANG or DEG, aJ/ANG or AJ/DEG ---
	-------------------------------------------------------------------------------
	           Coordinate      Previous         Force          Change          New
	           ----------      --------        ------          ------        ------
	               R(1,2)       2.08745        0.00024        0.00021       2.08766
	-------------------------------------------------------------------------------

	                                 ==> Convergence Check <==

	Measures of convergence in internal coordinates in au.

	Criteria marked as inactive (o), active & met (*), and active & unmet ( ).

	----------------------------------------------------------------------------------------------
	   Step    Total Energy     Delta E     Max Force     RMS Force      Max Disp      RMS Disp
	----------------------------------------------------------------------------------------------
	  Convergence Criteria     1.00e-06 *    3.00e-04 *             o    1.20e-03 *             o
	----------------------------------------------------------------------------------------------
	    12    -200.12103784   -1.79e-07 *    2.89e-05 *    2.89e-05 o    4.03e-04 *    4.03e-04 o  ~
	----------------------------------------------------------------------------------------------

Next Geometry in Ang
	Fragment 1 (Ang)

	    C   0.0000000000   0.0000000000   1.3716470214
	   Na   0.0000000000   0.0000000000  -0.7160113206

    Final optimized geometry and variables:
    Molecular point group: c2v
    Full point group: C_inf_v

    Geometry (in Angstrom), charge = -1, multiplicity = 1:

    C            0.000000000000     0.000000000000     1.371540485388
    NA           0.000000000000     0.000000000000    -0.715904784549

    Psi4 stopped on: Thursday, 17 July 2025 10:00AM
    Psi4 wall time for execution: 0:00:13.72

*** Psi4 exiting successfully. Buy a developer a beer!
