                               Psi4 1.9.1 release

  ==> Input File <==

--------------------------------------------------------------------------
molecule {
-1 1
Li   0.00000        0.60000        0.00000
Ne   0.00000       -0.60000        0.00000
}

set {
basis              cc-pvdz
reference          uks
maxiter            500
geom_maxiter       500
DAMPING_PERCENTAGE 1
guess              SAP
}

optimize('b3lyp')
--------------------------------------------------------------------------

    Molecular point group: c2v
  Charge       = -1
  Multiplicity = 1
  Basis Set: CC-PVDZ
    Blend: CC-PVDZ
  Basis Set: (CC-PVDZ AUX)
    Blend: CC-PVDZ-JKFIT + DEF2-UNIVERSAL-JKFIT
  @DF-UKS Final Energy:  -136.27638446531455
    Total Energy =                       -136.2763844653145497
 Dipole X            :          0.0000000            0.0000000            0.0000000
 Dipole Y            :          0.0000000            0.0000000            0.0000000
 Dipole Z            :         -1.4045097           -0.8549566           -2.2594663
 Magnitude           :                                                    2.2594663
    Molecular point group: c2v
  Basis Set: CC-PVDZ
    Blend: CC-PVDZ
  Basis Set: (CC-PVDZ AUX)
    Blend: CC-PVDZ-JKFIT + DEF2-UNIVERSAL-JKFIT
  Basis Set: CC-PVDZ
    Blend: CC-PVDZ
  Basis Set: (CC-PVDZ AUX)
    Blend: CC-PVDZ-JKFIT + DEF2-UNIVERSAL-JKFIT
  @DF-UKS Final Energy:  -136.36099801483971
    Total Energy =                       -136.3609980148397085
  Basis Set: CC-PVDZ
    Blend: CC-PVDZ
  Basis Set: (CC-PVDZ AUX)
    Blend: CC-PVDZ-JKFIT + DEF2-UNIVERSAL-JKFIT
  Basis Set: CC-PVDZ
    Blend: CC-PVDZ
  @DF-UKS Final Energy:  -136.38388636130685
    Total Energy =                       -136.3838863613068497
  @DF-UKS Final Energy:  -136.39844980098661
    Total Energy =                       -136.3984498009866115
  @DF-UKS Final Energy:  -136.40399084714161
    Total Energy =                       -136.4039908471416140
  @DF-UKS Final Energy:  -136.40762239381402
    Total Energy =                       -136.4076223938140231
  @DF-UKS Final Energy:  -136.41008335299972
    Total Energy =                       -136.4100833529997203
  @DF-UKS Final Energy:  -136.41153016716169
    Total Energy =                       -136.4115301671616862
  @DF-UKS Final Energy:  -136.41245209498456
    Total Energy =                       -136.4124520949845589
  @DF-UKS Final Energy:  -136.41311033727035
    Total Energy =                       -136.4131103372703535
  @DF-UKS Final Energy:  -136.41357998549256
    Total Energy =                       -136.4135799854925608
  @DF-UKS Final Energy:  -136.41392784028730
    Total Energy =                       -136.4139278402873003
  @DF-UKS Final Energy:  -136.41406685872025
    Total Energy =                       -136.4140668587202470
  @DF-UKS Final Energy:  -136.41413189473954
    Total Energy =                       -136.4141318947395405
  @DF-UKS Final Energy:  -136.41416451433855
    Total Energy =                       -136.4141645143385517
  @DF-UKS Final Energy:  -136.41417771206696
    Total Energy =                       -136.4141777120669587
  @DF-UKS Final Energy:  -136.41418027653086
    Total Energy =                       -136.4141802765308569
  @DF-UKS Final Energy:  -136.41418221334990
    Total Energy =                       -136.4141822133499033
  Basis Set: (CC-PVDZ AUX)
    Blend: CC-PVDZ-JKFIT + DEF2-UNIVERSAL-JKFIT
  Basis Set: CC-PVDZ
    Blend: CC-PVDZ
  Basis Set: (CC-PVDZ AUX)
    Blend: CC-PVDZ-JKFIT + DEF2-UNIVERSAL-JKFIT
  @DF-UKS Final Energy:  -136.41418368396157
    Total Energy =                       -136.4141836839615678
  Basis Set: CC-PVDZ
    Blend: CC-PVDZ
  Basis Set: (CC-PVDZ AUX)
    Blend: CC-PVDZ-JKFIT + DEF2-UNIVERSAL-JKFIT
  Charge       = -1
  Multiplicity = 1
  Basis Set: CC-PVDZ
    Blend: CC-PVDZ
  Basis Set: (CC-PVDZ AUX)
    Blend: CC-PVDZ-JKFIT + DEF2-UNIVERSAL-JKFIT

    Orbital Energies [Eh]
    ---------------------

    Alpha Occupied:

       1A1   -30.833193     2A1    -1.805247     3A1    -1.296641
       4A1    -0.406231     1B1    -0.404786     1B2    -0.404786
       5A1     0.048059

    Alpha Virtual:

       2B1     0.113181     2B2     0.113181     6A1     0.118223
       3B2     0.235327     3B1     0.235327     7A1     0.236013
       8A1     0.240180     9A1     0.402784     1A2     0.402789
       4B1     0.403772     4B2     0.403772    10A1     0.419401
       5B1     1.507968     5B2     1.507968    11A1     1.558207
      12A1     2.078420     2A2     4.860619     6B1     4.860873
       6B2     4.860873    13A1     4.861172    14A1     4.862358

    Beta Occupied:

       1A1   -30.833193     2A1    -1.805247     3A1    -1.296641
       4A1    -0.406231     1B1    -0.404786     1B2    -0.404786
       5A1     0.048059

    Beta Virtual:

       2B1     0.113181     2B2     0.113181     6A1     0.118223
       3B2     0.235327     3B1     0.235327     7A1     0.236013
       8A1     0.240180     9A1     0.402784     1A2     0.402789
       4B1     0.403772     4B2     0.403772    10A1     0.419401
       5B1     1.507968     5B2     1.507968    11A1     1.558207
      12A1     2.078420     2A2     4.860619     6B1     4.860873
       6B2     4.860873    13A1     4.861172    14A1     4.862358

    Final Occupation by Irrep:
             A1    A2    B1    B2
    DOCC [     5,    0,    1,    1 ]
    SOCC [     0,    0,    0,    0 ]
    NA   [     5,    0,    1,    1 ]
    NB   [     5,    0,    1,    1 ]

  @DF-UKS Final Energy:  -136.41418464453960

   => Energetics <=

    Nuclear Repulsion Energy =              5.0500926503254115
    One-Electron Energy =                -204.3385799470258348
    Two-Electron Energy =                  74.5682127538583757
    DFT Exchange-Correlation Energy =     -11.6939101016975613
    Empirical Dispersion Energy =           0.0000000000000000
    VV10 Nonlocal Energy =                  0.0000000000000000
    Total Energy =                       -136.4141846445396027

  UHF NO Occupations:
  HONO-2 :    1 B2 2.0000000
  HONO-1 :    4 A1 2.0000000
  HONO-0 :    5 A1 2.0000000
  LUNO+0 :    6 A1 0.0000000
  LUNO+1 :    2 B2 0.0000000
  LUNO+2 :    2 B1 0.0000000
  LUNO+3 :    7 A1 0.0000000

Computation Completed

Properties will be evaluated at   0.000000,   0.000000,   0.000000 [a0]

Properties computed using the SCF density matrix

 Multipole Moments:

 ------------------------------------------------------------------------------------
     Multipole            Electronic (a.u.)      Nuclear  (a.u.)        Total (a.u.)
 ------------------------------------------------------------------------------------

 L = 1.  Multiply by 2.5417464519 to convert [e a0] to [Debye]
 Dipole X            :          0.0000000            0.0000000            0.0000000
 Dipole Y            :          0.0000000            0.0000000            0.0000000
 Dipole Z            :         -2.5889732           -2.2396796           -4.8286528
 Magnitude           :                                                    4.8286528

 ------------------------------------------------------------------------------------

*** tstop() called on Joses-MacBook-Pro-2.local at Thu Jul 17 09:31:14 2025
Module time:
	user time   =       2.36 seconds =       0.04 minutes
	system time =       3.00 seconds =       0.05 minutes
	total time  =          0 seconds =       0.00 minutes
Total time:
	user time   =      84.25 seconds =       1.40 minutes
	system time =      93.78 seconds =       1.56 minutes
	total time  =         17 seconds =       0.28 minutes

*** tstart() called on Joses-MacBook-Pro-2.local
*** at Thu Jul 17 09:31:14 2025

         ------------------------------------------------------------
                                   SCF GRAD
                          Rob Parrish, Justin Turney,
                       Andy Simmonett, and Alex Sokolov
         ------------------------------------------------------------

  ==> Geometry <==

    Molecular point group: c2v
    Full point group: C_inf_v

    Geometry (in Angstrom), charge = -1, multiplicity = 1:

       Center              X                  Y                   Z               Mass
    ------------   -----------------  -----------------  -----------------  -----------------
         LI           0.000000000000     0.000000000000     2.326961985529     7.016003436600
         NE           0.000000000000     0.000000000000    -0.816607334744    19.992440176200

  Nuclear repulsion =    5.050092650325412

  ==> Basis Set <==

  Basis Set: CC-PVDZ
    Blend: CC-PVDZ
    Number of shells: 12
    Number of basis functions: 28
    Number of Cartesian functions: 30
    Spherical Harmonics?: true
    Max angular momentum: 2

  ==> DFJKGrad: Density-Fitted SCF Gradients <==

    Gradient:                    1
    J tasked:                  Yes
    K tasked:                  Yes
    wK tasked:                  No
    OpenMP threads:              1
    Integrals threads:           1
    Memory [MiB]:              375
    Schwarz Cutoff:          1E-12
    Fitting Condition:       1E-10

   => Auxiliary Basis Set <=

  Basis Set: (CC-PVDZ AUX)
    Blend: CC-PVDZ-JKFIT + DEF2-UNIVERSAL-JKFIT
    Number of shells: 41
    Number of basis functions: 121
    Number of Cartesian functions: 141
    Spherical Harmonics?: true
    Max angular momentum: 3

  ==> DFT Potential <==

   => LibXC <=

    Version 6.2.2
    S. Lehtola, C. Steigemann, M. J.T. Oliveira, and M. A.L. Marques.,  SoftwareX 7, 1â€“5 (2018) (10.1016/j.softx.2017.11.002)

   => Composite Functional: B3LYP <=

    B3LYP Hyb-GGA Exchange-Correlation Functional

    P. J. Stephens, F. J. Devlin, C. F. Chabalowski, and M. J. Frisch.,  J. Phys. Chem. 98, 11623 (1994) (10.1021/j100096a001)

    Deriv               =              1
    GGA                 =           TRUE
    Meta                =          FALSE

    Exchange Hybrid     =           TRUE
    MP2 Hybrid          =          FALSE

   => Exchange Functionals <=

    0.0800   Slater exchange
    0.7200         Becke 88

   => Exact (HF) Exchange <=

    0.2000               HF

   => Correlation Functionals <=

    0.1900   Vosko, Wilk & Nusair (VWN5_RPA)
    0.8100   Lee, Yang & Parr

   => LibXC Density Thresholds  <==

    XC_HYB_GGA_XC_B3LYP:  1.00E-15

   => Molecular Quadrature <=

    Radial Scheme          =       TREUTLER
    Pruning Scheme         =           NONE
    Nuclear Scheme         =       TREUTLER

    Blocking Scheme        =         OCTREE
    BS radius alpha        =              1
    Pruning alpha          =              1
    Radial Points          =             75
    Spherical Points       =            302
    Total Points           =          44377
    Total Blocks           =            419
    Max Points             =            254
    Max Functions          =             28
    Weights Tolerance      =       1.00E-15

  -Total Gradient:
     Atom            X                  Y                   Z
    ------   -----------------  -----------------  -----------------
       1       -0.000000000000     0.000000000000     0.000013578003
       2        0.000000000000    -0.000000000000     0.000017927393

*** tstop() called on Joses-MacBook-Pro-2.local at Thu Jul 17 09:31:14 2025
Module time:
	user time   =       0.66 seconds =       0.01 minutes
	system time =       1.03 seconds =       0.02 minutes
	total time  =          0 seconds =       0.00 minutes
Total time:
	user time   =      84.91 seconds =       1.42 minutes
	system time =      94.81 seconds =       1.58 minutes
	total time  =         17 seconds =       0.28 minutes

    			-----------------------------------------

    			 OPTKING 3.0: for geometry optimizations

    			     By R.A. King, Bethel University

    			        with contributions from

    			    A.V. Copan, J. Cayton, A. Heide

    			-----------------------------------------

	                            ===> Fragment 1 <==

	 Z (Atomic Numbers)          Masses                          Geom
	       3.000000             7.016003          0.00000000  0.00000000  4.39732086
	      10.000000            19.992440          0.00000000  0.00000000 -1.54316421

	 - Coordinate -           - BOHR/RAD -       - ANG/DEG -
	 R(1,2)           =         5.940485           3.143569

	        --- Internal Coordinate Step in ANG or DEG, aJ/ANG or AJ/DEG ---
	-------------------------------------------------------------------------------
	           Coordinate      Previous         Force          Change          New
	           ----------      --------        ------          ------        ------
	               R(1,2)       3.14357        0.00002        0.00492       3.14848
	-------------------------------------------------------------------------------

	                                 ==> Convergence Check <==

	Measures of convergence in internal coordinates in au.

	Criteria marked as inactive (o), active & met (*), and active & unmet ( ).

	----------------------------------------------------------------------------------------------
	   Step    Total Energy     Delta E     Max Force     RMS Force      Max Disp      RMS Disp
	----------------------------------------------------------------------------------------------
	  Convergence Criteria     1.00e-06 *    3.00e-04 *             o    1.20e-03 *             o
	----------------------------------------------------------------------------------------------
	    20    -136.41418464   -9.61e-07 *    2.17e-06 *    2.17e-06 o    9.29e-03      9.29e-03 o  ~
	----------------------------------------------------------------------------------------------

Next Geometry in Ang
	Fragment 1 (Ang)

	   Li   0.0000000000   0.0000000000   2.3294197825
	   Ne   0.0000000000   0.0000000000  -0.8190651317

    Final optimized geometry and variables:
    Molecular point group: c2v
    Full point group: C_inf_v

    Geometry (in Angstrom), charge = -1, multiplicity = 1:

    LI           0.000000000000     0.000000000000     2.326961985529
    NE           0.000000000000     0.000000000000    -0.816607334744

    Psi4 stopped on: Thursday, 17 July 2025 09:31AM
    Psi4 wall time for execution: 0:00:18.16

*** Psi4 exiting successfully. Buy a developer a beer!
