                               Psi4 1.9.1 release

  ==> Input File <==

--------------------------------------------------------------------------
molecule {
-1 1
N   0.00000        0.60000        0.00000
Ne   0.00000       -0.60000        0.00000
}

set {
basis              cc-pvdz
reference          uks
maxiter            500
geom_maxiter       500
DAMPING_PERCENTAGE 1
guess              SAP
}

optimize('b3lyp')
--------------------------------------------------------------------------

    Molecular point group: c2v
  Charge       = -1
  Multiplicity = 1
  Basis Set: CC-PVDZ
    Blend: CC-PVDZ
  Basis Set: (CC-PVDZ AUX)
    Blend: CC-PVDZ-JKFIT
  @DF-UKS Final Energy:  -183.11489635226778
    Total Energy =                       -183.1148963522677775
 Dipole X            :          0.0000000            0.0000000            0.0000000
 Dipole Y            :          0.0000000            0.0000000            0.0000000
 Dipole Z            :         -2.4567601           -0.0055805           -2.4623405
 Magnitude           :                                                    2.4623405
    Molecular point group: c2v
  Basis Set: CC-PVDZ
    Blend: CC-PVDZ
  Basis Set: (CC-PVDZ AUX)
    Blend: CC-PVDZ-JKFIT
  Basis Set: CC-PVDZ
    Blend: CC-PVDZ
  Basis Set: (CC-PVDZ AUX)
    Blend: CC-PVDZ-JKFIT
  @DF-UKS Final Energy:  -183.25594225573025
    Total Energy =                       -183.2559422557302469
  Basis Set: CC-PVDZ
    Blend: CC-PVDZ
  Basis Set: (CC-PVDZ AUX)
    Blend: CC-PVDZ-JKFIT
  Basis Set: CC-PVDZ
    Blend: CC-PVDZ
  @DF-UKS Final Energy:  -183.30430202435335
    Total Energy =                       -183.3043020243533476
  @DF-UKS Final Energy:  -183.33384493752001
    Total Energy =                       -183.3338449375200412
  @DF-UKS Final Energy:  -183.34746347933623
    Total Energy =                       -183.3474634793362270
  @DF-UKS Final Energy:  -183.35405096271742
    Total Energy =                       -183.3540509627174515
  @DF-UKS Final Energy:  -183.35714857987156
    Total Energy =                       -183.3571485798715344
  @DF-UKS Final Energy:  -183.35852664326327
    Total Energy =                       -183.3585266432632750
  @DF-UKS Final Energy:  -183.35905282016469
    Total Energy =                       -183.3590528201646634
  @DF-UKS Final Energy:  -183.35918106175521
    Total Energy =                       -183.3591810617552085
  @DF-UKS Final Energy:  -183.35922715841662
    Total Energy =                       -183.3592271584166156
  @DF-UKS Final Energy:  -183.35923537031374
    Total Energy =                       -183.3592353703137405
  Basis Set: (CC-PVDZ AUX)
    Blend: CC-PVDZ-JKFIT
  Basis Set: CC-PVDZ
    Blend: CC-PVDZ
  Basis Set: (CC-PVDZ AUX)
    Blend: CC-PVDZ-JKFIT
  @DF-UKS Final Energy:  -183.35923695328532
    Total Energy =                       -183.3592369532853468
  Basis Set: CC-PVDZ
    Blend: CC-PVDZ
  Basis Set: (CC-PVDZ AUX)
    Blend: CC-PVDZ-JKFIT
  Charge       = -1
  Multiplicity = 1
  Basis Set: CC-PVDZ
    Blend: CC-PVDZ
  Basis Set: (CC-PVDZ AUX)
    Blend: CC-PVDZ-JKFIT

    Orbital Energies [Eh]
    ---------------------

    Alpha Occupied:

       1A1   -30.777319     2A1   -13.914242     3A1    -1.242407
       1B1    -0.351311     1B2    -0.351311     4A1    -0.351091
       5A1    -0.243795     2B2     0.194379     2B1     0.194379

    Alpha Virtual:

       6A1     0.258772     7A1     1.089593     3B2     1.116580
       3B1     1.116580     8A1     1.213514     4B1     1.551727
       4B2     1.551727     9A1     1.640756    10A1     2.062324
       5B2     2.198242     5B1     2.198242    11A1     2.221711
       1A2     2.238074    12A1     2.238079     2A2     4.914243
      13A1     4.914277     6B2     4.915407     6B1     4.915407
      14A1     4.918357

    Beta Occupied:

       1A1   -30.777319     2A1   -13.914242     3A1    -1.242407
       1B1    -0.351311     1B2    -0.351311     4A1    -0.351091
       5A1    -0.243795     2B2     0.194379     2B1     0.194379

    Beta Virtual:

       6A1     0.258772     7A1     1.089593     3B2     1.116580
       3B1     1.116580     8A1     1.213514     4B1     1.551727
       4B2     1.551727     9A1     1.640756    10A1     2.062324
       5B2     2.198242     5B1     2.198242    11A1     2.221711
       1A2     2.238074    12A1     2.238079     2A2     4.914243
      13A1     4.914277     6B2     4.915407     6B1     4.915407
      14A1     4.918357

    Final Occupation by Irrep:
             A1    A2    B1    B2
    DOCC [     5,    0,    2,    2 ]
    SOCC [     0,    0,    0,    0 ]
    NA   [     5,    0,    2,    2 ]
    NB   [     5,    0,    2,    2 ]

  @DF-UKS Final Energy:  -183.35923729292730

   => Energetics <=

    Nuclear Repulsion Energy =             14.4220251714729919
    One-Electron Energy =                -290.5092744182232991
    Two-Electron Energy =                 108.5717441204898250
    DFT Exchange-Correlation Energy =     -15.8437321666667863
    Empirical Dispersion Energy =           0.0000000000000000
    VV10 Nonlocal Energy =                  0.0000000000000000
    Total Energy =                       -183.3592372929273040

  UHF NO Occupations:
  HONO-2 :    5 A1 2.0000000
  HONO-1 :    2 B2 2.0000000
  HONO-0 :    2 B1 2.0000000
  LUNO+0 :    6 A1 0.0000000
  LUNO+1 :    7 A1 0.0000000
  LUNO+2 :    3 B1 0.0000000
  LUNO+3 :    3 B2 0.0000000

Computation Completed

Properties will be evaluated at   0.000000,   0.000000,   0.000000 [a0]

Properties computed using the SCF density matrix

 Multipole Moments:

 ------------------------------------------------------------------------------------
     Multipole            Electronic (a.u.)      Nuclear  (a.u.)        Total (a.u.)
 ------------------------------------------------------------------------------------

 L = 1.  Multiply by 2.5417464519 to convert [e a0] to [Debye]
 Dipole X            :          0.0000000            0.0000000            0.0000000
 Dipole Y            :          0.0000000            0.0000000            0.0000000
 Dipole Z            :         -2.8560560           -0.0119443           -2.8680003
 Magnitude           :                                                    2.8680003

 ------------------------------------------------------------------------------------

*** tstop() called on Joses-MacBook-Pro-2.local at Thu Jul 17 10:27:24 2025
Module time:
	user time   =       3.19 seconds =       0.05 minutes
	system time =       1.55 seconds =       0.03 minutes
	total time  =          0 seconds =       0.00 minutes
Total time:
	user time   =      63.95 seconds =       1.07 minutes
	system time =      51.07 seconds =       0.85 minutes
	total time  =         12 seconds =       0.20 minutes

*** tstart() called on Joses-MacBook-Pro-2.local
*** at Thu Jul 17 10:27:24 2025

         ------------------------------------------------------------
                                   SCF GRAD
                          Rob Parrish, Justin Turney,
                       Andy Simmonett, and Alex Sokolov
         ------------------------------------------------------------

  ==> Geometry <==

    Molecular point group: c2v
    Full point group: C_inf_v

    Geometry (in Angstrom), charge = -1, multiplicity = 1:

       Center              X                  Y                   Z               Mass
    ------------   -----------------  -----------------  -----------------  -----------------
         N            0.000000000000     0.000000000000     1.510487426367    14.003074004430
         NE           0.000000000000     0.000000000000    -1.057973265282    19.992440176200

  Nuclear repulsion =   14.422025171472992

  ==> Basis Set <==

  Basis Set: CC-PVDZ
    Blend: CC-PVDZ
    Number of shells: 12
    Number of basis functions: 28
    Number of Cartesian functions: 30
    Spherical Harmonics?: true
    Max angular momentum: 2

  ==> DFJKGrad: Density-Fitted SCF Gradients <==

    Gradient:                    1
    J tasked:                  Yes
    K tasked:                  Yes
    wK tasked:                  No
    OpenMP threads:              1
    Integrals threads:           1
    Memory [MiB]:              375
    Schwarz Cutoff:          1E-12
    Fitting Condition:       1E-10

   => Auxiliary Basis Set <=

  Basis Set: (CC-PVDZ AUX)
    Blend: CC-PVDZ-JKFIT
    Number of shells: 48
    Number of basis functions: 140
    Number of Cartesian functions: 162
    Spherical Harmonics?: true
    Max angular momentum: 3

  ==> DFT Potential <==

   => LibXC <=

    Version 6.2.2
    S. Lehtola, C. Steigemann, M. J.T. Oliveira, and M. A.L. Marques.,  SoftwareX 7, 1â€“5 (2018) (10.1016/j.softx.2017.11.002)

   => Composite Functional: B3LYP <=

    B3LYP Hyb-GGA Exchange-Correlation Functional

    P. J. Stephens, F. J. Devlin, C. F. Chabalowski, and M. J. Frisch.,  J. Phys. Chem. 98, 11623 (1994) (10.1021/j100096a001)

    Deriv               =              1
    GGA                 =           TRUE
    Meta                =          FALSE

    Exchange Hybrid     =           TRUE
    MP2 Hybrid          =          FALSE

   => Exchange Functionals <=

    0.0800   Slater exchange
    0.7200         Becke 88

   => Exact (HF) Exchange <=

    0.2000               HF

   => Correlation Functionals <=

    0.1900   Vosko, Wilk & Nusair (VWN5_RPA)
    0.8100   Lee, Yang & Parr

   => LibXC Density Thresholds  <==

    XC_HYB_GGA_XC_B3LYP:  1.00E-15

   => Molecular Quadrature <=

    Radial Scheme          =       TREUTLER
    Pruning Scheme         =           NONE
    Nuclear Scheme         =       TREUTLER

    Blocking Scheme        =         OCTREE
    BS radius alpha        =              1
    Pruning alpha          =              1
    Radial Points          =             75
    Spherical Points       =            302
    Total Points           =          42870
    Total Blocks           =            383
    Max Points             =            251
    Max Functions          =             28
    Weights Tolerance      =       1.00E-15

  -Total Gradient:
     Atom            X                  Y                   Z
    ------   -----------------  -----------------  -----------------
       1        0.000000000000    -0.000000000000    -0.000018540755
       2        0.000000000000     0.000000000000     0.000018772301

*** tstop() called on Joses-MacBook-Pro-2.local at Thu Jul 17 10:27:24 2025
Module time:
	user time   =       0.72 seconds =       0.01 minutes
	system time =       0.86 seconds =       0.01 minutes
	total time  =          0 seconds =       0.00 minutes
Total time:
	user time   =      64.67 seconds =       1.08 minutes
	system time =      51.93 seconds =       0.87 minutes
	total time  =         12 seconds =       0.20 minutes

    			-----------------------------------------

    			 OPTKING 3.0: for geometry optimizations

    			     By R.A. King, Bethel University

    			        with contributions from

    			    A.V. Copan, J. Cayton, A. Heide

    			-----------------------------------------

	                            ===> Fragment 1 <==

	 Z (Atomic Numbers)          Masses                          Geom
	       7.000000            14.003074          0.00000000  0.00000000  2.85440755
	      10.000000            19.992440          0.00000000  0.00000000 -1.99927972

	 - Coordinate -           - BOHR/RAD -       - ANG/DEG -
	 R(1,2)           =         4.853687           2.568461

	        --- Internal Coordinate Step in ANG or DEG, aJ/ANG or AJ/DEG ---
	-------------------------------------------------------------------------------
	           Coordinate      Previous         Force          Change          New
	           ----------      --------        ------          ------        ------
	               R(1,2)       2.56846        0.00015        0.00193       2.57039
	-------------------------------------------------------------------------------

	                                 ==> Convergence Check <==

	Measures of convergence in internal coordinates in au.

	Criteria marked as inactive (o), active & met (*), and active & unmet ( ).

	----------------------------------------------------------------------------------------------
	   Step    Total Energy     Delta E     Max Force     RMS Force      Max Disp      RMS Disp
	----------------------------------------------------------------------------------------------
	  Convergence Criteria     1.00e-06 *    3.00e-04 *             o    1.20e-03 *             o
	----------------------------------------------------------------------------------------------
	    14    -183.35923729   -3.40e-07 *    1.87e-05 *    1.87e-05 o    3.65e-03      3.65e-03 o  ~
	----------------------------------------------------------------------------------------------

Next Geometry in Ang
	Fragment 1 (Ang)

	    N   0.0000000000   0.0000000000   1.5114525609
	   Ne   0.0000000000   0.0000000000  -1.0589383999

    Final optimized geometry and variables:
    Molecular point group: c2v
    Full point group: C_inf_v

    Geometry (in Angstrom), charge = -1, multiplicity = 1:

    N            0.000000000000     0.000000000000     1.510487426367
    NE           0.000000000000     0.000000000000    -1.057973265282

    Psi4 stopped on: Thursday, 17 July 2025 10:27AM
    Psi4 wall time for execution: 0:00:12.59

*** Psi4 exiting successfully. Buy a developer a beer!
