                               Psi4 1.9.1 release

  ==> Input File <==

--------------------------------------------------------------------------
molecule {
-1 1
Li   0.00000        0.60000        0.00000
Si   0.00000       -0.60000        0.00000
}

set {
basis              cc-pvdz
reference          uks
maxiter            500
geom_maxiter       500
DAMPING_PERCENTAGE 1
guess              SAP
}

optimize('b3lyp')
--------------------------------------------------------------------------

    Molecular point group: c2v
  Charge       = -1
  Multiplicity = 1
  Basis Set: CC-PVDZ
    Blend: CC-PVDZ
  Basis Set: (CC-PVDZ AUX)
    Blend: CC-PVDZ-JKFIT + DEF2-UNIVERSAL-JKFIT
  @DF-UKS Final Energy:  -296.58569760182911
    Total Energy =                       -296.5856976018291107
 Dipole X            :          0.0000000            0.0000000            0.0000000
 Dipole Y            :          0.0000000            0.0000000            0.0000000
 Dipole Z            :          0.5644305           -0.9262567           -0.3618262
 Magnitude           :                                                    0.3618262
    Molecular point group: c2v
  Basis Set: CC-PVDZ
    Blend: CC-PVDZ
  Basis Set: (CC-PVDZ AUX)
    Blend: CC-PVDZ-JKFIT + DEF2-UNIVERSAL-JKFIT
  Basis Set: CC-PVDZ
    Blend: CC-PVDZ
  Basis Set: (CC-PVDZ AUX)
    Blend: CC-PVDZ-JKFIT + DEF2-UNIVERSAL-JKFIT
  @DF-UKS Final Energy:  -296.65190107390976
    Total Energy =                       -296.6519010739098121
  Basis Set: CC-PVDZ
    Blend: CC-PVDZ
  Basis Set: (CC-PVDZ AUX)
    Blend: CC-PVDZ-JKFIT + DEF2-UNIVERSAL-JKFIT
  Basis Set: CC-PVDZ
    Blend: CC-PVDZ
  @DF-UKS Final Energy:  -296.73054821784285
    Total Energy =                       -296.7305482178428520
  @DF-UKS Final Energy:  -296.82280004188641
    Total Energy =                       -296.8228000418864099
  @DF-UKS Final Energy:  -296.86687779992440
    Total Energy =                       -296.8668777999243957
  @DF-UKS Final Energy:  -296.88453087988444
    Total Energy =                       -296.8845308798844371
  @DF-UKS Final Energy:  -296.89033268540845
    Total Energy =                       -296.8903326854084526
  @DF-UKS Final Energy:  -296.89164009010835
    Total Energy =                       -296.8916400901084103
  @DF-UKS Final Energy:  -296.89177150494237
    Total Energy =                       -296.8917715049424260
  @DF-UKS Final Energy:  -296.89178565326597
    Total Energy =                       -296.8917856532659130
  Basis Set: (CC-PVDZ AUX)
    Blend: CC-PVDZ-JKFIT + DEF2-UNIVERSAL-JKFIT
  Basis Set: CC-PVDZ
    Blend: CC-PVDZ
  Basis Set: (CC-PVDZ AUX)
    Blend: CC-PVDZ-JKFIT + DEF2-UNIVERSAL-JKFIT
  @DF-UKS Final Energy:  -296.89178722983047
    Total Energy =                       -296.8917872298304701
  Basis Set: CC-PVDZ
    Blend: CC-PVDZ
  Basis Set: (CC-PVDZ AUX)
    Blend: CC-PVDZ-JKFIT + DEF2-UNIVERSAL-JKFIT
  Charge       = -1
  Multiplicity = 1
  Basis Set: CC-PVDZ
    Blend: CC-PVDZ
  Basis Set: (CC-PVDZ AUX)
    Blend: CC-PVDZ-JKFIT + DEF2-UNIVERSAL-JKFIT

    Orbital Energies [Eh]
    ---------------------

    Alpha Occupied:

       1A1   -65.940914     2A1    -5.082546     3A1    -3.448078
       1B2    -3.436508     1B1    -3.436508     4A1    -1.890105
       5A1    -0.219920     2B2     0.034017     2B1     0.034017

    Alpha Virtual:

       6A1     0.043693     7A1     0.082572     3B2     0.133117
       3B1     0.133117     8A1     0.146443     9A1     0.207954
       4B1     0.212338     4B2     0.212338    10A1     0.361448
       1A2     0.373447    11A1     0.373447     5B2     0.405555
       5B1     0.405555    12A1     0.449067     6B2     0.545610
       6B1     0.545610    13A1     0.559239    14A1     0.621194
       2A2     0.621195    15A1     0.703938     7B1     0.740582
       7B2     0.740582    16A1     1.171475

    Beta Occupied:

       1A1   -65.940914     2A1    -5.082546     3A1    -3.448078
       1B2    -3.436508     1B1    -3.436508     4A1    -1.890105
       5A1    -0.219920     2B2     0.034017     2B1     0.034017

    Beta Virtual:

       6A1     0.043693     7A1     0.082572     3B2     0.133117
       3B1     0.133117     8A1     0.146443     9A1     0.207954
       4B1     0.212338     4B2     0.212338    10A1     0.361448
       1A2     0.373447    11A1     0.373447     5B2     0.405555
       5B1     0.405555    12A1     0.449067     6B2     0.545610
       6B1     0.545610    13A1     0.559239    14A1     0.621194
       2A2     0.621195    15A1     0.703938     7B1     0.740582
       7B2     0.740582    16A1     1.171475

    Final Occupation by Irrep:
             A1    A2    B1    B2
    DOCC [     5,    0,    2,    2 ]
    SOCC [     0,    0,    0,    0 ]
    NA   [     5,    0,    2,    2 ]
    NB   [     5,    0,    2,    2 ]

  @DF-UKS Final Energy:  -296.89178741767466

   => Energetics <=

    Nuclear Repulsion Energy =             10.1855172076002809
    One-Electron Energy =                -434.2495991128586184
    Two-Electron Energy =                 145.5733654187216644
    DFT Exchange-Correlation Energy =     -18.4010709311379905
    Empirical Dispersion Energy =           0.0000000000000000
    VV10 Nonlocal Energy =                  0.0000000000000000
    Total Energy =                       -296.8917874176746636

  UHF NO Occupations:
  HONO-2 :    2 B2 2.0000000
  HONO-1 :    4 A1 2.0000000
  HONO-0 :    5 A1 2.0000000
  LUNO+0 :    6 A1 0.0000000
  LUNO+1 :    7 A1 0.0000000
  LUNO+2 :    3 B1 0.0000000
  LUNO+3 :    8 A1 0.0000000

Computation Completed

Properties will be evaluated at   0.000000,   0.000000,   0.000000 [a0]

Properties computed using the SCF density matrix

 Multipole Moments:

 ------------------------------------------------------------------------------------
     Multipole            Electronic (a.u.)      Nuclear  (a.u.)        Total (a.u.)
 ------------------------------------------------------------------------------------

 L = 1.  Multiply by 2.5417464519 to convert [e a0] to [Debye]
 Dipole X            :          0.0000000            0.0000000            0.0000000
 Dipole Y            :          0.0000000            0.0000000            0.0000000
 Dipole Z            :          1.4728143           -1.6842922           -0.2114780
 Magnitude           :                                                    0.2114780

 ------------------------------------------------------------------------------------

*** tstop() called on Joses-MacBook-Pro-2.local at Thu Jul 17 09:34:09 2025
Module time:
	user time   =       4.07 seconds =       0.07 minutes
	system time =       3.15 seconds =       0.05 minutes
	total time  =          1 seconds =       0.02 minutes
Total time:
	user time   =      60.77 seconds =       1.01 minutes
	system time =      65.40 seconds =       1.09 minutes
	total time  =         12 seconds =       0.20 minutes

*** tstart() called on Joses-MacBook-Pro-2.local
*** at Thu Jul 17 09:34:09 2025

         ------------------------------------------------------------
                                   SCF GRAD
                          Rob Parrish, Justin Turney,
                       Andy Simmonett, and Alex Sokolov
         ------------------------------------------------------------

  ==> Geometry <==

    Molecular point group: c2v
    Full point group: C_inf_v

    Geometry (in Angstrom), charge = -1, multiplicity = 1:

       Center              X                  Y                   Z               Mass
    ------------   -----------------  -----------------  -----------------  -----------------
         LI           0.000000000000     0.000000000000     1.744564501284     7.016003436600
         SI           0.000000000000     0.000000000000    -0.437498755313    27.976926534650

  Nuclear repulsion =   10.185517207600281

  ==> Basis Set <==

  Basis Set: CC-PVDZ
    Blend: CC-PVDZ
    Number of shells: 14
    Number of basis functions: 32
    Number of Cartesian functions: 34
    Spherical Harmonics?: true
    Max angular momentum: 2

  ==> DFJKGrad: Density-Fitted SCF Gradients <==

    Gradient:                    1
    J tasked:                  Yes
    K tasked:                  Yes
    wK tasked:                  No
    OpenMP threads:              1
    Integrals threads:           1
    Memory [MiB]:              375
    Schwarz Cutoff:          1E-12
    Fitting Condition:       1E-10

   => Auxiliary Basis Set <=

  Basis Set: (CC-PVDZ AUX)
    Blend: CC-PVDZ-JKFIT + DEF2-UNIVERSAL-JKFIT
    Number of shells: 53
    Number of basis functions: 163
    Number of Cartesian functions: 190
    Spherical Harmonics?: true
    Max angular momentum: 3

  ==> DFT Potential <==

   => LibXC <=

    Version 6.2.2
    S. Lehtola, C. Steigemann, M. J.T. Oliveira, and M. A.L. Marques.,  SoftwareX 7, 1â€“5 (2018) (10.1016/j.softx.2017.11.002)

   => Composite Functional: B3LYP <=

    B3LYP Hyb-GGA Exchange-Correlation Functional

    P. J. Stephens, F. J. Devlin, C. F. Chabalowski, and M. J. Frisch.,  J. Phys. Chem. 98, 11623 (1994) (10.1021/j100096a001)

    Deriv               =              1
    GGA                 =           TRUE
    Meta                =          FALSE

    Exchange Hybrid     =           TRUE
    MP2 Hybrid          =          FALSE

   => Exchange Functionals <=

    0.0800   Slater exchange
    0.7200         Becke 88

   => Exact (HF) Exchange <=

    0.2000               HF

   => Correlation Functionals <=

    0.1900   Vosko, Wilk & Nusair (VWN5_RPA)
    0.8100   Lee, Yang & Parr

   => LibXC Density Thresholds  <==

    XC_HYB_GGA_XC_B3LYP:  1.00E-15

   => Molecular Quadrature <=

    Radial Scheme          =       TREUTLER
    Pruning Scheme         =           NONE
    Nuclear Scheme         =       TREUTLER

    Blocking Scheme        =         OCTREE
    BS radius alpha        =              1
    Pruning alpha          =              1
    Radial Points          =             75
    Spherical Points       =            302
    Total Points           =          44101
    Total Blocks           =            437
    Max Points             =            255
    Max Functions          =             32
    Weights Tolerance      =       1.00E-15

  -Total Gradient:
     Atom            X                  Y                   Z
    ------   -----------------  -----------------  -----------------
       1        0.000000000000     0.000000000000    -0.000035468744
       2        0.000000000000     0.000000000000     0.000017949391

*** tstop() called on Joses-MacBook-Pro-2.local at Thu Jul 17 09:34:09 2025
Module time:
	user time   =       0.76 seconds =       0.01 minutes
	system time =       1.95 seconds =       0.03 minutes
	total time  =          0 seconds =       0.00 minutes
Total time:
	user time   =      61.53 seconds =       1.03 minutes
	system time =      67.35 seconds =       1.12 minutes
	total time  =         12 seconds =       0.20 minutes

    			-----------------------------------------

    			 OPTKING 3.0: for geometry optimizations

    			     By R.A. King, Bethel University

    			        with contributions from

    			    A.V. Copan, J. Cayton, A. Heide

    			-----------------------------------------

	                            ===> Fragment 1 <==

	 Z (Atomic Numbers)          Masses                          Geom
	       3.000000             7.016003          0.00000000  0.00000000  3.29674912
	      14.000000            27.976927          0.00000000  0.00000000 -0.82675283

	 - Coordinate -           - BOHR/RAD -       - ANG/DEG -
	 R(1,2)           =         4.123502           2.182063

	        --- Internal Coordinate Step in ANG or DEG, aJ/ANG or AJ/DEG ---
	-------------------------------------------------------------------------------
	           Coordinate      Previous         Force          Change          New
	           ----------      --------        ------          ------        ------
	               R(1,2)       2.18206        0.00022        0.00025       2.18232
	-------------------------------------------------------------------------------

	                                 ==> Convergence Check <==

	Measures of convergence in internal coordinates in au.

	Criteria marked as inactive (o), active & met (*), and active & unmet ( ).

	----------------------------------------------------------------------------------------------
	   Step    Total Energy     Delta E     Max Force     RMS Force      Max Disp      RMS Disp
	----------------------------------------------------------------------------------------------
	  Convergence Criteria     1.00e-06 *    3.00e-04 *             o    1.20e-03 *             o
	----------------------------------------------------------------------------------------------
	    12    -296.89178742   -1.88e-07 *    2.67e-05 *    2.67e-05 o    4.76e-04 *    4.76e-04 o  ~
	----------------------------------------------------------------------------------------------

Next Geometry in Ang
	Fragment 1 (Ang)

	   Li   0.0000000000   0.0000000000   1.7446905689
	   Si   0.0000000000   0.0000000000  -0.4376248229

    Final optimized geometry and variables:
    Molecular point group: c2v
    Full point group: C_inf_v

    Geometry (in Angstrom), charge = -1, multiplicity = 1:

    LI           0.000000000000     0.000000000000     1.744564501284
    SI           0.000000000000     0.000000000000    -0.437498755313

    Psi4 stopped on: Thursday, 17 July 2025 09:34AM
    Psi4 wall time for execution: 0:00:12.99

*** Psi4 exiting successfully. Buy a developer a beer!
