                               Psi4 1.9.1 release

  ==> Input File <==

--------------------------------------------------------------------------
molecule {
-1 1
Be   0.00000        0.60000        0.00000
Cl   0.00000       -0.60000        0.00000
}

set {
basis              cc-pvdz
reference          uks
maxiter            500
geom_maxiter       500
DAMPING_PERCENTAGE 1
guess              SAP
}

optimize('b3lyp')
--------------------------------------------------------------------------

    Molecular point group: c2v
  Charge       = -1
  Multiplicity = 1
  Basis Set: CC-PVDZ
    Blend: CC-PVDZ
  Basis Set: (CC-PVDZ AUX)
    Blend: CC-PVDZ-JKFIT + DEF2-UNIVERSAL-JKFIT
  @DF-UKS Final Energy:  -474.58096311074058
    Total Energy =                       -474.5809631107405835
 Dipole X            :          0.0000000            0.0000000            0.0000000
 Dipole Y            :          0.0000000            0.0000000            0.0000000
 Dipole Z            :         -2.3967617           -0.6873853           -3.0841470
 Magnitude           :                                                    3.0841470
    Molecular point group: c2v
  Basis Set: CC-PVDZ
    Blend: CC-PVDZ
  Basis Set: (CC-PVDZ AUX)
    Blend: CC-PVDZ-JKFIT + DEF2-UNIVERSAL-JKFIT
  Basis Set: CC-PVDZ
    Blend: CC-PVDZ
  Basis Set: (CC-PVDZ AUX)
    Blend: CC-PVDZ-JKFIT + DEF2-UNIVERSAL-JKFIT
  @DF-UKS Final Energy:  -474.78885447702476
    Total Energy =                       -474.7888544770247563
  Basis Set: CC-PVDZ
    Blend: CC-PVDZ
  Basis Set: (CC-PVDZ AUX)
    Blend: CC-PVDZ-JKFIT + DEF2-UNIVERSAL-JKFIT
  Basis Set: CC-PVDZ
    Blend: CC-PVDZ
  @DF-UKS Final Energy:  -474.91059049807109
    Total Energy =                       -474.9105904980710875
  @DF-UKS Final Energy:  -474.96827798296692
    Total Energy =                       -474.9682779829669244
  @DF-UKS Final Energy:  -474.99381739199691
    Total Energy =                       -474.9938173919969131
  @DF-UKS Final Energy:  -475.00190169957636
    Total Energy =                       -475.0019016995763650
  @DF-UKS Final Energy:  -475.00598078458063
    Total Energy =                       -475.0059807845805722
  @DF-UKS Final Energy:  -475.00749911460559
    Total Energy =                       -475.0074991146056504
  @DF-UKS Final Energy:  -475.00780029807697
    Total Energy =                       -475.0078002980770293
  @DF-UKS Final Energy:  -475.00786812875958
    Total Energy =                       -475.0078681287595828
  @DF-UKS Final Energy:  -475.00788664024441
    Total Energy =                       -475.0078866402443509
  Basis Set: (CC-PVDZ AUX)
    Blend: CC-PVDZ-JKFIT + DEF2-UNIVERSAL-JKFIT
  Basis Set: CC-PVDZ
    Blend: CC-PVDZ
  Basis Set: (CC-PVDZ AUX)
    Blend: CC-PVDZ-JKFIT + DEF2-UNIVERSAL-JKFIT
  @DF-UKS Final Energy:  -475.00788955221697
    Total Energy =                       -475.0078895522169660
  Basis Set: CC-PVDZ
    Blend: CC-PVDZ
  Basis Set: (CC-PVDZ AUX)
    Blend: CC-PVDZ-JKFIT + DEF2-UNIVERSAL-JKFIT
  Charge       = -1
  Multiplicity = 1
  Basis Set: CC-PVDZ
    Blend: CC-PVDZ
  Basis Set: (CC-PVDZ AUX)
    Blend: CC-PVDZ-JKFIT + DEF2-UNIVERSAL-JKFIT

    Orbital Energies [Eh]
    ---------------------

    Alpha Occupied:

       1A1  -101.308849     2A1    -9.227459     3A1    -6.984748
       1B1    -6.982977     1B2    -6.982977     4A1    -3.827007
       5A1    -0.584957     6A1    -0.169991     2B1    -0.115964
       2B2    -0.115964     7A1     0.045461

    Alpha Virtual:

       3B1     0.177185     3B2     0.177185     8A1     0.244837
       4B1     0.396415     4B2     0.396415     9A1     0.398899
      10A1     0.435866    11A1     0.640975     5B1     0.677116
       5B2     0.677116    12A1     0.694380     1A2     0.694380
       6B1     0.786187     6B2     0.786187    13A1     0.968522
       2A2     0.969807    14A1     0.969808    15A1     1.042807
       7B1     1.143994     7B2     1.143994    16A1     1.428685

    Beta Occupied:

       1A1  -101.308849     2A1    -9.227459     3A1    -6.984748
       1B2    -6.982977     1B1    -6.982977     4A1    -3.827007
       5A1    -0.584957     6A1    -0.169991     2B1    -0.115964
       2B2    -0.115964     7A1     0.045461

    Beta Virtual:

       3B1     0.177185     3B2     0.177185     8A1     0.244837
       4B1     0.396415     4B2     0.396415     9A1     0.398899
      10A1     0.435866    11A1     0.640975     5B1     0.677116
       5B2     0.677116    12A1     0.694380     1A2     0.694380
       6B1     0.786187     6B2     0.786187    13A1     0.968522
       2A2     0.969807    14A1     0.969808    15A1     1.042807
       7B1     1.143994     7B2     1.143994    16A1     1.428685

    Final Occupation by Irrep:
             A1    A2    B1    B2
    DOCC [     7,    0,    2,    2 ]
    SOCC [     0,    0,    0,    0 ]
    NA   [     7,    0,    2,    2 ]
    NB   [     7,    0,    2,    2 ]

  @DF-UKS Final Energy:  -475.00788973433635

   => Energetics <=

    Nuclear Repulsion Energy =             18.0250742099628489
    One-Electron Energy =                -695.6071375952113840
    Two-Electron Energy =                 227.7902731686817788
    DFT Exchange-Correlation Energy =     -25.2160995177696527
    Empirical Dispersion Energy =           0.0000000000000000
    VV10 Nonlocal Energy =                  0.0000000000000000
    Total Energy =                       -475.0078897343363451

  UHF NO Occupations:
  HONO-2 :    2 B1 2.0000000
  HONO-1 :    2 B2 2.0000000
  HONO-0 :    7 A1 2.0000000
  LUNO+0 :    8 A1 0.0000000
  LUNO+1 :    3 B2 0.0000000
  LUNO+2 :    9 A1 0.0000000
  LUNO+3 :    4 B2 0.0000000

Computation Completed

Properties will be evaluated at   0.000000,   0.000000,   0.000000 [a0]

Properties computed using the SCF density matrix

 Multipole Moments:

 ------------------------------------------------------------------------------------
     Multipole            Electronic (a.u.)      Nuclear  (a.u.)        Total (a.u.)
 ------------------------------------------------------------------------------------

 L = 1.  Multiply by 2.5417464519 to convert [e a0] to [Debye]
 Dipole X            :          0.0000000            0.0000000            0.0000000
 Dipole Y            :          0.0000000            0.0000000            0.0000000
 Dipole Z            :         -1.5532535           -1.1435416           -2.6967951
 Magnitude           :                                                    2.6967951

 ------------------------------------------------------------------------------------

*** tstop() called on Joses-MacBook-Pro-2.local at Thu Jul 17 09:47:10 2025
Module time:
	user time   =       2.73 seconds =       0.05 minutes
	system time =       3.92 seconds =       0.07 minutes
	total time  =          0 seconds =       0.00 minutes
Total time:
	user time   =      53.27 seconds =       0.89 minutes
	system time =      76.49 seconds =       1.27 minutes
	total time  =         12 seconds =       0.20 minutes

*** tstart() called on Joses-MacBook-Pro-2.local
*** at Thu Jul 17 09:47:10 2025

         ------------------------------------------------------------
                                   SCF GRAD
                          Rob Parrish, Justin Turney,
                       Andy Simmonett, and Alex Sokolov
         ------------------------------------------------------------

  ==> Geometry <==

    Molecular point group: c2v
    Full point group: C_inf_v

    Geometry (in Angstrom), charge = -1, multiplicity = 1:

       Center              X                  Y                   Z               Mass
    ------------   -----------------  -----------------  -----------------  -----------------
         BE           0.000000000000     0.000000000000     1.587263080778     9.012183065000
         CL           0.000000000000     0.000000000000    -0.409069911054    34.968852682000

  Nuclear repulsion =   18.025074209962849

  ==> Basis Set <==

  Basis Set: CC-PVDZ
    Blend: CC-PVDZ
    Number of shells: 14
    Number of basis functions: 32
    Number of Cartesian functions: 34
    Spherical Harmonics?: true
    Max angular momentum: 2

  ==> DFJKGrad: Density-Fitted SCF Gradients <==

    Gradient:                    1
    J tasked:                  Yes
    K tasked:                  Yes
    wK tasked:                  No
    OpenMP threads:              1
    Integrals threads:           1
    Memory [MiB]:              375
    Schwarz Cutoff:          1E-12
    Fitting Condition:       1E-10

   => Auxiliary Basis Set <=

  Basis Set: (CC-PVDZ AUX)
    Blend: CC-PVDZ-JKFIT + DEF2-UNIVERSAL-JKFIT
    Number of shells: 53
    Number of basis functions: 163
    Number of Cartesian functions: 190
    Spherical Harmonics?: true
    Max angular momentum: 3

  ==> DFT Potential <==

   => LibXC <=

    Version 6.2.2
    S. Lehtola, C. Steigemann, M. J.T. Oliveira, and M. A.L. Marques.,  SoftwareX 7, 1â€“5 (2018) (10.1016/j.softx.2017.11.002)

   => Composite Functional: B3LYP <=

    B3LYP Hyb-GGA Exchange-Correlation Functional

    P. J. Stephens, F. J. Devlin, C. F. Chabalowski, and M. J. Frisch.,  J. Phys. Chem. 98, 11623 (1994) (10.1021/j100096a001)

    Deriv               =              1
    GGA                 =           TRUE
    Meta                =          FALSE

    Exchange Hybrid     =           TRUE
    MP2 Hybrid          =          FALSE

   => Exchange Functionals <=

    0.0800   Slater exchange
    0.7200         Becke 88

   => Exact (HF) Exchange <=

    0.2000               HF

   => Correlation Functionals <=

    0.1900   Vosko, Wilk & Nusair (VWN5_RPA)
    0.8100   Lee, Yang & Parr

   => LibXC Density Thresholds  <==

    XC_HYB_GGA_XC_B3LYP:  1.00E-15

   => Molecular Quadrature <=

    Radial Scheme          =       TREUTLER
    Pruning Scheme         =           NONE
    Nuclear Scheme         =       TREUTLER

    Blocking Scheme        =         OCTREE
    BS radius alpha        =              1
    Pruning alpha          =              1
    Radial Points          =             75
    Spherical Points       =            302
    Total Points           =          42759
    Total Blocks           =            398
    Max Points             =            255
    Max Functions          =             32
    Weights Tolerance      =       1.00E-15

  -Total Gradient:
     Atom            X                  Y                   Z
    ------   -----------------  -----------------  -----------------
       1        0.000000000000     0.000000000000    -0.000011456590
       2        0.000000000000     0.000000000000     0.000032031422

*** tstop() called on Joses-MacBook-Pro-2.local at Thu Jul 17 09:47:11 2025
Module time:
	user time   =       0.85 seconds =       0.01 minutes
	system time =       1.69 seconds =       0.03 minutes
	total time  =          1 seconds =       0.02 minutes
Total time:
	user time   =      54.12 seconds =       0.90 minutes
	system time =      78.18 seconds =       1.30 minutes
	total time  =         13 seconds =       0.22 minutes

    			-----------------------------------------

    			 OPTKING 3.0: for geometry optimizations

    			     By R.A. King, Bethel University

    			        with contributions from

    			    A.V. Copan, J. Cayton, A. Heide

    			-----------------------------------------

	                            ===> Fragment 1 <==

	 Z (Atomic Numbers)          Masses                          Geom
	       4.000000             9.012183          0.00000000  0.00000000  2.99949251
	      17.000000            34.968853          0.00000000  0.00000000 -0.77303010

	 - Coordinate -           - BOHR/RAD -       - ANG/DEG -
	 R(1,2)           =         3.772523           1.996333

	        --- Internal Coordinate Step in ANG or DEG, aJ/ANG or AJ/DEG ---
	-------------------------------------------------------------------------------
	           Coordinate      Previous         Force          Change          New
	           ----------      --------        ------          ------        ------
	               R(1,2)       1.99633        0.00018        0.00015       1.99648
	-------------------------------------------------------------------------------

	                                 ==> Convergence Check <==

	Measures of convergence in internal coordinates in au.

	Criteria marked as inactive (o), active & met (*), and active & unmet ( ).

	----------------------------------------------------------------------------------------------
	   Step    Total Energy     Delta E     Max Force     RMS Force      Max Disp      RMS Disp
	----------------------------------------------------------------------------------------------
	  Convergence Criteria     1.00e-06 *    3.00e-04 *             o    1.20e-03 *             o
	----------------------------------------------------------------------------------------------
	    13    -475.00788973   -1.82e-07 *    2.17e-05 *    2.17e-05 o    2.81e-04 *    2.81e-04 o  ~
	----------------------------------------------------------------------------------------------

Next Geometry in Ang
	Fragment 1 (Ang)

	   Be   0.0000000000   0.0000000000   1.5873373881
	   Cl   0.0000000000   0.0000000000  -0.4091442184

    Final optimized geometry and variables:
    Molecular point group: c2v
    Full point group: C_inf_v

    Geometry (in Angstrom), charge = -1, multiplicity = 1:

    BE           0.000000000000     0.000000000000     1.587263080778
    CL           0.000000000000     0.000000000000    -0.409069911054

    Psi4 stopped on: Thursday, 17 July 2025 09:47AM
    Psi4 wall time for execution: 0:00:13.39

*** Psi4 exiting successfully. Buy a developer a beer!
