                               Psi4 1.9.1 release

  ==> Input File <==

--------------------------------------------------------------------------
molecule {
-1 1
Si   0.00000        0.60000        0.00000
P   0.00000       -0.60000        0.00000
}

set {
basis              cc-pvdz
reference          uks
maxiter            500
geom_maxiter       500
DAMPING_PERCENTAGE 1
guess              SAP
}

optimize('b3lyp')
--------------------------------------------------------------------------

    Molecular point group: c2v
  Charge       = -1
  Multiplicity = 1
  Basis Set: CC-PVDZ
    Blend: CC-PVDZ
  Basis Set: (CC-PVDZ AUX)
    Blend: CC-PVDZ-JKFIT
  @DF-UKS Final Energy:  -629.69439023696827
    Total Energy =                       -629.6943902369683883
 Dipole X            :          0.0000000            0.0000000            0.0000000
 Dipole Y            :          0.0000000            0.0000000            0.0000000
 Dipole Z            :         -0.8964905            0.5377250           -0.3587655
 Magnitude           :                                                    0.3587655
    Molecular point group: c2v
  Basis Set: CC-PVDZ
    Blend: CC-PVDZ
  Basis Set: (CC-PVDZ AUX)
    Blend: CC-PVDZ-JKFIT
  Basis Set: CC-PVDZ
    Blend: CC-PVDZ
  Basis Set: (CC-PVDZ AUX)
    Blend: CC-PVDZ-JKFIT
  @DF-UKS Final Energy:  -629.72397972097258
    Total Energy =                       -629.7239797209725793
  Basis Set: CC-PVDZ
    Blend: CC-PVDZ
  Basis Set: (CC-PVDZ AUX)
    Blend: CC-PVDZ-JKFIT
  Basis Set: CC-PVDZ
    Blend: CC-PVDZ
  @DF-UKS Final Energy:  -629.78028399297909
    Total Energy =                       -629.7802839929790935
  @DF-UKS Final Energy:  -629.97579024958065
    Total Energy =                       -629.9757902495806547
  @DF-UKS Final Energy:  -630.57495532774442
    Total Energy =                       -630.5749553277444193
  @DF-UKS Final Energy:  -630.76525155195384
    Total Energy =                       -630.7652515519538383
  @DF-UKS Final Energy:  -630.84921381393553
    Total Energy =                       -630.8492138139355347
  @DF-UKS Final Energy:  -630.87842577087633
    Total Energy =                       -630.8784257708762198
  @DF-UKS Final Energy:  -630.88501787890050
    Total Energy =                       -630.8850178789004985
  @DF-UKS Final Energy:  -630.88712469793052
    Total Energy =                       -630.8871246979305170
  @DF-UKS Final Energy:  -630.88743358810530
    Total Energy =                       -630.8874335881051820
  @DF-UKS Final Energy:  -630.88748269766688
    Total Energy =                       -630.8874826976668828
  Basis Set: (CC-PVDZ AUX)
    Blend: CC-PVDZ-JKFIT
  Basis Set: CC-PVDZ
    Blend: CC-PVDZ
  Basis Set: (CC-PVDZ AUX)
    Blend: CC-PVDZ-JKFIT
  @DF-UKS Final Energy:  -630.88749185885604
    Total Energy =                       -630.8874918588560377
  Basis Set: CC-PVDZ
    Blend: CC-PVDZ
  Basis Set: (CC-PVDZ AUX)
    Blend: CC-PVDZ-JKFIT
  Charge       = -1
  Multiplicity = 1
  Basis Set: CC-PVDZ
    Blend: CC-PVDZ
  Basis Set: (CC-PVDZ AUX)
    Blend: CC-PVDZ-JKFIT

    Orbital Energies [Eh]
    ---------------------

    Alpha Occupied:

       1A1   -76.820688     2A1   -65.898315     3A1    -6.291647
       4A1    -5.044533     1B1    -4.452835     1B2    -4.452835
       5A1    -4.450376     2B1    -3.403672     2B2    -3.403672
       6A1    -3.399429     7A1    -0.351739     8A1    -0.156022
       9A1    -0.008924     3B2    -0.005397     3B1    -0.005397

    Alpha Virtual:

       4B2     0.155670     4B1     0.155670    10A1     0.277509
      11A1     0.436148    12A1     0.501213     5B1     0.503343
       5B2     0.503343    13A1     0.581930     1A2     0.581931
       6B1     0.584894     6B2     0.584894    14A1     0.592010
       7B1     0.682849     7B2     0.682849    15A1     0.763586
       2A2     0.763586    16A1     0.763787    17A1     0.924462
       8B1     0.960628     8B2     0.960628    18A1     1.284124

    Beta Occupied:

       1A1   -76.820688     2A1   -65.898315     3A1    -6.291647
       4A1    -5.044533     1B1    -4.452835     1B2    -4.452835
       5A1    -4.450376     2B1    -3.403672     2B2    -3.403672
       6A1    -3.399429     7A1    -0.351739     8A1    -0.156022
       9A1    -0.008924     3B2    -0.005397     3B1    -0.005397

    Beta Virtual:

       4B2     0.155670     4B1     0.155670    10A1     0.277509
      11A1     0.436148    12A1     0.501213     5B1     0.503343
       5B2     0.503343    13A1     0.581930     1A2     0.581931
       6B1     0.584894     6B2     0.584894    14A1     0.592010
       7B1     0.682849     7B2     0.682849    15A1     0.763586
       2A2     0.763586    16A1     0.763787    17A1     0.924462
       8B1     0.960628     8B2     0.960628    18A1     1.284124

    Final Occupation by Irrep:
             A1    A2    B1    B2
    DOCC [     9,    0,    3,    3 ]
    SOCC [     0,    0,    0,    0 ]
    NA   [     9,    0,    3,    3 ]
    NB   [     9,    0,    3,    3 ]

  @DF-UKS Final Energy:  -630.88749240654442

   => Energetics <=

    Nuclear Repulsion Energy =             54.8293748380890094
    One-Electron Energy =                -989.7081912042129943
    Two-Electron Energy =                 339.7063945635674713
    DFT Exchange-Correlation Energy =     -35.7150706039878614
    Empirical Dispersion Energy =           0.0000000000000000
    VV10 Nonlocal Energy =                  0.0000000000000000
    Total Energy =                       -630.8874924065444247

  UHF NO Occupations:
  HONO-2 :    3 B2 2.0000000
  HONO-1 :    3 B1 2.0000000
  HONO-0 :    9 A1 2.0000000
  LUNO+0 :   10 A1 0.0000000
  LUNO+1 :   11 A1 0.0000000
  LUNO+2 :   12 A1 0.0000000
  LUNO+3 :    4 B2 0.0000000

Computation Completed

Properties will be evaluated at   0.000000,   0.000000,   0.000000 [a0]

Properties computed using the SCF density matrix

 Multipole Moments:

 ------------------------------------------------------------------------------------
     Multipole            Electronic (a.u.)      Nuclear  (a.u.)        Total (a.u.)
 ------------------------------------------------------------------------------------

 L = 1.  Multiply by 2.5417464519 to convert [e a0] to [Debye]
 Dipole X            :          0.0000000            0.0000000            0.0000000
 Dipole Y            :          0.0000000            0.0000000            0.0000000
 Dipole Z            :         -0.9460622            0.9082096           -0.0378526
 Magnitude           :                                                    0.0378526

 ------------------------------------------------------------------------------------

*** tstop() called on Joses-MacBook-Pro-2.local at Thu Jul 17 11:48:21 2025
Module time:
	user time   =       8.78 seconds =       0.15 minutes
	system time =       1.53 seconds =       0.03 minutes
	total time  =          1 seconds =       0.02 minutes
Total time:
	user time   =     187.31 seconds =       3.12 minutes
	system time =      37.84 seconds =       0.63 minutes
	total time  =         22 seconds =       0.37 minutes

*** tstart() called on Joses-MacBook-Pro-2.local
*** at Thu Jul 17 11:48:21 2025

         ------------------------------------------------------------
                                   SCF GRAD
                          Rob Parrish, Justin Turney,
                       Andy Simmonett, and Alex Sokolov
         ------------------------------------------------------------

  ==> Geometry <==

    Molecular point group: c2v
    Full point group: C_inf_v

    Geometry (in Angstrom), charge = -1, multiplicity = 1:

       Center              X                  Y                   Z               Mass
    ------------   -----------------  -----------------  -----------------  -----------------
         SI           0.000000000000     0.000000000000     1.064908291160    27.976926534650
         P            0.000000000000     0.000000000000    -0.961874151078    30.973761998420

  Nuclear repulsion =   54.829374838089009

  ==> Basis Set <==

  Basis Set: CC-PVDZ
    Blend: CC-PVDZ
    Number of shells: 16
    Number of basis functions: 36
    Number of Cartesian functions: 38
    Spherical Harmonics?: true
    Max angular momentum: 2

  ==> DFJKGrad: Density-Fitted SCF Gradients <==

    Gradient:                    1
    J tasked:                  Yes
    K tasked:                  Yes
    wK tasked:                  No
    OpenMP threads:              1
    Integrals threads:           1
    Memory [MiB]:              375
    Schwarz Cutoff:          1E-12
    Fitting Condition:       1E-10

   => Auxiliary Basis Set <=

  Basis Set: (CC-PVDZ AUX)
    Blend: CC-PVDZ-JKFIT
    Number of shells: 72
    Number of basis functions: 224
    Number of Cartesian functions: 260
    Spherical Harmonics?: true
    Max angular momentum: 3

  ==> DFT Potential <==

   => LibXC <=

    Version 6.2.2
    S. Lehtola, C. Steigemann, M. J.T. Oliveira, and M. A.L. Marques.,  SoftwareX 7, 1â€“5 (2018) (10.1016/j.softx.2017.11.002)

   => Composite Functional: B3LYP <=

    B3LYP Hyb-GGA Exchange-Correlation Functional

    P. J. Stephens, F. J. Devlin, C. F. Chabalowski, and M. J. Frisch.,  J. Phys. Chem. 98, 11623 (1994) (10.1021/j100096a001)

    Deriv               =              1
    GGA                 =           TRUE
    Meta                =          FALSE

    Exchange Hybrid     =           TRUE
    MP2 Hybrid          =          FALSE

   => Exchange Functionals <=

    0.0800   Slater exchange
    0.7200         Becke 88

   => Exact (HF) Exchange <=

    0.2000               HF

   => Correlation Functionals <=

    0.1900   Vosko, Wilk & Nusair (VWN5_RPA)
    0.8100   Lee, Yang & Parr

   => LibXC Density Thresholds  <==

    XC_HYB_GGA_XC_B3LYP:  1.00E-15

   => Molecular Quadrature <=

    Radial Scheme          =       TREUTLER
    Pruning Scheme         =           NONE
    Nuclear Scheme         =       TREUTLER

    Blocking Scheme        =         OCTREE
    BS radius alpha        =              1
    Pruning alpha          =              1
    Radial Points          =             75
    Spherical Points       =            302
    Total Points           =          41591
    Total Blocks           =            384
    Max Points             =            255
    Max Functions          =             36
    Weights Tolerance      =       1.00E-15

  -Total Gradient:
     Atom            X                  Y                   Z
    ------   -----------------  -----------------  -----------------
       1        0.000000000000    -0.000000000000    -0.000074313919
       2        0.000000000000     0.000000000000     0.000076628773

*** tstop() called on Joses-MacBook-Pro-2.local at Thu Jul 17 11:48:22 2025
Module time:
	user time   =       2.92 seconds =       0.05 minutes
	system time =       1.41 seconds =       0.02 minutes
	total time  =          1 seconds =       0.02 minutes
Total time:
	user time   =     190.23 seconds =       3.17 minutes
	system time =      39.26 seconds =       0.65 minutes
	total time  =         23 seconds =       0.38 minutes

    			-----------------------------------------

    			 OPTKING 3.0: for geometry optimizations

    			     By R.A. King, Bethel University

    			        with contributions from

    			    A.V. Copan, J. Cayton, A. Heide

    			-----------------------------------------

	                            ===> Fragment 1 <==

	 Z (Atomic Numbers)          Masses                          Geom
	      14.000000            27.976927          0.00000000  0.00000000  2.01238502
	      15.000000            30.973762          0.00000000  0.00000000 -1.81767871

	 - Coordinate -           - BOHR/RAD -       - ANG/DEG -
	 R(1,2)           =         3.830064           2.026782

	        --- Internal Coordinate Step in ANG or DEG, aJ/ANG or AJ/DEG ---
	-------------------------------------------------------------------------------
	           Coordinate      Previous         Force          Change          New
	           ----------      --------        ------          ------        ------
	               R(1,2)       2.02678        0.00062        0.00014       2.02693
	-------------------------------------------------------------------------------

	                                 ==> Convergence Check <==

	Measures of convergence in internal coordinates in au.

	Criteria marked as inactive (o), active & met (*), and active & unmet ( ).

	----------------------------------------------------------------------------------------------
	   Step    Total Energy     Delta E     Max Force     RMS Force      Max Disp      RMS Disp
	----------------------------------------------------------------------------------------------
	  Convergence Criteria     1.00e-06 *    3.00e-04 *             o    1.20e-03 *             o
	----------------------------------------------------------------------------------------------
	    14    -630.88749241   -5.48e-07 *    7.55e-05 *    7.55e-05 o    2.73e-04 *    2.73e-04 o  ~
	----------------------------------------------------------------------------------------------

Next Geometry in Ang
	Fragment 1 (Ang)

	   Si   0.0000000000   0.0000000000   1.0649805203
	    P   0.0000000000   0.0000000000  -0.9619463802

    Final optimized geometry and variables:
    Molecular point group: c2v
    Full point group: C_inf_v

    Geometry (in Angstrom), charge = -1, multiplicity = 1:

    SI           0.000000000000     0.000000000000     1.064908291160
    P            0.000000000000     0.000000000000    -0.961874151078

    Psi4 stopped on: Thursday, 17 July 2025 11:48AM
    Psi4 wall time for execution: 0:00:23.19

*** Psi4 exiting successfully. Buy a developer a beer!
