                               Psi4 1.9.1 release

  ==> Input File <==

--------------------------------------------------------------------------
molecule {
-1 1
Mg   0.00000        0.60000        0.00000
Cl   0.00000       -0.60000        0.00000
}

set {
basis              cc-pvdz
reference          uks
maxiter            500
geom_maxiter       500
DAMPING_PERCENTAGE 1
guess              SAP
}

optimize('b3lyp')
--------------------------------------------------------------------------

    Molecular point group: c2v
  Charge       = -1
  Multiplicity = 1
  Basis Set: CC-PVDZ
    Blend: CC-PVDZ
  Basis Set: (CC-PVDZ AUX)
    Blend: CC-PVDZ-JKFIT + DEF2-UNIVERSAL-JKFIT
  @DF-UKS Final Energy:  -659.19418694813328
    Total Energy =                       -659.1941869481332787
 Dipole X            :          0.0000000            0.0000000            0.0000000
 Dipole Y            :          0.0000000            0.0000000            0.0000000
 Dipole Z            :         -2.4144778            0.4569863           -1.9574915
 Magnitude           :                                                    1.9574915
    Molecular point group: c2v
  Basis Set: CC-PVDZ
    Blend: CC-PVDZ
  Basis Set: (CC-PVDZ AUX)
    Blend: CC-PVDZ-JKFIT + DEF2-UNIVERSAL-JKFIT
  Basis Set: CC-PVDZ
    Blend: CC-PVDZ
  Basis Set: (CC-PVDZ AUX)
    Blend: CC-PVDZ-JKFIT + DEF2-UNIVERSAL-JKFIT
  @DF-UKS Final Energy:  -659.22004257103663
    Total Energy =                       -659.2200425710366289
  Basis Set: CC-PVDZ
    Blend: CC-PVDZ
  Basis Set: (CC-PVDZ AUX)
    Blend: CC-PVDZ-JKFIT + DEF2-UNIVERSAL-JKFIT
  Basis Set: CC-PVDZ
    Blend: CC-PVDZ
  @DF-UKS Final Energy:  -659.26942929820575
    Total Energy =                       -659.2694292982055231
  @DF-UKS Final Energy:  -659.44287865041395
    Total Energy =                       -659.4428786504140589
  @DF-UKS Final Energy:  -660.02930963195092
    Total Energy =                       -660.0293096319509232
  @DF-UKS Final Energy:  -660.22950481109092
    Total Energy =                       -660.2295048110909192
  @DF-UKS Final Energy:  -660.33155937348045
    Total Energy =                       -660.3315593734803315
  @DF-UKS Final Energy:  -660.38073277493982
    Total Energy =                       -660.3807327749399292
  @DF-UKS Final Energy:  -660.40336173461981
    Total Energy =                       -660.4033617346198071
  @DF-UKS Final Energy:  -660.41242774076613
    Total Energy =                       -660.4124277407661339
  @DF-UKS Final Energy:  -660.41535207892684
    Total Energy =                       -660.4153520789268441
  @DF-UKS Final Energy:  -660.41589189420245
    Total Energy =                       -660.4158918942024457
  @DF-UKS Final Energy:  -660.41600706994041
    Total Energy =                       -660.4160070699404059
  @DF-UKS Final Energy:  -660.41603839605386
    Total Energy =                       -660.4160383960538638
  Basis Set: (CC-PVDZ AUX)
    Blend: CC-PVDZ-JKFIT + DEF2-UNIVERSAL-JKFIT
  Basis Set: CC-PVDZ
    Blend: CC-PVDZ
  Basis Set: (CC-PVDZ AUX)
    Blend: CC-PVDZ-JKFIT + DEF2-UNIVERSAL-JKFIT
  @DF-UKS Final Energy:  -660.41604154024242
    Total Energy =                       -660.4160415402423041
  Basis Set: CC-PVDZ
    Blend: CC-PVDZ
  Basis Set: (CC-PVDZ AUX)
    Blend: CC-PVDZ-JKFIT + DEF2-UNIVERSAL-JKFIT
  Charge       = -1
  Multiplicity = 1
  Basis Set: CC-PVDZ
    Blend: CC-PVDZ
  Basis Set: (CC-PVDZ AUX)
    Blend: CC-PVDZ-JKFIT + DEF2-UNIVERSAL-JKFIT

    Orbital Energies [Eh]
    ---------------------

    Alpha Occupied:

       1A1  -101.289177     2A1   -46.624550     3A1    -9.205869
       4A1    -6.962899     1B2    -6.961811     1B1    -6.961811
       5A1    -2.906134     2B2    -1.650537     2B1    -1.650537
       6A1    -1.647956     7A1    -0.556572     8A1    -0.129468
       3B1    -0.095068     3B2    -0.095068     9A1     0.014638

    Alpha Virtual:

       4B1     0.136339     4B2     0.136339    10A1     0.177724
      11A1     0.261038     5B2     0.326046     5B1     0.326046
      12A1     0.375621     1A2     0.505374    13A1     0.505375
       6B1     0.511112     6B2     0.511112    14A1     0.569708
       7B2     0.800774     7B1     0.800774    15A1     0.822110
      16A1     0.975388     2A2     0.975401    17A1     0.976501
       8B1     1.036446     8B2     1.036446    18A1     1.357378

    Beta Occupied:

       1A1  -101.289177     2A1   -46.624550     3A1    -9.205869
       4A1    -6.962899     1B2    -6.961811     1B1    -6.961811
       5A1    -2.906134     2B2    -1.650537     2B1    -1.650537
       6A1    -1.647956     7A1    -0.556572     8A1    -0.129468
       3B1    -0.095068     3B2    -0.095068     9A1     0.014638

    Beta Virtual:

       4B1     0.136339     4B2     0.136339    10A1     0.177724
      11A1     0.261038     5B2     0.326046     5B1     0.326046
      12A1     0.375621     1A2     0.505374    13A1     0.505375
       6B1     0.511112     6B2     0.511112    14A1     0.569708
       7B2     0.800774     7B1     0.800774    15A1     0.822110
      16A1     0.975388     2A2     0.975401    17A1     0.976501
       8B1     1.036446     8B2     1.036446    18A1     1.357378

    Final Occupation by Irrep:
             A1    A2    B1    B2
    DOCC [     9,    0,    3,    3 ]
    SOCC [     0,    0,    0,    0 ]
    NA   [     9,    0,    3,    3 ]
    NB   [     9,    0,    3,    3 ]

  @DF-UKS Final Energy:  -660.41604182822869

   => Energetics <=

    Nuclear Repulsion Energy =             44.6089694600194946
    One-Electron Energy =               -1010.8161968153060570
    Two-Electron Energy =                 342.0150477875097863
    DFT Exchange-Correlation Energy =     -36.2238622604518383
    Empirical Dispersion Energy =           0.0000000000000000
    VV10 Nonlocal Energy =                  0.0000000000000000
    Total Energy =                       -660.4160418282285718

  UHF NO Occupations:
  HONO-2 :    3 B2 2.0000000
  HONO-1 :    3 B1 2.0000000
  HONO-0 :    9 A1 2.0000000
  LUNO+0 :   10 A1 0.0000000
  LUNO+1 :    4 B1 0.0000000
  LUNO+2 :   11 A1 0.0000000
  LUNO+3 :    4 B2 0.0000000

Computation Completed

Properties will be evaluated at   0.000000,   0.000000,   0.000000 [a0]

Properties computed using the SCF density matrix

 Multipole Moments:

 ------------------------------------------------------------------------------------
     Multipole            Electronic (a.u.)      Nuclear  (a.u.)        Total (a.u.)
 ------------------------------------------------------------------------------------

 L = 1.  Multiply by 2.5417464519 to convert [e a0] to [Debye]
 Dipole X            :          0.0000000            0.0000000            0.0000000
 Dipole Y            :          0.0000000            0.0000000            0.0000000
 Dipole Z            :         -2.4519819            0.9215758           -1.5304061
 Magnitude           :                                                    1.5304061

 ------------------------------------------------------------------------------------

*** tstop() called on Joses-MacBook-Pro-2.local at Thu Jul 17 11:29:52 2025
Module time:
	user time   =       6.57 seconds =       0.11 minutes
	system time =       3.10 seconds =       0.05 minutes
	total time  =          1 seconds =       0.02 minutes
Total time:
	user time   =     175.99 seconds =       2.93 minutes
	system time =      87.66 seconds =       1.46 minutes
	total time  =         25 seconds =       0.42 minutes

*** tstart() called on Joses-MacBook-Pro-2.local
*** at Thu Jul 17 11:29:52 2025

         ------------------------------------------------------------
                                   SCF GRAD
                          Rob Parrish, Justin Turney,
                       Andy Simmonett, and Alex Sokolov
         ------------------------------------------------------------

  ==> Geometry <==

    Molecular point group: c2v
    Full point group: C_inf_v

    Geometry (in Angstrom), charge = -1, multiplicity = 1:

       Center              X                  Y                   Z               Mass
    ------------   -----------------  -----------------  -----------------  -----------------
         MG           0.000000000000     0.000000000000     1.435416698593    23.985041697000
         CL           0.000000000000     0.000000000000    -0.984548440334    34.968852682000

  Nuclear repulsion =   44.608969460019495

  ==> Basis Set <==

  Basis Set: CC-PVDZ
    Blend: CC-PVDZ
    Number of shells: 16
    Number of basis functions: 36
    Number of Cartesian functions: 38
    Spherical Harmonics?: true
    Max angular momentum: 2

  ==> DFJKGrad: Density-Fitted SCF Gradients <==

    Gradient:                    1
    J tasked:                  Yes
    K tasked:                  Yes
    wK tasked:                  No
    OpenMP threads:              1
    Integrals threads:           1
    Memory [MiB]:              375
    Schwarz Cutoff:          1E-12
    Fitting Condition:       1E-10

   => Auxiliary Basis Set <=

  Basis Set: (CC-PVDZ AUX)
    Blend: CC-PVDZ-JKFIT + DEF2-UNIVERSAL-JKFIT
    Number of shells: 70
    Number of basis functions: 224
    Number of Cartesian functions: 267
    Spherical Harmonics?: true
    Max angular momentum: 4

  ==> DFT Potential <==

   => LibXC <=

    Version 6.2.2
    S. Lehtola, C. Steigemann, M. J.T. Oliveira, and M. A.L. Marques.,  SoftwareX 7, 1â€“5 (2018) (10.1016/j.softx.2017.11.002)

   => Composite Functional: B3LYP <=

    B3LYP Hyb-GGA Exchange-Correlation Functional

    P. J. Stephens, F. J. Devlin, C. F. Chabalowski, and M. J. Frisch.,  J. Phys. Chem. 98, 11623 (1994) (10.1021/j100096a001)

    Deriv               =              1
    GGA                 =           TRUE
    Meta                =          FALSE

    Exchange Hybrid     =           TRUE
    MP2 Hybrid          =          FALSE

   => Exchange Functionals <=

    0.0800   Slater exchange
    0.7200         Becke 88

   => Exact (HF) Exchange <=

    0.2000               HF

   => Correlation Functionals <=

    0.1900   Vosko, Wilk & Nusair (VWN5_RPA)
    0.8100   Lee, Yang & Parr

   => LibXC Density Thresholds  <==

    XC_HYB_GGA_XC_B3LYP:  1.00E-15

   => Molecular Quadrature <=

    Radial Scheme          =       TREUTLER
    Pruning Scheme         =           NONE
    Nuclear Scheme         =       TREUTLER

    Blocking Scheme        =         OCTREE
    BS radius alpha        =              1
    Pruning alpha          =              1
    Radial Points          =             75
    Spherical Points       =            302
    Total Points           =          43011
    Total Blocks           =            418
    Max Points             =            256
    Max Functions          =             36
    Weights Tolerance      =       1.00E-15

  -Total Gradient:
     Atom            X                  Y                   Z
    ------   -----------------  -----------------  -----------------
       1       -0.000000000000     0.000000000000    -0.000001610251
       2        0.000000000000     0.000000000000     0.000068435543

*** tstop() called on Joses-MacBook-Pro-2.local at Thu Jul 17 11:29:53 2025
Module time:
	user time   =       2.12 seconds =       0.04 minutes
	system time =       1.95 seconds =       0.03 minutes
	total time  =          1 seconds =       0.02 minutes
Total time:
	user time   =     178.11 seconds =       2.97 minutes
	system time =      89.61 seconds =       1.49 minutes
	total time  =         26 seconds =       0.43 minutes

    			-----------------------------------------

    			 OPTKING 3.0: for geometry optimizations

    			     By R.A. King, Bethel University

    			        with contributions from

    			    A.V. Copan, J. Cayton, A. Heide

    			-----------------------------------------

	                            ===> Fragment 1 <==

	 Z (Atomic Numbers)          Masses                          Geom
	      12.000000            23.985042          0.00000000  0.00000000  2.71254444
	      17.000000            34.968853          0.00000000  0.00000000 -1.86052691

	 - Coordinate -           - BOHR/RAD -       - ANG/DEG -
	 R(1,2)           =         4.573071           2.419965

	        --- Internal Coordinate Step in ANG or DEG, aJ/ANG or AJ/DEG ---
	-------------------------------------------------------------------------------
	           Coordinate      Previous         Force          Change          New
	           ----------      --------        ------          ------        ------
	               R(1,2)       2.41997        0.00029        0.00035       2.42032
	-------------------------------------------------------------------------------

	                                 ==> Convergence Check <==

	Measures of convergence in internal coordinates in au.

	Criteria marked as inactive (o), active & met (*), and active & unmet ( ).

	----------------------------------------------------------------------------------------------
	   Step    Total Energy     Delta E     Max Force     RMS Force      Max Disp      RMS Disp
	----------------------------------------------------------------------------------------------
	  Convergence Criteria     1.00e-06 *    3.00e-04 *             o    1.20e-03 *             o
	----------------------------------------------------------------------------------------------
	    16    -660.41604183   -2.88e-07 *    3.50e-05 *    3.50e-05 o    6.68e-04 *    6.68e-04 o  ~
	----------------------------------------------------------------------------------------------

Next Geometry in Ang
	Fragment 1 (Ang)

	   Mg   0.0000000000   0.0000000000   1.4355935646
	   Cl   0.0000000000   0.0000000000  -0.9847253064

    Final optimized geometry and variables:
    Molecular point group: c2v
    Full point group: C_inf_v

    Geometry (in Angstrom), charge = -1, multiplicity = 1:

    MG           0.000000000000     0.000000000000     1.435416698593
    CL           0.000000000000     0.000000000000    -0.984548440334

    Psi4 stopped on: Thursday, 17 July 2025 11:29AM
    Psi4 wall time for execution: 0:00:26.60

*** Psi4 exiting successfully. Buy a developer a beer!
