                               Psi4 1.9.1 release

  ==> Input File <==

--------------------------------------------------------------------------
molecule {
-1 1
Al   0.00000        0.60000        0.00000
S   0.00000       -0.60000        0.00000
}

set {
basis              cc-pvdz
reference          uks
maxiter            500
geom_maxiter       500
DAMPING_PERCENTAGE 1
guess              SAP
}

optimize('b3lyp')
--------------------------------------------------------------------------

    Molecular point group: c2v
  Charge       = -1
  Multiplicity = 1
  Basis Set: CC-PVDZ
    Blend: CC-PVDZ
  Basis Set: (CC-PVDZ AUX)
    Blend: CC-PVDZ-JKFIT
  @DF-UKS Final Energy:  -639.53735817838310
    Total Energy =                       -639.5373581783831014
 Dipole X            :          0.0000000            0.0000000            0.0000000
 Dipole Y            :          0.0000000            0.0000000            0.0000000
 Dipole Z            :         -0.6414081           -0.6180494           -1.2594575
 Magnitude           :                                                    1.2594575
    Molecular point group: c2v
  Basis Set: CC-PVDZ
    Blend: CC-PVDZ
  Basis Set: (CC-PVDZ AUX)
    Blend: CC-PVDZ-JKFIT
  Basis Set: CC-PVDZ
    Blend: CC-PVDZ
  Basis Set: (CC-PVDZ AUX)
    Blend: CC-PVDZ-JKFIT
  @DF-UKS Final Energy:  -639.56549530942596
    Total Energy =                       -639.5654953094259554
  Basis Set: CC-PVDZ
    Blend: CC-PVDZ
  Basis Set: (CC-PVDZ AUX)
    Blend: CC-PVDZ-JKFIT
  Basis Set: CC-PVDZ
    Blend: CC-PVDZ
  @DF-UKS Final Energy:  -639.61913233027633
    Total Energy =                       -639.6191323302763294
  @DF-UKS Final Energy:  -639.80631736020757
    Total Energy =                       -639.8063173602075722
  @DF-UKS Final Energy:  -640.40156905074923
    Total Energy =                       -640.4015690507491172
  @DF-UKS Final Energy:  -640.59295401681561
    Total Energy =                       -640.5929540168156109
  @DF-UKS Final Energy:  -640.68542151955774
    Total Energy =                       -640.6854215195577353
  @DF-UKS Final Energy:  -640.72275961083983
    Total Energy =                       -640.7227596108400576
  @DF-UKS Final Energy:  -640.73523752650476
    Total Energy =                       -640.7352375265047613
  @DF-UKS Final Energy:  -640.73762135806396
    Total Energy =                       -640.7376213580639615
  @DF-UKS Final Energy:  -640.73822988800930
    Total Energy =                       -640.7382298880091867
  @DF-UKS Final Energy:  -640.73829346697073
    Total Energy =                       -640.7382934669707311
  Basis Set: (CC-PVDZ AUX)
    Blend: CC-PVDZ-JKFIT
  Basis Set: CC-PVDZ
    Blend: CC-PVDZ
  Basis Set: (CC-PVDZ AUX)
    Blend: CC-PVDZ-JKFIT
  @DF-UKS Final Energy:  -640.73830048030288
    Total Energy =                       -640.7383004803028825
  Basis Set: CC-PVDZ
    Blend: CC-PVDZ
  Basis Set: (CC-PVDZ AUX)
    Blend: CC-PVDZ-JKFIT
  Charge       = -1
  Multiplicity = 1
  Basis Set: CC-PVDZ
    Blend: CC-PVDZ
  Basis Set: (CC-PVDZ AUX)
    Blend: CC-PVDZ-JKFIT

    Orbital Energies [Eh]
    ---------------------

    Alpha Occupied:

       1A1   -88.602505     2A1   -55.833198     3A1    -7.664446
       1B1    -5.624315     1B2    -5.624315     4A1    -5.624275
       5A1    -3.916440     2B1    -2.470177     2B2    -2.470177
       6A1    -2.465667     7A1    -0.419414     8A1    -0.120926
       3B1    -0.024907     3B2    -0.024907     9A1    -0.004697

    Alpha Virtual:

       4B2     0.147604     4B1     0.147604    10A1     0.224079
      11A1     0.352654     5B1     0.405148     5B2     0.405148
      12A1     0.444723     1A2     0.472033    13A1     0.472034
       6B2     0.499471     6B1     0.499471    14A1     0.543412
       7B2     0.761940     7B1     0.761940    15A1     0.849699
       2A2     0.880922    16A1     0.880925    17A1     0.914060
       8B2     1.007763     8B1     1.007763    18A1     1.315617

    Beta Occupied:

       1A1   -88.602505     2A1   -55.833198     3A1    -7.664446
       1B1    -5.624315     1B2    -5.624315     4A1    -5.624275
       5A1    -3.916440     2B1    -2.470177     2B2    -2.470177
       6A1    -2.465667     7A1    -0.419414     8A1    -0.120926
       3B1    -0.024907     3B2    -0.024907     9A1    -0.004697

    Beta Virtual:

       4B2     0.147604     4B1     0.147604    10A1     0.224079
      11A1     0.352654     5B1     0.405148     5B2     0.405148
      12A1     0.444723     1A2     0.472033    13A1     0.472034
       6B2     0.499471     6B1     0.499471    14A1     0.543412
       7B2     0.761940     7B1     0.761940    15A1     0.849699
       2A2     0.880922    16A1     0.880925    17A1     0.914060
       8B2     1.007763     8B1     1.007763    18A1     1.315617

    Final Occupation by Irrep:
             A1    A2    B1    B2
    DOCC [     9,    0,    3,    3 ]
    SOCC [     0,    0,    0,    0 ]
    NA   [     9,    0,    3,    3 ]
    NB   [     9,    0,    3,    3 ]

  @DF-UKS Final Energy:  -640.73830132733281

   => Energetics <=

    Nuclear Repulsion Energy =             51.7743846818629194
    One-Electron Energy =                -997.6838825880587365
    Two-Electron Energy =                 341.0668595766390467
    DFT Exchange-Correlation Energy =     -35.8956629977760215
    Empirical Dispersion Energy =           0.0000000000000000
    VV10 Nonlocal Energy =                  0.0000000000000000
    Total Energy =                       -640.7383013273329198

  UHF NO Occupations:
  HONO-2 :    2 B1 2.0000000
  HONO-1 :    9 A1 2.0000000
  HONO-0 :    3 B1 2.0000000
  LUNO+0 :    4 B1 0.0000000
  LUNO+1 :   10 A1 0.0000000
  LUNO+2 :   11 A1 0.0000000
  LUNO+3 :    5 B1 0.0000000

Computation Completed

Properties will be evaluated at   0.000000,   0.000000,   0.000000 [a0]

Properties computed using the SCF density matrix

 Multipole Moments:

 ------------------------------------------------------------------------------------
     Multipole            Electronic (a.u.)      Nuclear  (a.u.)        Total (a.u.)
 ------------------------------------------------------------------------------------

 L = 1.  Multiply by 2.5417464519 to convert [e a0] to [Debye]
 Dipole X            :          0.0000000            0.0000000            0.0000000
 Dipole Y            :          0.0000000            0.0000000            0.0000000
 Dipole Z            :          0.9514216           -1.0949429           -0.1435213
 Magnitude           :                                                    0.1435213

 ------------------------------------------------------------------------------------

*** tstop() called on Joses-MacBook-Pro-2.local at Thu Jul 17 11:39:35 2025
Module time:
	user time   =      10.14 seconds =       0.17 minutes
	system time =       2.16 seconds =       0.04 minutes
	total time  =          1 seconds =       0.02 minutes
Total time:
	user time   =     210.55 seconds =       3.51 minutes
	system time =      61.32 seconds =       1.02 minutes
	total time  =         27 seconds =       0.45 minutes

*** tstart() called on Joses-MacBook-Pro-2.local
*** at Thu Jul 17 11:39:35 2025

         ------------------------------------------------------------
                                   SCF GRAD
                          Rob Parrish, Justin Turney,
                       Andy Simmonett, and Alex Sokolov
         ------------------------------------------------------------

  ==> Geometry <==

    Molecular point group: c2v
    Full point group: C_inf_v

    Geometry (in Angstrom), charge = -1, multiplicity = 1:

       Center              X                  Y                   Z               Mass
    ------------   -----------------  -----------------  -----------------  -----------------
         AL           0.000000000000     0.000000000000     1.152948452527    26.981538530000
         S            0.000000000000     0.000000000000    -0.972984293863    31.972071174400

  Nuclear repulsion =   51.774384681862919

  ==> Basis Set <==

  Basis Set: CC-PVDZ
    Blend: CC-PVDZ
    Number of shells: 16
    Number of basis functions: 36
    Number of Cartesian functions: 38
    Spherical Harmonics?: true
    Max angular momentum: 2

  ==> DFJKGrad: Density-Fitted SCF Gradients <==

    Gradient:                    1
    J tasked:                  Yes
    K tasked:                  Yes
    wK tasked:                  No
    OpenMP threads:              1
    Integrals threads:           1
    Memory [MiB]:              375
    Schwarz Cutoff:          1E-12
    Fitting Condition:       1E-10

   => Auxiliary Basis Set <=

  Basis Set: (CC-PVDZ AUX)
    Blend: CC-PVDZ-JKFIT
    Number of shells: 72
    Number of basis functions: 224
    Number of Cartesian functions: 260
    Spherical Harmonics?: true
    Max angular momentum: 3

  ==> DFT Potential <==

   => LibXC <=

    Version 6.2.2
    S. Lehtola, C. Steigemann, M. J.T. Oliveira, and M. A.L. Marques.,  SoftwareX 7, 1â€“5 (2018) (10.1016/j.softx.2017.11.002)

   => Composite Functional: B3LYP <=

    B3LYP Hyb-GGA Exchange-Correlation Functional

    P. J. Stephens, F. J. Devlin, C. F. Chabalowski, and M. J. Frisch.,  J. Phys. Chem. 98, 11623 (1994) (10.1021/j100096a001)

    Deriv               =              1
    GGA                 =           TRUE
    Meta                =          FALSE

    Exchange Hybrid     =           TRUE
    MP2 Hybrid          =          FALSE

   => Exchange Functionals <=

    0.0800   Slater exchange
    0.7200         Becke 88

   => Exact (HF) Exchange <=

    0.2000               HF

   => Correlation Functionals <=

    0.1900   Vosko, Wilk & Nusair (VWN5_RPA)
    0.8100   Lee, Yang & Parr

   => LibXC Density Thresholds  <==

    XC_HYB_GGA_XC_B3LYP:  1.00E-15

   => Molecular Quadrature <=

    Radial Scheme          =       TREUTLER
    Pruning Scheme         =           NONE
    Nuclear Scheme         =       TREUTLER

    Blocking Scheme        =         OCTREE
    BS radius alpha        =              1
    Pruning alpha          =              1
    Radial Points          =             75
    Spherical Points       =            302
    Total Points           =          42653
    Total Blocks           =            399
    Max Points             =            256
    Max Functions          =             36
    Weights Tolerance      =       1.00E-15

  -Total Gradient:
     Atom            X                  Y                   Z
    ------   -----------------  -----------------  -----------------
       1        0.000000000000     0.000000000000    -0.000089074036
       2       -0.000000000000     0.000000000000     0.000108677403

*** tstop() called on Joses-MacBook-Pro-2.local at Thu Jul 17 11:39:36 2025
Module time:
	user time   =       3.48 seconds =       0.06 minutes
	system time =       1.35 seconds =       0.02 minutes
	total time  =          1 seconds =       0.02 minutes
Total time:
	user time   =     214.04 seconds =       3.57 minutes
	system time =      62.67 seconds =       1.04 minutes
	total time  =         28 seconds =       0.47 minutes

    			-----------------------------------------

    			 OPTKING 3.0: for geometry optimizations

    			     By R.A. King, Bethel University

    			        with contributions from

    			    A.V. Copan, J. Cayton, A. Heide

    			-----------------------------------------

	                            ===> Fragment 1 <==

	 Z (Atomic Numbers)          Masses                          Geom
	      13.000000            26.981539          0.00000000  0.00000000  2.17875681
	      16.000000            31.972071          0.00000000  0.00000000 -1.83867384

	 - Coordinate -           - BOHR/RAD -       - ANG/DEG -
	 R(1,2)           =         4.017431           2.125933

	        --- Internal Coordinate Step in ANG or DEG, aJ/ANG or AJ/DEG ---
	-------------------------------------------------------------------------------
	           Coordinate      Previous         Force          Change          New
	           ----------      --------        ------          ------        ------
	               R(1,2)       2.12593        0.00081        0.00028       2.12621
	-------------------------------------------------------------------------------

	                                 ==> Convergence Check <==

	Measures of convergence in internal coordinates in au.

	Criteria marked as inactive (o), active & met (*), and active & unmet ( ).

	----------------------------------------------------------------------------------------------
	   Step    Total Energy     Delta E     Max Force     RMS Force      Max Disp      RMS Disp
	----------------------------------------------------------------------------------------------
	  Convergence Criteria     1.00e-06 *    3.00e-04 *             o    1.20e-03 *             o
	----------------------------------------------------------------------------------------------
	    14    -640.73830133   -8.47e-07 *    9.89e-05 *    9.89e-05 o    5.23e-04 *    5.23e-04 o  ~
	----------------------------------------------------------------------------------------------

Next Geometry in Ang
	Fragment 1 (Ang)

	   Al   0.0000000000   0.0000000000   1.1530867837
	    S   0.0000000000   0.0000000000  -0.9731226250

    Final optimized geometry and variables:
    Molecular point group: c2v
    Full point group: C_inf_v

    Geometry (in Angstrom), charge = -1, multiplicity = 1:

    AL           0.000000000000     0.000000000000     1.152948452527
    S            0.000000000000     0.000000000000    -0.972984293863

    Psi4 stopped on: Thursday, 17 July 2025 11:39AM
    Psi4 wall time for execution: 0:00:28.58

*** Psi4 exiting successfully. Buy a developer a beer!
