                               Psi4 1.9.1 release

  ==> Input File <==

--------------------------------------------------------------------------
molecule {
-1 1
He   0.00000        0.60000        0.00000
B   0.00000       -0.60000        0.00000
}

set {
basis              cc-pvdz
reference          uks
maxiter            500
geom_maxiter       500
DAMPING_PERCENTAGE 1
guess              SAP
}

optimize('b3lyp')
--------------------------------------------------------------------------

    Molecular point group: c2v
  Charge       = -1
  Multiplicity = 1
  Basis Set: CC-PVDZ
    Blend: CC-PVDZ
  Basis Set: (CC-PVDZ AUX)
    Blend: CC-PVDZ-JKFIT + DEF2-UNIVERSAL-JKFIT
  @DF-UKS Final Energy:   -27.43351304212035
    Total Energy =                        -27.4335130421203459
 Dipole X            :          0.0000000            0.0000000            0.0000000
 Dipole Y            :          0.0000000            0.0000000            0.0000000
 Dipole Z            :          1.5209064            0.3029614            1.8238678
 Magnitude           :                                                    1.8238678
    Molecular point group: c2v
  Basis Set: CC-PVDZ
    Blend: CC-PVDZ
  Basis Set: (CC-PVDZ AUX)
    Blend: CC-PVDZ-JKFIT + DEF2-UNIVERSAL-JKFIT
  Basis Set: CC-PVDZ
    Blend: CC-PVDZ
  Basis Set: (CC-PVDZ AUX)
    Blend: CC-PVDZ-JKFIT + DEF2-UNIVERSAL-JKFIT
  @DF-UKS Final Energy:   -27.46287403271256
    Total Energy =                        -27.4628740327125556
  Basis Set: CC-PVDZ
    Blend: CC-PVDZ
  Basis Set: (CC-PVDZ AUX)
    Blend: CC-PVDZ-JKFIT + DEF2-UNIVERSAL-JKFIT
  Basis Set: CC-PVDZ
    Blend: CC-PVDZ
  @DF-UKS Final Energy:   -27.48609643993778
    Total Energy =                        -27.4860964399377821
  @DF-UKS Final Energy:   -27.50130452006569
    Total Energy =                        -27.5013045200656947
  @DF-UKS Final Energy:   -27.50630521709023
    Total Energy =                        -27.5063052170902296
  @DF-UKS Final Energy:   -27.51066842024981
    Total Energy =                        -27.5106684202498144
  @DF-UKS Final Energy:   -27.51258886332020
    Total Energy =                        -27.5125888633202038
  @DF-UKS Final Energy:   -27.51358286902711
    Total Energy =                        -27.5135828690271076
  @DF-UKS Final Energy:   -27.51406696938721
    Total Energy =                        -27.5140669693872084
  @DF-UKS Final Energy:   -27.51429155975320
    Total Energy =                        -27.5142915597532038
  @DF-UKS Final Energy:   -27.51438906837126
    Total Energy =                        -27.5143890683712584
  @DF-UKS Final Energy:   -27.51442766547927
    Total Energy =                        -27.5144276654792748
  @DF-UKS Final Energy:   -27.51444128511472
    Total Energy =                        -27.5144412851147209
  @DF-UKS Final Energy:   -27.51444389054672
    Total Energy =                        -27.5144438905467155
  Basis Set: (CC-PVDZ AUX)
    Blend: CC-PVDZ-JKFIT + DEF2-UNIVERSAL-JKFIT
  Basis Set: CC-PVDZ
    Blend: CC-PVDZ
  Basis Set: (CC-PVDZ AUX)
    Blend: CC-PVDZ-JKFIT + DEF2-UNIVERSAL-JKFIT
  @DF-UKS Final Energy:   -27.51444522936114
    Total Energy =                        -27.5144452293611366
  Basis Set: CC-PVDZ
    Blend: CC-PVDZ
  Basis Set: (CC-PVDZ AUX)
    Blend: CC-PVDZ-JKFIT + DEF2-UNIVERSAL-JKFIT
  Charge       = -1
  Multiplicity = 1
  Basis Set: CC-PVDZ
    Blend: CC-PVDZ
  Basis Set: (CC-PVDZ AUX)
    Blend: CC-PVDZ-JKFIT + DEF2-UNIVERSAL-JKFIT

    Orbital Energies [Eh]
    ---------------------

    Alpha Occupied:

       1A1    -6.509472     2A1    -0.512736     3A1    -0.061160
       1B1     0.156290

    Alpha Virtual:

       1B2     0.198094     4A1     0.198648     2B2     0.574064
       5A1     0.574446     2B1     0.578060     6A1     0.632968
       7A1     1.002869     3B2     1.003377     3B1     1.016986
       1A2     1.016990     8A1     1.030735     9A1     1.275926
       4B2     2.326126     4B1     2.326358    10A1     2.331076

    Beta Occupied:

       1A1    -6.509472     2A1    -0.512736     3A1    -0.061160
       1B1     0.156290

    Beta Virtual:

       1B2     0.198094     4A1     0.198648     2B2     0.574064
       5A1     0.574446     2B1     0.578060     6A1     0.632968
       7A1     1.002869     3B2     1.003377     3B1     1.016986
       1A2     1.016990     8A1     1.030735     9A1     1.275926
       4B2     2.326126     4B1     2.326358    10A1     2.331076

    Final Occupation by Irrep:
             A1    A2    B1    B2
    DOCC [     3,    0,    1,    0 ]
    SOCC [     0,    0,    0,    0 ]
    NA   [     3,    0,    1,    0 ]
    NB   [     3,    0,    1,    0 ]

  @DF-UKS Final Energy:   -27.51444567274872

   => Energetics <=

    Nuclear Repulsion Energy =              1.4806271166762652
    One-Electron Energy =                 -41.0940586945794166
    Two-Electron Energy =                  16.3018818868610680
    DFT Exchange-Correlation Energy =      -4.2028959817066385
    Empirical Dispersion Energy =           0.0000000000000000
    VV10 Nonlocal Energy =                  0.0000000000000000
    Total Energy =                        -27.5144456727487210

  UHF NO Occupations:
  HONO-2 :    1 A1 2.0000000
  HONO-1 :    2 A1 2.0000000
  HONO-0 :    3 A1 2.0000000
  LUNO+0 :    4 A1 0.0000000
  LUNO+1 :    2 B1 0.0000000
  LUNO+2 :    5 A1 0.0000000
  LUNO+3 :    6 A1 0.0000000

Computation Completed

Properties will be evaluated at   0.000000,   0.000000,   0.000000 [a0]

Properties computed using the SCF density matrix

 Multipole Moments:

 ------------------------------------------------------------------------------------
     Multipole            Electronic (a.u.)      Nuclear  (a.u.)        Total (a.u.)
 ------------------------------------------------------------------------------------

 L = 1.  Multiply by 2.5417464519 to convert [e a0] to [Debye]
 Dipole X            :          0.0000000            0.0000000            0.0000000
 Dipole Y            :          0.0000000            0.0000000            0.0000000
 Dipole Z            :          0.8992383            0.9023219            1.8015603
 Magnitude           :                                                    1.8015603

 ------------------------------------------------------------------------------------

*** tstop() called on Joses-MacBook-Pro-2.local at Thu Jul 17 09:18:24 2025
Module time:
	user time   =       0.67 seconds =       0.01 minutes
	system time =       3.11 seconds =       0.05 minutes
	total time  =          0 seconds =       0.00 minutes
Total time:
	user time   =      19.94 seconds =       0.33 minutes
	system time =      62.91 seconds =       1.05 minutes
	total time  =          8 seconds =       0.13 minutes

*** tstart() called on Joses-MacBook-Pro-2.local
*** at Thu Jul 17 09:18:24 2025

         ------------------------------------------------------------
                                   SCF GRAD
                          Rob Parrish, Justin Turney,
                       Andy Simmonett, and Alex Sokolov
         ------------------------------------------------------------

  ==> Geometry <==

    Molecular point group: c2v
    Full point group: C_inf_v

    Geometry (in Angstrom), charge = -1, multiplicity = 1:

       Center              X                  Y                   Z               Mass
    ------------   -----------------  -----------------  -----------------  -----------------
         HE           0.000000000000     0.000000000000     2.621074948593     4.002603254130
         B            0.000000000000     0.000000000000    -0.952932340007    11.009305360000

  Nuclear repulsion =    1.480627116676265

  ==> Basis Set <==

  Basis Set: CC-PVDZ
    Blend: CC-PVDZ
    Number of shells: 9
    Number of basis functions: 19
    Number of Cartesian functions: 20
    Spherical Harmonics?: true
    Max angular momentum: 2

  ==> DFJKGrad: Density-Fitted SCF Gradients <==

    Gradient:                    1
    J tasked:                  Yes
    K tasked:                  Yes
    wK tasked:                  No
    OpenMP threads:              1
    Integrals threads:           1
    Memory [MiB]:              375
    Schwarz Cutoff:          1E-12
    Fitting Condition:       1E-10

   => Auxiliary Basis Set <=

  Basis Set: (CC-PVDZ AUX)
    Blend: CC-PVDZ-JKFIT + DEF2-UNIVERSAL-JKFIT
    Number of shells: 33
    Number of basis functions: 93
    Number of Cartesian functions: 106
    Spherical Harmonics?: true
    Max angular momentum: 3

  ==> DFT Potential <==

   => LibXC <=

    Version 6.2.2
    S. Lehtola, C. Steigemann, M. J.T. Oliveira, and M. A.L. Marques.,  SoftwareX 7, 1â€“5 (2018) (10.1016/j.softx.2017.11.002)

   => Composite Functional: B3LYP <=

    B3LYP Hyb-GGA Exchange-Correlation Functional

    P. J. Stephens, F. J. Devlin, C. F. Chabalowski, and M. J. Frisch.,  J. Phys. Chem. 98, 11623 (1994) (10.1021/j100096a001)

    Deriv               =              1
    GGA                 =           TRUE
    Meta                =          FALSE

    Exchange Hybrid     =           TRUE
    MP2 Hybrid          =          FALSE

   => Exchange Functionals <=

    0.0800   Slater exchange
    0.7200         Becke 88

   => Exact (HF) Exchange <=

    0.2000               HF

   => Correlation Functionals <=

    0.1900   Vosko, Wilk & Nusair (VWN5_RPA)
    0.8100   Lee, Yang & Parr

   => LibXC Density Thresholds  <==

    XC_HYB_GGA_XC_B3LYP:  1.00E-15

   => Molecular Quadrature <=

    Radial Scheme          =       TREUTLER
    Pruning Scheme         =           NONE
    Nuclear Scheme         =       TREUTLER

    Blocking Scheme        =         OCTREE
    BS radius alpha        =              1
    Pruning alpha          =              1
    Radial Points          =             75
    Spherical Points       =            302
    Total Points           =          43679
    Total Blocks           =            396
    Max Points             =            254
    Max Functions          =             19
    Weights Tolerance      =       1.00E-15

  -Total Gradient:
     Atom            X                  Y                   Z
    ------   -----------------  -----------------  -----------------
       1       -0.000000000000     0.000000000000    -0.000006166594
       2       -0.000000000000     0.000000000000     0.000000739165

*** tstop() called on Joses-MacBook-Pro-2.local at Thu Jul 17 09:18:24 2025
Module time:
	user time   =       0.32 seconds =       0.01 minutes
	system time =       0.81 seconds =       0.01 minutes
	total time  =          0 seconds =       0.00 minutes
Total time:
	user time   =      20.27 seconds =       0.34 minutes
	system time =      63.72 seconds =       1.06 minutes
	total time  =          8 seconds =       0.13 minutes

    			-----------------------------------------

    			 OPTKING 3.0: for geometry optimizations

    			     By R.A. King, Bethel University

    			        with contributions from

    			    A.V. Copan, J. Cayton, A. Heide

    			-----------------------------------------

	                            ===> Fragment 1 <==

	 Z (Atomic Numbers)          Masses                          Geom
	       2.000000             4.002603          0.00000000  0.00000000  4.95311381
	       5.000000            11.009305          0.00000000  0.00000000 -1.80078114

	 - Coordinate -           - BOHR/RAD -       - ANG/DEG -
	 R(1,2)           =         6.753895           3.574007

	        --- Internal Coordinate Step in ANG or DEG, aJ/ANG or AJ/DEG ---
	-------------------------------------------------------------------------------
	           Coordinate      Previous         Force          Change          New
	           ----------      --------        ------          ------        ------
	               R(1,2)       3.57401        0.00003        0.00747       3.58147
	-------------------------------------------------------------------------------

	                                 ==> Convergence Check <==

	Measures of convergence in internal coordinates in au.

	Criteria marked as inactive (o), active & met (*), and active & unmet ( ).

	----------------------------------------------------------------------------------------------
	   Step    Total Energy     Delta E     Max Force     RMS Force      Max Disp      RMS Disp
	----------------------------------------------------------------------------------------------
	  Convergence Criteria     1.00e-06 *    3.00e-04 *             o    1.20e-03 *             o
	----------------------------------------------------------------------------------------------
	    16     -27.51444567   -4.43e-07 *    3.45e-06 *    3.45e-06 o    1.41e-02      1.41e-02 o  ~
	----------------------------------------------------------------------------------------------

Next Geometry in Ang
	Fragment 1 (Ang)

	   He   0.0000000000   0.0000000000   2.6248087598
	    B   0.0000000000   0.0000000000  -0.9566661513

    Final optimized geometry and variables:
    Molecular point group: c2v
    Full point group: C_inf_v

    Geometry (in Angstrom), charge = -1, multiplicity = 1:

    HE           0.000000000000     0.000000000000     2.621074948593
    B            0.000000000000     0.000000000000    -0.952932340007

    Psi4 stopped on: Thursday, 17 July 2025 09:18AM
    Psi4 wall time for execution: 0:00:09.45

*** Psi4 exiting successfully. Buy a developer a beer!
