                               Psi4 1.9.1 release

  ==> Input File <==

--------------------------------------------------------------------------
molecule {
-1 1
Be   0.00000        0.60000        0.00000
P   0.00000       -0.60000        0.00000
}

set {
basis              cc-pvdz
reference          uks
maxiter            500
geom_maxiter       500
DAMPING_PERCENTAGE 1
guess              SAP
}

optimize('b3lyp')
--------------------------------------------------------------------------

    Molecular point group: c2v
  Charge       = -1
  Multiplicity = 1
  Basis Set: CC-PVDZ
    Blend: CC-PVDZ
  Basis Set: (CC-PVDZ AUX)
    Blend: CC-PVDZ-JKFIT + DEF2-UNIVERSAL-JKFIT
  @DF-UKS Final Energy:  -355.62527766596583
    Total Energy =                       -355.6252776659658252
 Dipole X            :          0.0000000            0.0000000            0.0000000
 Dipole Y            :          0.0000000            0.0000000            0.0000000
 Dipole Z            :          0.3018018           -0.6401447           -0.3383429
 Magnitude           :                                                    0.3383429
    Molecular point group: c2v
  Basis Set: CC-PVDZ
    Blend: CC-PVDZ
  Basis Set: (CC-PVDZ AUX)
    Blend: CC-PVDZ-JKFIT + DEF2-UNIVERSAL-JKFIT
  Basis Set: CC-PVDZ
    Blend: CC-PVDZ
  Basis Set: (CC-PVDZ AUX)
    Blend: CC-PVDZ-JKFIT + DEF2-UNIVERSAL-JKFIT
  @DF-UKS Final Energy:  -355.81211717239398
    Total Energy =                       -355.8121171723939824
  Basis Set: CC-PVDZ
    Blend: CC-PVDZ
  Basis Set: (CC-PVDZ AUX)
    Blend: CC-PVDZ-JKFIT + DEF2-UNIVERSAL-JKFIT
  Basis Set: CC-PVDZ
    Blend: CC-PVDZ
  @DF-UKS Final Energy:  -355.94962751940142
    Total Energy =                       -355.9496275194014174
  @DF-UKS Final Energy:  -356.01720283270095
    Total Energy =                       -356.0172028327009457
  @DF-UKS Final Energy:  -356.03909075450417
    Total Energy =                       -356.0390907545041728
  @DF-UKS Final Energy:  -356.04515405018412
    Total Energy =                       -356.0451540501841237
  @DF-UKS Final Energy:  -356.04600767585754
    Total Energy =                       -356.0460076758575383
  @DF-UKS Final Energy:  -356.04614521093401
    Total Energy =                       -356.0461452109340144
  @DF-UKS Final Energy:  -356.04616898153188
    Total Energy =                       -356.0461689815319346
  Basis Set: (CC-PVDZ AUX)
    Blend: CC-PVDZ-JKFIT + DEF2-UNIVERSAL-JKFIT
  Basis Set: CC-PVDZ
    Blend: CC-PVDZ
  Basis Set: (CC-PVDZ AUX)
    Blend: CC-PVDZ-JKFIT + DEF2-UNIVERSAL-JKFIT
  @DF-UKS Final Energy:  -356.04617381488720
    Total Energy =                       -356.0461738148871973
  Basis Set: CC-PVDZ
    Blend: CC-PVDZ
  Basis Set: (CC-PVDZ AUX)
    Blend: CC-PVDZ-JKFIT + DEF2-UNIVERSAL-JKFIT
  Charge       = -1
  Multiplicity = 1
  Basis Set: CC-PVDZ
    Blend: CC-PVDZ
  Basis Set: (CC-PVDZ AUX)
    Blend: CC-PVDZ-JKFIT + DEF2-UNIVERSAL-JKFIT

    Orbital Energies [Eh]
    ---------------------

    Alpha Occupied:

       1A1   -76.813758     2A1    -6.281803     3A1    -4.445291
       1B2    -4.440864     1B1    -4.440864     4A1    -3.838118
       5A1    -0.297635     6A1    -0.039411     2B1     0.027919
       2B2     0.027919

    Alpha Virtual:

       7A1     0.075839     3B2     0.193855     3B1     0.193855
       8A1     0.255803     9A1     0.365972     4B1     0.377898
       4B2     0.377898    10A1     0.466548    11A1     0.619561
       5B2     0.637703     5B1     0.637703    12A1     0.650881
       1A2     0.650882     6B2     0.728664     6B1     0.728664
      13A1     0.783300    14A1     0.823513     2A2     0.823514
      15A1     1.038904     7B2     1.048334     7B1     1.048334
      16A1     1.338968

    Beta Occupied:

       1A1   -76.813758     2A1    -6.281803     3A1    -4.445291
       1B2    -4.440864     1B1    -4.440864     4A1    -3.838118
       5A1    -0.297635     6A1    -0.039411     2B1     0.027919
       2B2     0.027919

    Beta Virtual:

       7A1     0.075839     3B2     0.193855     3B1     0.193855
       8A1     0.255803     9A1     0.365972     4B1     0.377898
       4B2     0.377898    10A1     0.466548    11A1     0.619561
       5B2     0.637703     5B1     0.637703    12A1     0.650881
       1A2     0.650882     6B2     0.728664     6B1     0.728664
      13A1     0.783300    14A1     0.823513     2A2     0.823514
      15A1     1.038904     7B2     1.048334     7B1     1.048334
      16A1     1.338968

    Final Occupation by Irrep:
             A1    A2    B1    B2
    DOCC [     6,    0,    2,    2 ]
    SOCC [     0,    0,    0,    0 ]
    NA   [     6,    0,    2,    2 ]
    NB   [     6,    0,    2,    2 ]

  @DF-UKS Final Energy:  -356.04617416607260

   => Energetics <=

    Nuclear Repulsion Energy =             16.9848612404123323
    One-Electron Energy =                -529.8954196341053375
    Two-Electron Energy =                 178.0155570439685562
    DFT Exchange-Correlation Energy =     -21.1511728163481258
    Empirical Dispersion Energy =           0.0000000000000000
    VV10 Nonlocal Energy =                  0.0000000000000000
    Total Energy =                       -356.0461741660726034

  UHF NO Occupations:
  HONO-2 :    2 B2 2.0000000
  HONO-1 :    5 A1 2.0000000
  HONO-0 :    6 A1 2.0000000
  LUNO+0 :    7 A1 0.0000000
  LUNO+1 :    8 A1 0.0000000
  LUNO+2 :    3 B2 0.0000000
  LUNO+3 :    9 A1 0.0000000

Computation Completed

Properties will be evaluated at   0.000000,   0.000000,   0.000000 [a0]

Properties computed using the SCF density matrix

 Multipole Moments:

 ------------------------------------------------------------------------------------
     Multipole            Electronic (a.u.)      Nuclear  (a.u.)        Total (a.u.)
 ------------------------------------------------------------------------------------

 L = 1.  Multiply by 2.5417464519 to convert [e a0] to [Debye]
 Dipole X            :          0.0000000            0.0000000            0.0000000
 Dipole Y            :          0.0000000            0.0000000            0.0000000
 Dipole Z            :          0.9179350           -0.9972115           -0.0792764
 Magnitude           :                                                    0.0792764

 ------------------------------------------------------------------------------------

*** tstop() called on Joses-MacBook-Pro-2.local at Thu Jul 17 09:45:21 2025
Module time:
	user time   =       2.75 seconds =       0.05 minutes
	system time =       4.18 seconds =       0.07 minutes
	total time  =          0 seconds =       0.00 minutes
Total time:
	user time   =      66.06 seconds =       1.10 minutes
	system time =      70.04 seconds =       1.17 minutes
	total time  =         14 seconds =       0.23 minutes

*** tstart() called on Joses-MacBook-Pro-2.local
*** at Thu Jul 17 09:45:21 2025

         ------------------------------------------------------------
                                   SCF GRAD
                          Rob Parrish, Justin Turney,
                       Andy Simmonett, and Alex Sokolov
         ------------------------------------------------------------

  ==> Geometry <==

    Molecular point group: c2v
    Full point group: C_inf_v

    Geometry (in Angstrom), charge = -1, multiplicity = 1:

       Center              X                  Y                   Z               Mass
    ------------   -----------------  -----------------  -----------------  -----------------
         BE           0.000000000000     0.000000000000     1.448028040511     9.012183065000
         P            0.000000000000     0.000000000000    -0.421320916232    30.973761998420

  Nuclear repulsion =   16.984861240412332

  ==> Basis Set <==

  Basis Set: CC-PVDZ
    Blend: CC-PVDZ
    Number of shells: 14
    Number of basis functions: 32
    Number of Cartesian functions: 34
    Spherical Harmonics?: true
    Max angular momentum: 2

  ==> DFJKGrad: Density-Fitted SCF Gradients <==

    Gradient:                    1
    J tasked:                  Yes
    K tasked:                  Yes
    wK tasked:                  No
    OpenMP threads:              1
    Integrals threads:           1
    Memory [MiB]:              375
    Schwarz Cutoff:          1E-12
    Fitting Condition:       1E-10

   => Auxiliary Basis Set <=

  Basis Set: (CC-PVDZ AUX)
    Blend: CC-PVDZ-JKFIT + DEF2-UNIVERSAL-JKFIT
    Number of shells: 53
    Number of basis functions: 163
    Number of Cartesian functions: 190
    Spherical Harmonics?: true
    Max angular momentum: 3

  ==> DFT Potential <==

   => LibXC <=

    Version 6.2.2
    S. Lehtola, C. Steigemann, M. J.T. Oliveira, and M. A.L. Marques.,  SoftwareX 7, 1â€“5 (2018) (10.1016/j.softx.2017.11.002)

   => Composite Functional: B3LYP <=

    B3LYP Hyb-GGA Exchange-Correlation Functional

    P. J. Stephens, F. J. Devlin, C. F. Chabalowski, and M. J. Frisch.,  J. Phys. Chem. 98, 11623 (1994) (10.1021/j100096a001)

    Deriv               =              1
    GGA                 =           TRUE
    Meta                =          FALSE

    Exchange Hybrid     =           TRUE
    MP2 Hybrid          =          FALSE

   => Exchange Functionals <=

    0.0800   Slater exchange
    0.7200         Becke 88

   => Exact (HF) Exchange <=

    0.2000               HF

   => Correlation Functionals <=

    0.1900   Vosko, Wilk & Nusair (VWN5_RPA)
    0.8100   Lee, Yang & Parr

   => LibXC Density Thresholds  <==

    XC_HYB_GGA_XC_B3LYP:  1.00E-15

   => Molecular Quadrature <=

    Radial Scheme          =       TREUTLER
    Pruning Scheme         =           NONE
    Nuclear Scheme         =       TREUTLER

    Blocking Scheme        =         OCTREE
    BS radius alpha        =              1
    Pruning alpha          =              1
    Radial Points          =             75
    Spherical Points       =            302
    Total Points           =          42761
    Total Blocks           =            402
    Max Points             =            255
    Max Functions          =             32
    Weights Tolerance      =       1.00E-15

  -Total Gradient:
     Atom            X                  Y                   Z
    ------   -----------------  -----------------  -----------------
       1        0.000000000000    -0.000000000000    -0.000046766465
       2       -0.000000000000     0.000000000000     0.000033402756

*** tstop() called on Joses-MacBook-Pro-2.local at Thu Jul 17 09:45:22 2025
Module time:
	user time   =       0.80 seconds =       0.01 minutes
	system time =       2.22 seconds =       0.04 minutes
	total time  =          1 seconds =       0.02 minutes
Total time:
	user time   =      66.86 seconds =       1.11 minutes
	system time =      72.26 seconds =       1.20 minutes
	total time  =         15 seconds =       0.25 minutes

    			-----------------------------------------

    			 OPTKING 3.0: for geometry optimizations

    			     By R.A. King, Bethel University

    			        with contributions from

    			    A.V. Copan, J. Cayton, A. Heide

    			-----------------------------------------

	                            ===> Fragment 1 <==

	 Z (Atomic Numbers)          Masses                          Geom
	       4.000000             9.012183          0.00000000  0.00000000  2.73637642
	      15.000000            30.973762          0.00000000  0.00000000 -0.79618114

	 - Coordinate -           - BOHR/RAD -       - ANG/DEG -
	 R(1,2)           =         3.532558           1.869349

	        --- Internal Coordinate Step in ANG or DEG, aJ/ANG or AJ/DEG ---
	-------------------------------------------------------------------------------
	           Coordinate      Previous         Force          Change          New
	           ----------      --------        ------          ------        ------
	               R(1,2)       1.86935        0.00033        0.00011       1.86946
	-------------------------------------------------------------------------------

	                                 ==> Convergence Check <==

	Measures of convergence in internal coordinates in au.

	Criteria marked as inactive (o), active & met (*), and active & unmet ( ).

	----------------------------------------------------------------------------------------------
	   Step    Total Energy     Delta E     Max Force     RMS Force      Max Disp      RMS Disp
	----------------------------------------------------------------------------------------------
	  Convergence Criteria     1.00e-06 *    3.00e-04 *             o    1.20e-03 *             o
	----------------------------------------------------------------------------------------------
	    11    -356.04617417   -3.51e-07 *    4.01e-05 *    4.01e-05 o    2.08e-04 *    2.08e-04 o  ~
	----------------------------------------------------------------------------------------------

Next Geometry in Ang
	Fragment 1 (Ang)

	   Be   0.0000000000   0.0000000000   1.4480830529
	    P   0.0000000000   0.0000000000  -0.4213759286

    Final optimized geometry and variables:
    Molecular point group: c2v
    Full point group: C_inf_v

    Geometry (in Angstrom), charge = -1, multiplicity = 1:

    BE           0.000000000000     0.000000000000     1.448028040511
    P            0.000000000000     0.000000000000    -0.421320916232

    Psi4 stopped on: Thursday, 17 July 2025 09:45AM
    Psi4 wall time for execution: 0:00:14.95

*** Psi4 exiting successfully. Buy a developer a beer!
