                               Psi4 1.9.1 release

  ==> Input File <==

--------------------------------------------------------------------------
molecule {
-1 1
O   0.00000        0.60000        0.00000
Na   0.00000       -0.60000        0.00000
}

set {
basis              cc-pvdz
reference          uks
maxiter            500
geom_maxiter       500
DAMPING_PERCENTAGE 1
guess              SAP
}

optimize('b3lyp')
--------------------------------------------------------------------------

    Molecular point group: c2v
  Charge       = -1
  Multiplicity = 1
  Basis Set: CC-PVDZ
    Blend: CC-PVDZ
  Basis Set: (CC-PVDZ AUX)
    Blend: CC-PVDZ-JKFIT + DEF2-UNIVERSAL-JKFIT
  @DF-UKS Final Energy:  -237.01679803019223
    Total Energy =                       -237.0167980301922341
 Dipole X            :          0.0000000            0.0000000            0.0000000
 Dipole Y            :          0.0000000            0.0000000            0.0000000
 Dipole Z            :          1.3340485            0.4638392            1.7978877
 Magnitude           :                                                    1.7978877
    Molecular point group: c2v
  Basis Set: CC-PVDZ
    Blend: CC-PVDZ
  Basis Set: (CC-PVDZ AUX)
    Blend: CC-PVDZ-JKFIT + DEF2-UNIVERSAL-JKFIT
  Basis Set: CC-PVDZ
    Blend: CC-PVDZ
  Basis Set: (CC-PVDZ AUX)
    Blend: CC-PVDZ-JKFIT + DEF2-UNIVERSAL-JKFIT
  @DF-UKS Final Energy:  -237.19464983567818
    Total Energy =                       -237.1946498356781774
  Basis Set: CC-PVDZ
    Blend: CC-PVDZ
  Basis Set: (CC-PVDZ AUX)
    Blend: CC-PVDZ-JKFIT + DEF2-UNIVERSAL-JKFIT
  Basis Set: CC-PVDZ
    Blend: CC-PVDZ
  @DF-UKS Final Energy:  -237.33639854647063
    Total Energy =                       -237.3363985464706332
  @DF-UKS Final Energy:  -237.41180347540111
    Total Energy =                       -237.4118034754011148
  @DF-UKS Final Energy:  -237.43858148517506
    Total Energy =                       -237.4385814851750638
  @DF-UKS Final Energy:  -237.44808351063992
    Total Energy =                       -237.4480835106399184
  @DF-UKS Final Energy:  -237.45010307585707
    Total Energy =                       -237.4501030758570721
  @DF-UKS Final Energy:  -237.45071924193672
    Total Energy =                       -237.4507192419367243
  @DF-UKS Final Energy:  -237.45080457635919
    Total Energy =                       -237.4508045763591895
  @DF-UKS Final Energy:  -237.45081720366281
    Total Energy =                       -237.4508172036628082
  Basis Set: (CC-PVDZ AUX)
    Blend: CC-PVDZ-JKFIT + DEF2-UNIVERSAL-JKFIT
  Basis Set: CC-PVDZ
    Blend: CC-PVDZ
  Basis Set: (CC-PVDZ AUX)
    Blend: CC-PVDZ-JKFIT + DEF2-UNIVERSAL-JKFIT
  @DF-UKS Final Energy:  -237.45081923677532
    Total Energy =                       -237.4508192367753168
  Basis Set: CC-PVDZ
    Blend: CC-PVDZ
  Basis Set: (CC-PVDZ AUX)
    Blend: CC-PVDZ-JKFIT + DEF2-UNIVERSAL-JKFIT
  Charge       = -1
  Multiplicity = 1
  Basis Set: CC-PVDZ
    Blend: CC-PVDZ
  Basis Set: (CC-PVDZ AUX)
    Blend: CC-PVDZ-JKFIT + DEF2-UNIVERSAL-JKFIT

    Orbital Energies [Eh]
    ---------------------

    Alpha Occupied:

       1A1   -38.241163     2A1   -18.834344     3A1    -1.994281
       1B2    -0.926040     1B1    -0.926040     4A1    -0.924980
       5A1    -0.547020     6A1     0.019861     2B1     0.024301
       2B2     0.024301

    Alpha Virtual:

       7A1     0.076924     3B1     0.118685     3B2     0.118685
       8A1     0.141382     9A1     0.196511     4B1     0.238537
       4B2     0.238537    10A1     0.293633     1A2     0.343227
      11A1     0.343227     5B1     0.397765     5B2     0.397765
      12A1     0.464777    13A1     1.275691     6B2     1.340250
       6B1     1.340250    14A1     1.923264    15A1     2.912623
       7B1     2.930187     7B2     2.930187     2A2     2.942294
      16A1     2.942460

    Beta Occupied:

       1A1   -38.241163     2A1   -18.834344     3A1    -1.994281
       1B2    -0.926040     1B1    -0.926040     4A1    -0.924980
       5A1    -0.547020     6A1     0.019861     2B1     0.024301
       2B2     0.024301

    Beta Virtual:

       7A1     0.076924     3B1     0.118685     3B2     0.118685
       8A1     0.141382     9A1     0.196511     4B1     0.238537
       4B2     0.238537    10A1     0.293633     1A2     0.343227
      11A1     0.343227     5B1     0.397765     5B2     0.397765
      12A1     0.464777    13A1     1.275691     6B2     1.340250
       6B1     1.340250    14A1     1.923264    15A1     2.912623
       7B1     2.930187     7B2     2.930187     2A2     2.942294
      16A1     2.942460

    Final Occupation by Irrep:
             A1    A2    B1    B2
    DOCC [     6,    0,    2,    2 ]
    SOCC [     0,    0,    0,    0 ]
    NA   [     6,    0,    2,    2 ]
    NB   [     6,    0,    2,    2 ]

  @DF-UKS Final Energy:  -237.45081928081078

   => Energetics <=

    Nuclear Repulsion Energy =             23.6847551666911507
    One-Electron Energy =                -384.2158117850343615
    Two-Electron Energy =                 141.7905910065233570
    DFT Exchange-Correlation Energy =     -18.7103536689909404
    Empirical Dispersion Energy =           0.0000000000000000
    VV10 Nonlocal Energy =                  0.0000000000000000
    Total Energy =                       -237.4508192808107765

  UHF NO Occupations:
  HONO-2 :    2 B1 2.0000000
  HONO-1 :    5 A1 2.0000000
  HONO-0 :    6 A1 2.0000000
  LUNO+0 :    7 A1 0.0000000
  LUNO+1 :    3 B2 0.0000000
  LUNO+2 :    3 B1 0.0000000
  LUNO+3 :    8 A1 0.0000000

Computation Completed

Properties will be evaluated at   0.000000,   0.000000,   0.000000 [a0]

Properties computed using the SCF density matrix

 Multipole Moments:

 ------------------------------------------------------------------------------------
     Multipole            Electronic (a.u.)      Nuclear  (a.u.)        Total (a.u.)
 ------------------------------------------------------------------------------------

 L = 1.  Multiply by 2.5417464519 to convert [e a0] to [Debye]
 Dipole X            :          0.0000000            0.0000000            0.0000000
 Dipole Y            :          0.0000000            0.0000000            0.0000000
 Dipole Z            :         -1.8608929            0.7599781           -1.1009148
 Magnitude           :                                                    1.1009148

 ------------------------------------------------------------------------------------

*** tstop() called on Joses-MacBook-Pro-2.local at Thu Jul 17 10:40:00 2025
Module time:
	user time   =       3.20 seconds =       0.05 minutes
	system time =       4.11 seconds =       0.07 minutes
	total time  =          0 seconds =       0.00 minutes
Total time:
	user time   =      61.43 seconds =       1.02 minutes
	system time =      83.46 seconds =       1.39 minutes
	total time  =         15 seconds =       0.25 minutes

*** tstart() called on Joses-MacBook-Pro-2.local
*** at Thu Jul 17 10:40:00 2025

         ------------------------------------------------------------
                                   SCF GRAD
                          Rob Parrish, Justin Turney,
                       Andy Simmonett, and Alex Sokolov
         ------------------------------------------------------------

  ==> Geometry <==

    Molecular point group: c2v
    Full point group: C_inf_v

    Geometry (in Angstrom), charge = -1, multiplicity = 1:

       Center              X                  Y                   Z               Mass
    ------------   -----------------  -----------------  -----------------  -----------------
         O            0.000000000000     0.000000000000     1.159459279910    15.994914619570
         NA           0.000000000000     0.000000000000    -0.806682831808    22.989769282000

  Nuclear repulsion =   23.684755166691151

  ==> Basis Set <==

  Basis Set: CC-PVDZ
    Blend: CC-PVDZ
    Number of shells: 14
    Number of basis functions: 32
    Number of Cartesian functions: 34
    Spherical Harmonics?: true
    Max angular momentum: 2

  ==> DFJKGrad: Density-Fitted SCF Gradients <==

    Gradient:                    1
    J tasked:                  Yes
    K tasked:                  Yes
    wK tasked:                  No
    OpenMP threads:              1
    Integrals threads:           1
    Memory [MiB]:              375
    Schwarz Cutoff:          1E-12
    Fitting Condition:       1E-10

   => Auxiliary Basis Set <=

  Basis Set: (CC-PVDZ AUX)
    Blend: CC-PVDZ-JKFIT + DEF2-UNIVERSAL-JKFIT
    Number of shells: 58
    Number of basis functions: 182
    Number of Cartesian functions: 218
    Spherical Harmonics?: true
    Max angular momentum: 4

  ==> DFT Potential <==

   => LibXC <=

    Version 6.2.2
    S. Lehtola, C. Steigemann, M. J.T. Oliveira, and M. A.L. Marques.,  SoftwareX 7, 1â€“5 (2018) (10.1016/j.softx.2017.11.002)

   => Composite Functional: B3LYP <=

    B3LYP Hyb-GGA Exchange-Correlation Functional

    P. J. Stephens, F. J. Devlin, C. F. Chabalowski, and M. J. Frisch.,  J. Phys. Chem. 98, 11623 (1994) (10.1021/j100096a001)

    Deriv               =              1
    GGA                 =           TRUE
    Meta                =          FALSE

    Exchange Hybrid     =           TRUE
    MP2 Hybrid          =          FALSE

   => Exchange Functionals <=

    0.0800   Slater exchange
    0.7200         Becke 88

   => Exact (HF) Exchange <=

    0.2000               HF

   => Correlation Functionals <=

    0.1900   Vosko, Wilk & Nusair (VWN5_RPA)
    0.8100   Lee, Yang & Parr

   => LibXC Density Thresholds  <==

    XC_HYB_GGA_XC_B3LYP:  1.00E-15

   => Molecular Quadrature <=

    Radial Scheme          =       TREUTLER
    Pruning Scheme         =           NONE
    Nuclear Scheme         =       TREUTLER

    Blocking Scheme        =         OCTREE
    BS radius alpha        =              1
    Pruning alpha          =              1
    Radial Points          =             75
    Spherical Points       =            302
    Total Points           =          43770
    Total Blocks           =            423
    Max Points             =            256
    Max Functions          =             32
    Weights Tolerance      =       1.00E-15

  -Total Gradient:
     Atom            X                  Y                   Z
    ------   -----------------  -----------------  -----------------
       1       -0.000000000000     0.000000000000    -0.000067183100
       2        0.000000000000     0.000000000000    -0.000023589766

*** tstop() called on Joses-MacBook-Pro-2.local at Thu Jul 17 10:40:01 2025
Module time:
	user time   =       0.71 seconds =       0.01 minutes
	system time =       1.92 seconds =       0.03 minutes
	total time  =          1 seconds =       0.02 minutes
Total time:
	user time   =      62.15 seconds =       1.04 minutes
	system time =      85.38 seconds =       1.42 minutes
	total time  =         16 seconds =       0.27 minutes

    			-----------------------------------------

    			 OPTKING 3.0: for geometry optimizations

    			     By R.A. King, Bethel University

    			        with contributions from

    			    A.V. Copan, J. Cayton, A. Heide

    			-----------------------------------------

	                            ===> Fragment 1 <==

	 Z (Atomic Numbers)          Masses                          Geom
	       8.000000            15.994915          0.00000000  0.00000000  2.19106049
	      11.000000            22.989769          0.00000000  0.00000000 -1.52440962

	 - Coordinate -           - BOHR/RAD -       - ANG/DEG -
	 R(1,2)           =         3.715470           1.966142

	        --- Internal Coordinate Step in ANG or DEG, aJ/ANG or AJ/DEG ---
	-------------------------------------------------------------------------------
	           Coordinate      Previous         Force          Change          New
	           ----------      --------        ------          ------        ------
	               R(1,2)       1.96614        0.00018        0.00010       1.96624
	-------------------------------------------------------------------------------

	                                 ==> Convergence Check <==

	Measures of convergence in internal coordinates in au.

	Criteria marked as inactive (o), active & met (*), and active & unmet ( ).

	----------------------------------------------------------------------------------------------
	   Step    Total Energy     Delta E     Max Force     RMS Force      Max Disp      RMS Disp
	----------------------------------------------------------------------------------------------
	  Convergence Criteria     1.00e-06 *    3.00e-04 *             o    1.20e-03 *             o
	----------------------------------------------------------------------------------------------
	    12    -237.45081928   -4.40e-08 *    2.18e-05 *    2.18e-05 o    1.88e-04 *    1.88e-04 o  ~
	----------------------------------------------------------------------------------------------

Next Geometry in Ang
	Fragment 1 (Ang)

	    O   0.0000000000   0.0000000000   1.1595089698
	   Na   0.0000000000   0.0000000000  -0.8067325217

    Final optimized geometry and variables:
    Molecular point group: c2v
    Full point group: C_inf_v

    Geometry (in Angstrom), charge = -1, multiplicity = 1:

    O            0.000000000000     0.000000000000     1.159459279910
    NA           0.000000000000     0.000000000000    -0.806682831808

    Psi4 stopped on: Thursday, 17 July 2025 10:40AM
    Psi4 wall time for execution: 0:00:15.96

*** Psi4 exiting successfully. Buy a developer a beer!
