                               Psi4 1.9.1 release

  ==> Input File <==

--------------------------------------------------------------------------
molecule {
-1 1
P   0.00000        0.60000        0.00000
S   0.00000       -0.60000        0.00000
}

set {
basis              cc-pvdz
reference          uks
maxiter            500
geom_maxiter       500
DAMPING_PERCENTAGE 1
guess              SAP
}

optimize('b3lyp')
--------------------------------------------------------------------------

    Molecular point group: c2v
  Charge       = -1
  Multiplicity = 1
  Basis Set: CC-PVDZ
    Blend: CC-PVDZ
  Basis Set: (CC-PVDZ AUX)
    Blend: CC-PVDZ-JKFIT
  @DF-UKS Final Energy:  -738.28315000541215
    Total Energy =                       -738.2831500054120397
 Dipole X            :          0.0000000            0.0000000            0.0000000
 Dipole Y            :          0.0000000            0.0000000            0.0000000
 Dipole Z            :         -0.2074995           -0.5763806           -0.7838801
 Magnitude           :                                                    0.7838801
    Molecular point group: c2v
  Basis Set: CC-PVDZ
    Blend: CC-PVDZ
  Basis Set: (CC-PVDZ AUX)
    Blend: CC-PVDZ-JKFIT
  Basis Set: CC-PVDZ
    Blend: CC-PVDZ
  Basis Set: (CC-PVDZ AUX)
    Blend: CC-PVDZ-JKFIT
  @DF-UKS Final Energy:  -738.32501830261128
    Total Energy =                       -738.3250183026111699
  Basis Set: CC-PVDZ
    Blend: CC-PVDZ
  Basis Set: (CC-PVDZ AUX)
    Blend: CC-PVDZ-JKFIT
  Basis Set: CC-PVDZ
    Blend: CC-PVDZ
  @DF-UKS Final Energy:  -738.40302080538993
    Total Energy =                       -738.4030208053899287
  @DF-UKS Final Energy:  -738.65908887206126
    Total Energy =                       -738.6590888720612611
  @DF-UKS Final Energy:  -739.21861607614619
    Total Energy =                       -739.2186160761461906
  @DF-UKS Final Energy:  -739.39984954362160
    Total Energy =                       -739.3998495436215990
  @DF-UKS Final Energy:  -739.50419408564483
    Total Energy =                       -739.5041940856448264
  @DF-UKS Final Energy:  -739.54058960663724
    Total Energy =                       -739.5405896066372406
  @DF-UKS Final Energy:  -739.55789352678744
    Total Energy =                       -739.5578935267874385
  @DF-UKS Final Energy:  -739.56486431769986
    Total Energy =                       -739.5648643176998576
  @DF-UKS Final Energy:  -739.56641908126539
    Total Energy =                       -739.5664190812653942
  @DF-UKS Final Energy:  -739.56687127208716
    Total Energy =                       -739.5668712720872691
  @DF-UKS Final Energy:  -739.56694244081370
    Total Energy =                       -739.5669424408137047
  Basis Set: (CC-PVDZ AUX)
    Blend: CC-PVDZ-JKFIT
  Basis Set: CC-PVDZ
    Blend: CC-PVDZ
  Basis Set: (CC-PVDZ AUX)
    Blend: CC-PVDZ-JKFIT
  @DF-UKS Final Energy:  -739.56695548283381
    Total Energy =                       -739.5669554828338050
  Basis Set: CC-PVDZ
    Blend: CC-PVDZ
  Basis Set: (CC-PVDZ AUX)
    Blend: CC-PVDZ-JKFIT
  Charge       = -1
  Multiplicity = 1
  Basis Set: CC-PVDZ
    Blend: CC-PVDZ
  Basis Set: (CC-PVDZ AUX)
    Blend: CC-PVDZ-JKFIT

    Orbital Energies [Eh]
    ---------------------

    Alpha Occupied:

       1A1   -88.625169     2A1   -76.845291     3A1    -7.685662
       4A1    -6.311975     1B2    -5.648648     5A1    -5.648070
       1B1    -5.640024     2B2    -4.478942     6A1    -4.473940
       2B1    -4.464656     7A1    -0.470046     8A1    -0.265952
       9A1    -0.073502     3B2    -0.055239     3B1    -0.043003
       4B1     0.080817

    Alpha Virtual:

       4B2     0.111560    10A1     0.259369    11A1     0.533629
      12A1     0.607900     5B2     0.621420     5B1     0.641430
      13A1     0.665867     6B2     0.670643     6B1     0.690158
       1A2     0.718547    14A1     0.721258     7B2     0.738037
       7B1     0.752056    15A1     0.874093     2A2     0.874725
      16A1     0.885648    17A1     0.998502     8B2     1.046018
       8B1     1.065268    18A1     1.396978

    Beta Occupied:

       1A1   -88.625169     2A1   -76.845291     3A1    -7.685662
       4A1    -6.311975     1B2    -5.648648     5A1    -5.648070
       1B1    -5.640024     2B2    -4.478942     6A1    -4.473940
       2B1    -4.464656     7A1    -0.470046     8A1    -0.265952
       9A1    -0.073502     3B2    -0.055239     3B1    -0.043003
       4B1     0.080817

    Beta Virtual:

       4B2     0.111560    10A1     0.259369    11A1     0.533629
      12A1     0.607900     5B2     0.621420     5B1     0.641430
      13A1     0.665867     6B2     0.670643     6B1     0.690158
       1A2     0.718547    14A1     0.721258     7B2     0.738037
       7B1     0.752056    15A1     0.874093     2A2     0.874725
      16A1     0.885648    17A1     0.998502     8B2     1.046018
       8B1     1.065268    18A1     1.396978

    Final Occupation by Irrep:
             A1    A2    B1    B2
    DOCC [     9,    0,    4,    3 ]
    SOCC [     0,    0,    0,    0 ]
    NA   [     9,    0,    4,    3 ]
    NB   [     9,    0,    4,    3 ]

  @DF-UKS Final Energy:  -739.56695655386488

   => Energetics <=

    Nuclear Repulsion Energy =             62.1339076977344718
    One-Electron Energy =               -1153.9292616911366167
    Two-Electron Energy =                 391.8276606370926629
    DFT Exchange-Correlation Energy =     -39.5992631975554374
    Empirical Dispersion Energy =           0.0000000000000000
    VV10 Nonlocal Energy =                  0.0000000000000000
    Total Energy =                       -739.5669565538648840

  UHF NO Occupations:
  HONO-2 :    3 B1 2.0000000
  HONO-1 :    4 B1 2.0000000
  HONO-0 :    9 A1 2.0000000
  LUNO+0 :   10 A1 0.0000000
  LUNO+1 :    4 B2 0.0000000
  LUNO+2 :   11 A1 0.0000000
  LUNO+3 :    5 B2 0.0000000

Computation Completed

Properties will be evaluated at   0.000000,   0.000000,   0.000000 [a0]

Properties computed using the SCF density matrix

 Multipole Moments:

 ------------------------------------------------------------------------------------
     Multipole            Electronic (a.u.)      Nuclear  (a.u.)        Total (a.u.)
 ------------------------------------------------------------------------------------

 L = 1.  Multiply by 2.5417464519 to convert [e a0] to [Debye]
 Dipole X            :          0.0000000            0.0000000            0.0000000
 Dipole Y            :          0.0000000            0.0000000            0.0000000
 Dipole Z            :          0.8974487           -0.9817746           -0.0843259
 Magnitude           :                                                    0.0843259

 ------------------------------------------------------------------------------------

*** tstop() called on Joses-MacBook-Pro-2.local at Thu Jul 17 12:00:58 2025
Module time:
	user time   =       7.73 seconds =       0.13 minutes
	system time =       1.72 seconds =       0.03 minutes
	total time  =          1 seconds =       0.02 minutes
Total time:
	user time   =     220.05 seconds =       3.67 minutes
	system time =      43.77 seconds =       0.73 minutes
	total time  =         26 seconds =       0.43 minutes

*** tstart() called on Joses-MacBook-Pro-2.local
*** at Thu Jul 17 12:00:58 2025

         ------------------------------------------------------------
                                   SCF GRAD
                          Rob Parrish, Justin Turney,
                       Andy Simmonett, and Alex Sokolov
         ------------------------------------------------------------

  ==> Geometry <==

    Molecular point group: c2v
    Full point group: C_inf_v

    Geometry (in Angstrom), charge = -1, multiplicity = 1:

       Center              X                  Y                   Z               Mass
    ------------   -----------------  -----------------  -----------------  -----------------
         P            0.000000000000     0.000000000000     1.038215459099    30.973761998420
         S            0.000000000000     0.000000000000    -1.005797790134    31.972071174400

  Nuclear repulsion =   62.133907697734472

  ==> Basis Set <==

  Basis Set: CC-PVDZ
    Blend: CC-PVDZ
    Number of shells: 16
    Number of basis functions: 36
    Number of Cartesian functions: 38
    Spherical Harmonics?: true
    Max angular momentum: 2

  ==> DFJKGrad: Density-Fitted SCF Gradients <==

    Gradient:                    1
    J tasked:                  Yes
    K tasked:                  Yes
    wK tasked:                  No
    OpenMP threads:              1
    Integrals threads:           1
    Memory [MiB]:              375
    Schwarz Cutoff:          1E-12
    Fitting Condition:       1E-10

   => Auxiliary Basis Set <=

  Basis Set: (CC-PVDZ AUX)
    Blend: CC-PVDZ-JKFIT
    Number of shells: 72
    Number of basis functions: 224
    Number of Cartesian functions: 260
    Spherical Harmonics?: true
    Max angular momentum: 3

  ==> DFT Potential <==

   => LibXC <=

    Version 6.2.2
    S. Lehtola, C. Steigemann, M. J.T. Oliveira, and M. A.L. Marques.,  SoftwareX 7, 1â€“5 (2018) (10.1016/j.softx.2017.11.002)

   => Composite Functional: B3LYP <=

    B3LYP Hyb-GGA Exchange-Correlation Functional

    P. J. Stephens, F. J. Devlin, C. F. Chabalowski, and M. J. Frisch.,  J. Phys. Chem. 98, 11623 (1994) (10.1021/j100096a001)

    Deriv               =              1
    GGA                 =           TRUE
    Meta                =          FALSE

    Exchange Hybrid     =           TRUE
    MP2 Hybrid          =          FALSE

   => Exchange Functionals <=

    0.0800   Slater exchange
    0.7200         Becke 88

   => Exact (HF) Exchange <=

    0.2000               HF

   => Correlation Functionals <=

    0.1900   Vosko, Wilk & Nusair (VWN5_RPA)
    0.8100   Lee, Yang & Parr

   => LibXC Density Thresholds  <==

    XC_HYB_GGA_XC_B3LYP:  1.00E-15

   => Molecular Quadrature <=

    Radial Scheme          =       TREUTLER
    Pruning Scheme         =           NONE
    Nuclear Scheme         =       TREUTLER

    Blocking Scheme        =         OCTREE
    BS radius alpha        =              1
    Pruning alpha          =              1
    Radial Points          =             75
    Spherical Points       =            302
    Total Points           =          40834
    Total Blocks           =            366
    Max Points             =            255
    Max Functions          =             36
    Weights Tolerance      =       1.00E-15

  -Total Gradient:
     Atom            X                  Y                   Z
    ------   -----------------  -----------------  -----------------
       1        0.000000000000     0.000000000000    -0.000099530264
       2        0.000000000000    -0.000000000000     0.000107177989

*** tstop() called on Joses-MacBook-Pro-2.local at Thu Jul 17 12:00:58 2025
Module time:
	user time   =       2.75 seconds =       0.05 minutes
	system time =       0.97 seconds =       0.02 minutes
	total time  =          0 seconds =       0.00 minutes
Total time:
	user time   =     222.80 seconds =       3.71 minutes
	system time =      44.74 seconds =       0.75 minutes
	total time  =         26 seconds =       0.43 minutes

    			-----------------------------------------

    			 OPTKING 3.0: for geometry optimizations

    			     By R.A. King, Bethel University

    			        with contributions from

    			    A.V. Copan, J. Cayton, A. Heide

    			-----------------------------------------

	                            ===> Fragment 1 <==

	 Z (Atomic Numbers)          Masses                          Geom
	      15.000000            30.973762          0.00000000  0.00000000  1.96194288
	      16.000000            31.972071          0.00000000  0.00000000 -1.90068236

	 - Coordinate -           - BOHR/RAD -       - ANG/DEG -
	 R(1,2)           =         3.862625           2.044013

	        --- Internal Coordinate Step in ANG or DEG, aJ/ANG or AJ/DEG ---
	-------------------------------------------------------------------------------
	           Coordinate      Previous         Force          Change          New
	           ----------      --------        ------          ------        ------
	               R(1,2)       2.04401        0.00085        0.00024       2.04425
	-------------------------------------------------------------------------------

	                                 ==> Convergence Check <==

	Measures of convergence in internal coordinates in au.

	Criteria marked as inactive (o), active & met (*), and active & unmet ( ).

	----------------------------------------------------------------------------------------------
	   Step    Total Energy     Delta E     Max Force     RMS Force      Max Disp      RMS Disp
	----------------------------------------------------------------------------------------------
	  Convergence Criteria     1.00e-06 *    3.00e-04 *             o    1.20e-03 *             o
	----------------------------------------------------------------------------------------------
	    15    -739.56695655   -1.07e-06      1.03e-04 *    1.03e-04 o    4.54e-04 *    4.54e-04 o  ~
	----------------------------------------------------------------------------------------------

Next Geometry in Ang
	Fragment 1 (Ang)

	    P   0.0000000000   0.0000000000   1.0383355103
	    S   0.0000000000   0.0000000000  -1.0059178414

    Final optimized geometry and variables:
    Molecular point group: c2v
    Full point group: C_inf_v

    Geometry (in Angstrom), charge = -1, multiplicity = 1:

    P            0.000000000000     0.000000000000     1.038215459099
    S            0.000000000000     0.000000000000    -1.005797790134

    Psi4 stopped on: Thursday, 17 July 2025 12:00PM
    Psi4 wall time for execution: 0:00:27.05

*** Psi4 exiting successfully. Buy a developer a beer!
