                               Psi4 1.9.1 release

  ==> Input File <==

--------------------------------------------------------------------------
molecule {
-1 1
C   0.00000        0.60000        0.00000
N   0.00000       -0.60000        0.00000
}

set {
basis              cc-pvdz
reference          uks
maxiter            500
geom_maxiter       500
DAMPING_PERCENTAGE 1
guess              SAP
}

optimize('b3lyp')
--------------------------------------------------------------------------

    Molecular point group: c2v
  Charge       = -1
  Multiplicity = 1
  Basis Set: CC-PVDZ
    Blend: CC-PVDZ
  Basis Set: (CC-PVDZ AUX)
    Blend: CC-PVDZ-JKFIT
  @DF-UKS Final Energy:   -92.83613790879943
    Total Energy =                        -92.8361379087994294
 Dipole X            :          0.0000000            0.0000000            0.0000000
 Dipole Y            :          0.0000000            0.0000000            0.0000000
 Dipole Z            :         -0.3138887            0.0016085           -0.3122803
 Magnitude           :                                                    0.3122803
    Molecular point group: c2v
  Basis Set: CC-PVDZ
    Blend: CC-PVDZ
  Basis Set: (CC-PVDZ AUX)
    Blend: CC-PVDZ-JKFIT
  Charge       = -1
  Multiplicity = 1
  Basis Set: CC-PVDZ
    Blend: CC-PVDZ
  Basis Set: (CC-PVDZ AUX)
    Blend: CC-PVDZ-JKFIT

    Orbital Energies [Eh]
    ---------------------

    Alpha Occupied:

       1A1   -14.003899     2A1    -9.873452     3A1    -0.569404
       4A1    -0.111437     1B1    -0.022895     1B2    -0.022895
       5A1     0.012575

    Alpha Virtual:

       2B1     0.345739     2B2     0.345739     6A1     0.538693
       3B2     0.781609     3B1     0.781609     7A1     0.859630
       8A1     0.961787     4B2     1.081100     4B1     1.081100
       9A1     1.118877    10A1     1.452330     1A2     1.452330
       5B2     1.610728     5B1     1.610728    11A1     1.642133
      12A1     2.189499     2A2     2.189499    13A1     2.294400
       6B2     2.691789     6B1     2.691789    14A1     3.061173

    Beta Occupied:

       1A1   -14.003899     2A1    -9.873452     3A1    -0.569404
       4A1    -0.111437     1B1    -0.022895     1B2    -0.022895
       5A1     0.012575

    Beta Virtual:

       2B1     0.345739     2B2     0.345739     6A1     0.538693
       3B2     0.781609     3B1     0.781609     7A1     0.859630
       8A1     0.961787     4B2     1.081100     4B1     1.081100
       9A1     1.118877    10A1     1.452330     1A2     1.452330
       5B2     1.610728     5B1     1.610728    11A1     1.642133
      12A1     2.189499     2A2     2.189499    13A1     2.294400
       6B2     2.691789     6B1     2.691789    14A1     3.061173

    Final Occupation by Irrep:
             A1    A2    B1    B2
    DOCC [     5,    0,    1,    1 ]
    SOCC [     0,    0,    0,    0 ]
    NA   [     5,    0,    1,    1 ]
    NB   [     5,    0,    1,    1 ]

  @DF-UKS Final Energy:   -92.83660583325664

   => Energetics <=

    Nuclear Repulsion Energy =             18.7671532390185760
    One-Electron Energy =                -166.7462029741169545
    Two-Electron Energy =                  65.2548378292779176
    DFT Exchange-Correlation Energy =     -10.1123939274361696
    Empirical Dispersion Energy =           0.0000000000000000
    VV10 Nonlocal Energy =                  0.0000000000000000
    Total Energy =                        -92.8366058332566411

  UHF NO Occupations:
  HONO-2 :    1 B1 2.0000000
  HONO-1 :    5 A1 2.0000000
  HONO-0 :    1 B2 2.0000000
  LUNO+0 :    2 B2 0.0000000
  LUNO+1 :    6 A1 0.0000000
  LUNO+2 :    2 B1 0.0000000
  LUNO+3 :    7 A1 0.0000000

Computation Completed

Properties will be evaluated at   0.000000,   0.000000,   0.000000 [a0]

Properties computed using the SCF density matrix

 Multipole Moments:

 ------------------------------------------------------------------------------------
     Multipole            Electronic (a.u.)      Nuclear  (a.u.)        Total (a.u.)
 ------------------------------------------------------------------------------------

 L = 1.  Multiply by 2.5417464519 to convert [e a0] to [Debye]
 Dipole X            :          0.0000000            0.0000000            0.0000000
 Dipole Y            :          0.0000000            0.0000000            0.0000000
 Dipole Z            :         -0.3199498            0.0015874           -0.3183624
 Magnitude           :                                                    0.3183624

 ------------------------------------------------------------------------------------

*** tstop() called on Joses-MacBook-Pro-2.local at Thu Jul 17 09:58:18 2025
Module time:
	user time   =       2.11 seconds =       0.04 minutes
	system time =       4.07 seconds =       0.07 minutes
	total time  =          1 seconds =       0.02 minutes
Total time:
	user time   =       6.90 seconds =       0.12 minutes
	system time =       9.92 seconds =       0.17 minutes
	total time  =          2 seconds =       0.03 minutes

*** tstart() called on Joses-MacBook-Pro-2.local
*** at Thu Jul 17 09:58:18 2025

         ------------------------------------------------------------
                                   SCF GRAD
                          Rob Parrish, Justin Turney,
                       Andy Simmonett, and Alex Sokolov
         ------------------------------------------------------------

  ==> Geometry <==

    Molecular point group: c2v
    Full point group: C_inf_v

    Geometry (in Angstrom), charge = -1, multiplicity = 1:

       Center              X                  Y                   Z               Mass
    ------------   -----------------  -----------------  -----------------  -----------------
         C            0.000000000000     0.000000000000     0.637750363838    12.000000000000
         N            0.000000000000     0.000000000000    -0.546523167958    14.003074004430

  Nuclear repulsion =   18.767153239018576

  ==> Basis Set <==

  Basis Set: CC-PVDZ
    Blend: CC-PVDZ
    Number of shells: 12
    Number of basis functions: 28
    Number of Cartesian functions: 30
    Spherical Harmonics?: true
    Max angular momentum: 2

  ==> DFJKGrad: Density-Fitted SCF Gradients <==

    Gradient:                    1
    J tasked:                  Yes
    K tasked:                  Yes
    wK tasked:                  No
    OpenMP threads:              1
    Integrals threads:           1
    Memory [MiB]:              375
    Schwarz Cutoff:          1E-12
    Fitting Condition:       1E-10

   => Auxiliary Basis Set <=

  Basis Set: (CC-PVDZ AUX)
    Blend: CC-PVDZ-JKFIT
    Number of shells: 48
    Number of basis functions: 140
    Number of Cartesian functions: 162
    Spherical Harmonics?: true
    Max angular momentum: 3

  ==> DFT Potential <==

   => LibXC <=

    Version 6.2.2
    S. Lehtola, C. Steigemann, M. J.T. Oliveira, and M. A.L. Marques.,  SoftwareX 7, 1â€“5 (2018) (10.1016/j.softx.2017.11.002)

   => Composite Functional: B3LYP <=

    B3LYP Hyb-GGA Exchange-Correlation Functional

    P. J. Stephens, F. J. Devlin, C. F. Chabalowski, and M. J. Frisch.,  J. Phys. Chem. 98, 11623 (1994) (10.1021/j100096a001)

    Deriv               =              1
    GGA                 =           TRUE
    Meta                =          FALSE

    Exchange Hybrid     =           TRUE
    MP2 Hybrid          =          FALSE

   => Exchange Functionals <=

    0.0800   Slater exchange
    0.7200         Becke 88

   => Exact (HF) Exchange <=

    0.2000               HF

   => Correlation Functionals <=

    0.1900   Vosko, Wilk & Nusair (VWN5_RPA)
    0.8100   Lee, Yang & Parr

   => LibXC Density Thresholds  <==

    XC_HYB_GGA_XC_B3LYP:  1.00E-15

   => Molecular Quadrature <=

    Radial Scheme          =       TREUTLER
    Pruning Scheme         =           NONE
    Nuclear Scheme         =       TREUTLER

    Blocking Scheme        =         OCTREE
    BS radius alpha        =              1
    Pruning alpha          =              1
    Radial Points          =             75
    Spherical Points       =            302
    Total Points           =          42672
    Total Blocks           =            386
    Max Points             =            256
    Max Functions          =             28
    Weights Tolerance      =       1.00E-15

  -Total Gradient:
     Atom            X                  Y                   Z
    ------   -----------------  -----------------  -----------------
       1        0.000000000000     0.000000000000    -0.000241544654
       2        0.000000000000    -0.000000000000     0.000245675425

*** tstop() called on Joses-MacBook-Pro-2.local at Thu Jul 17 09:58:18 2025
Module time:
	user time   =       1.39 seconds =       0.02 minutes
	system time =       1.54 seconds =       0.03 minutes
	total time  =          0 seconds =       0.00 minutes
Total time:
	user time   =       8.29 seconds =       0.14 minutes
	system time =      11.46 seconds =       0.19 minutes
	total time  =          2 seconds =       0.03 minutes

    			-----------------------------------------

    			 OPTKING 3.0: for geometry optimizations

    			     By R.A. King, Bethel University

    			        with contributions from

    			    A.V. Copan, J. Cayton, A. Heide

    			-----------------------------------------

	                            ===> Fragment 1 <==

	 Z (Atomic Numbers)          Masses                          Geom
	       6.000000            12.000000          0.00000000  0.00000000  1.20517352
	       7.000000            14.003074          0.00000000  0.00000000 -1.03277911

	 - Coordinate -           - BOHR/RAD -       - ANG/DEG -
	 R(1,2)           =         2.237953           1.184274

	        --- Internal Coordinate Step in ANG or DEG, aJ/ANG or AJ/DEG ---
	-------------------------------------------------------------------------------
	           Coordinate      Previous         Force          Change          New
	           ----------      --------        ------          ------        ------
	               R(1,2)       1.18427        0.00201        0.00012       1.18440
	-------------------------------------------------------------------------------

	                                 ==> Convergence Check <==

	Measures of convergence in internal coordinates in au.

	Criteria marked as inactive (o), active & met (*), and active & unmet ( ).

	----------------------------------------------------------------------------------------------
	   Step    Total Energy     Delta E     Max Force     RMS Force      Max Disp      RMS Disp
	----------------------------------------------------------------------------------------------
	  Convergence Criteria     1.00e-06 *    3.00e-04 *             o    1.20e-03 *             o
	----------------------------------------------------------------------------------------------
	     2     -92.83660583   -4.68e-04      2.44e-04 *    2.44e-04 o    2.30e-04 *    2.30e-04 o  ~
	----------------------------------------------------------------------------------------------

Next Geometry in Ang
	Fragment 1 (Ang)

	    C   0.0000000000   0.0000000000   0.6378113239
	    N   0.0000000000   0.0000000000  -0.5465841281

    Final optimized geometry and variables:
    Molecular point group: c2v
    Full point group: C_inf_v

    Geometry (in Angstrom), charge = -1, multiplicity = 1:

    C            0.000000000000     0.000000000000     0.637750363838
    N            0.000000000000     0.000000000000    -0.546523167958

    Psi4 stopped on: Thursday, 17 July 2025 09:58AM
    Psi4 wall time for execution: 0:00:03.01

*** Psi4 exiting successfully. Buy a developer a beer!
