                               Psi4 1.9.1 release

  ==> Input File <==

--------------------------------------------------------------------------
molecule {
-1 1
O   0.00000        0.60000        0.00000
Al   0.00000       -0.60000        0.00000
}

set {
basis              cc-pvdz
reference          uks
maxiter            500
geom_maxiter       500
DAMPING_PERCENTAGE 1
guess              SAP
}

optimize('b3lyp')
--------------------------------------------------------------------------

    Molecular point group: c2v
  Charge       = -1
  Multiplicity = 1
  Basis Set: CC-PVDZ
    Blend: CC-PVDZ
  Basis Set: (CC-PVDZ AUX)
    Blend: CC-PVDZ-JKFIT
  @DF-UKS Final Energy:  -317.37405909543560
    Total Energy =                       -317.3740590954355980
 Dipole X            :          0.0000000            0.0000000            0.0000000
 Dipole Y            :          0.0000000            0.0000000            0.0000000
 Dipole Z            :         -0.2901069            0.4178188            0.1277119
 Magnitude           :                                                    0.1277119
    Molecular point group: c2v
  Basis Set: CC-PVDZ
    Blend: CC-PVDZ
  Basis Set: (CC-PVDZ AUX)
    Blend: CC-PVDZ-JKFIT
  Basis Set: CC-PVDZ
    Blend: CC-PVDZ
  Basis Set: (CC-PVDZ AUX)
    Blend: CC-PVDZ-JKFIT
  @DF-UKS Final Energy:  -317.58604959941584
    Total Energy =                       -317.5860495994159010
  Basis Set: CC-PVDZ
    Blend: CC-PVDZ
  Basis Set: (CC-PVDZ AUX)
    Blend: CC-PVDZ-JKFIT
  Basis Set: CC-PVDZ
    Blend: CC-PVDZ
  @DF-UKS Final Energy:  -317.66371310978468
    Total Energy =                       -317.6637131097847373
  @DF-UKS Final Energy:  -317.68921930685400
    Total Energy =                       -317.6892193068540564
  @DF-UKS Final Energy:  -317.70249968680957
    Total Energy =                       -317.7024996868096309
  @DF-UKS Final Energy:  -317.70596132106670
    Total Energy =                       -317.7059613210666953
  @DF-UKS Final Energy:  -317.70719713693614
    Total Energy =                       -317.7071971369361449
  @DF-UKS Final Energy:  -317.70740496167639
    Total Energy =                       -317.7074049616763887
  @DF-UKS Final Energy:  -317.70744587480556
    Total Energy =                       -317.7074458748055577
  Basis Set: (CC-PVDZ AUX)
    Blend: CC-PVDZ-JKFIT
  Basis Set: CC-PVDZ
    Blend: CC-PVDZ
  Basis Set: (CC-PVDZ AUX)
    Blend: CC-PVDZ-JKFIT
  @DF-UKS Final Energy:  -317.70745008449990
    Total Energy =                       -317.7074500844997829
  Basis Set: CC-PVDZ
    Blend: CC-PVDZ
  Basis Set: (CC-PVDZ AUX)
    Blend: CC-PVDZ-JKFIT
  Charge       = -1
  Multiplicity = 1
  Basis Set: CC-PVDZ
    Blend: CC-PVDZ
  Basis Set: (CC-PVDZ AUX)
    Blend: CC-PVDZ-JKFIT

    Orbital Energies [Eh]
    ---------------------

    Alpha Occupied:

       1A1   -55.779072     2A1   -18.834080     3A1    -3.868711
       1B1    -2.422557     1B2    -2.422557     4A1    -2.417523
       5A1    -0.605777     6A1    -0.091479     2B2    -0.021227
       2B1    -0.021227     7A1     0.006949

    Alpha Virtual:

       3B2     0.176326     3B1     0.176326     8A1     0.242812
       9A1     0.381295     4B2     0.438177     4B1     0.438177
      10A1     0.502587     1A2     0.502587    11A1     0.512350
       5B2     0.589246     5B1     0.589246    12A1     0.810720
      13A1     1.314622     6B2     1.318068     6B1     1.318068
      14A1     2.087682    15A1     2.913206     2A2     2.913243
       7B2     2.970562     7B1     2.970562    16A1     3.132625

    Beta Occupied:

       1A1   -55.779072     2A1   -18.834080     3A1    -3.868711
       1B1    -2.422557     1B2    -2.422557     4A1    -2.417523
       5A1    -0.605777     6A1    -0.091479     2B2    -0.021227
       2B1    -0.021227     7A1     0.006949

    Beta Virtual:

       3B2     0.176326     3B1     0.176326     8A1     0.242812
       9A1     0.381295     4B2     0.438177     4B1     0.438177
      10A1     0.502587     1A2     0.502587    11A1     0.512350
       5B2     0.589246     5B1     0.589246    12A1     0.810720
      13A1     1.314622     6B2     1.318068     6B1     1.318068
      14A1     2.087682    15A1     2.913206     2A2     2.913243
       7B2     2.970562     7B1     2.970562    16A1     3.132625

    Final Occupation by Irrep:
             A1    A2    B1    B2
    DOCC [     7,    0,    2,    2 ]
    SOCC [     0,    0,    0,    0 ]
    NA   [     7,    0,    2,    2 ]
    NB   [     7,    0,    2,    2 ]

  @DF-UKS Final Energy:  -317.70745022260303

   => Energetics <=

    Nuclear Repulsion Energy =             33.0806237862624286
    One-Electron Energy =                -512.7888799110507989
    Two-Electron Energy =                 184.1449604050814060
    DFT Exchange-Correlation Energy =     -22.1441545028960860
    Empirical Dispersion Energy =           0.0000000000000000
    VV10 Nonlocal Energy =                  0.0000000000000000
    Total Energy =                       -317.7074502226030290

  UHF NO Occupations:
  HONO-2 :    6 A1 2.0000000
  HONO-1 :    7 A1 2.0000000
  HONO-0 :    2 B2 2.0000000
  LUNO+0 :    3 B2 0.0000000
  LUNO+1 :    8 A1 0.0000000
  LUNO+2 :    3 B1 0.0000000
  LUNO+3 :    9 A1 0.0000000

Computation Completed

Properties will be evaluated at   0.000000,   0.000000,   0.000000 [a0]

Properties computed using the SCF density matrix

 Multipole Moments:

 ------------------------------------------------------------------------------------
     Multipole            Electronic (a.u.)      Nuclear  (a.u.)        Total (a.u.)
 ------------------------------------------------------------------------------------

 L = 1.  Multiply by 2.5417464519 to convert [e a0] to [Debye]
 Dipole X            :          0.0000000            0.0000000            0.0000000
 Dipole Y            :          0.0000000            0.0000000            0.0000000
 Dipole Z            :         -0.7761678            0.5792520           -0.1969159
 Magnitude           :                                                    0.1969159

 ------------------------------------------------------------------------------------

*** tstop() called on Joses-MacBook-Pro-2.local at Thu Jul 17 10:41:57 2025
Module time:
	user time   =       2.93 seconds =       0.05 minutes
	system time =       2.88 seconds =       0.05 minutes
	total time  =          0 seconds =       0.00 minutes
Total time:
	user time   =      56.98 seconds =       0.95 minutes
	system time =      58.57 seconds =       0.98 minutes
	total time  =         11 seconds =       0.18 minutes

*** tstart() called on Joses-MacBook-Pro-2.local
*** at Thu Jul 17 10:41:57 2025

         ------------------------------------------------------------
                                   SCF GRAD
                          Rob Parrish, Justin Turney,
                       Andy Simmonett, and Alex Sokolov
         ------------------------------------------------------------

  ==> Geometry <==

    Molecular point group: c2v
    Full point group: C_inf_v

    Geometry (in Angstrom), charge = -1, multiplicity = 1:

       Center              X                  Y                   Z               Mass
    ------------   -----------------  -----------------  -----------------  -----------------
         O            0.000000000000     0.000000000000     1.044472288004    15.994914619570
         AL           0.000000000000     0.000000000000    -0.619173182084    26.981538530000

  Nuclear repulsion =   33.080623786262429

  ==> Basis Set <==

  Basis Set: CC-PVDZ
    Blend: CC-PVDZ
    Number of shells: 14
    Number of basis functions: 32
    Number of Cartesian functions: 34
    Spherical Harmonics?: true
    Max angular momentum: 2

  ==> DFJKGrad: Density-Fitted SCF Gradients <==

    Gradient:                    1
    J tasked:                  Yes
    K tasked:                  Yes
    wK tasked:                  No
    OpenMP threads:              1
    Integrals threads:           1
    Memory [MiB]:              375
    Schwarz Cutoff:          1E-12
    Fitting Condition:       1E-10

   => Auxiliary Basis Set <=

  Basis Set: (CC-PVDZ AUX)
    Blend: CC-PVDZ-JKFIT
    Number of shells: 60
    Number of basis functions: 182
    Number of Cartesian functions: 211
    Spherical Harmonics?: true
    Max angular momentum: 3

  ==> DFT Potential <==

   => LibXC <=

    Version 6.2.2
    S. Lehtola, C. Steigemann, M. J.T. Oliveira, and M. A.L. Marques.,  SoftwareX 7, 1â€“5 (2018) (10.1016/j.softx.2017.11.002)

   => Composite Functional: B3LYP <=

    B3LYP Hyb-GGA Exchange-Correlation Functional

    P. J. Stephens, F. J. Devlin, C. F. Chabalowski, and M. J. Frisch.,  J. Phys. Chem. 98, 11623 (1994) (10.1021/j100096a001)

    Deriv               =              1
    GGA                 =           TRUE
    Meta                =          FALSE

    Exchange Hybrid     =           TRUE
    MP2 Hybrid          =          FALSE

   => Exchange Functionals <=

    0.0800   Slater exchange
    0.7200         Becke 88

   => Exact (HF) Exchange <=

    0.2000               HF

   => Correlation Functionals <=

    0.1900   Vosko, Wilk & Nusair (VWN5_RPA)
    0.8100   Lee, Yang & Parr

   => LibXC Density Thresholds  <==

    XC_HYB_GGA_XC_B3LYP:  1.00E-15

   => Molecular Quadrature <=

    Radial Scheme          =       TREUTLER
    Pruning Scheme         =           NONE
    Nuclear Scheme         =       TREUTLER

    Blocking Scheme        =         OCTREE
    BS radius alpha        =              1
    Pruning alpha          =              1
    Radial Points          =             75
    Spherical Points       =            302
    Total Points           =          43425
    Total Blocks           =            404
    Max Points             =            256
    Max Functions          =             32
    Weights Tolerance      =       1.00E-15

  -Total Gradient:
     Atom            X                  Y                   Z
    ------   -----------------  -----------------  -----------------
       1        0.000000000000    -0.000000000000    -0.000057257399
       2        0.000000000000     0.000000000000     0.000017741815

*** tstop() called on Joses-MacBook-Pro-2.local at Thu Jul 17 10:41:58 2025
Module time:
	user time   =       0.87 seconds =       0.01 minutes
	system time =       1.36 seconds =       0.02 minutes
	total time  =          1 seconds =       0.02 minutes
Total time:
	user time   =      57.87 seconds =       0.96 minutes
	system time =      59.93 seconds =       1.00 minutes
	total time  =         12 seconds =       0.20 minutes

    			-----------------------------------------

    			 OPTKING 3.0: for geometry optimizations

    			     By R.A. King, Bethel University

    			        with contributions from

    			    A.V. Copan, J. Cayton, A. Heide

    			-----------------------------------------

	                            ===> Fragment 1 <==

	 Z (Atomic Numbers)          Masses                          Geom
	       8.000000            15.994915          0.00000000  0.00000000  1.97376657
	      13.000000            26.981539          0.00000000  0.00000000 -1.17006774

	 - Coordinate -           - BOHR/RAD -       - ANG/DEG -
	 R(1,2)           =         3.143834           1.663645

	        --- Internal Coordinate Step in ANG or DEG, aJ/ANG or AJ/DEG ---
	-------------------------------------------------------------------------------
	           Coordinate      Previous         Force          Change          New
	           ----------      --------        ------          ------        ------
	               R(1,2)       1.66365        0.00031        0.00005       1.66370
	-------------------------------------------------------------------------------

	                                 ==> Convergence Check <==

	Measures of convergence in internal coordinates in au.

	Criteria marked as inactive (o), active & met (*), and active & unmet ( ).

	----------------------------------------------------------------------------------------------
	   Step    Total Energy     Delta E     Max Force     RMS Force      Max Disp      RMS Disp
	----------------------------------------------------------------------------------------------
	  Convergence Criteria     1.00e-06 *    3.00e-04 *             o    1.20e-03 *             o
	----------------------------------------------------------------------------------------------
	    11    -317.70745022   -1.38e-07 *    3.75e-05 *    3.75e-05 o    1.01e-04 *    1.01e-04 o  ~
	----------------------------------------------------------------------------------------------

Next Geometry in Ang
	Fragment 1 (Ang)

	    O   0.0000000000   0.0000000000   1.0444989999
	   Al   0.0000000000   0.0000000000  -0.6191998940

    Final optimized geometry and variables:
    Molecular point group: c2v
    Full point group: C_inf_v

    Geometry (in Angstrom), charge = -1, multiplicity = 1:

    O            0.000000000000     0.000000000000     1.044472288004
    AL           0.000000000000     0.000000000000    -0.619173182084

    Psi4 stopped on: Thursday, 17 July 2025 10:41AM
    Psi4 wall time for execution: 0:00:12.74

*** Psi4 exiting successfully. Buy a developer a beer!
