                               Psi4 1.9.1 release

  ==> Input File <==

--------------------------------------------------------------------------
molecule {
-1 1
Mg   0.00000        0.60000        0.00000
Al   0.00000       -0.60000        0.00000
}

set {
basis              cc-pvdz
reference          uks
maxiter            500
geom_maxiter       500
DAMPING_PERCENTAGE 1
guess              SAP
}

optimize('b3lyp')
--------------------------------------------------------------------------

    Molecular point group: c2v
  Charge       = -1
  Multiplicity = 1
  Basis Set: CC-PVDZ
    Blend: CC-PVDZ
  Basis Set: (CC-PVDZ AUX)
    Blend: CC-PVDZ-JKFIT + DEF2-UNIVERSAL-JKFIT
  @DF-UKS Final Energy:  -441.59920209851521
    Total Energy =                       -441.5992020985152067
 Dipole X            :          0.0000000            0.0000000            0.0000000
 Dipole Y            :          0.0000000            0.0000000            0.0000000
 Dipole Z            :         -0.1603825            0.5327147            0.3723322
 Magnitude           :                                                    0.3723322
    Molecular point group: c2v
  Basis Set: CC-PVDZ
    Blend: CC-PVDZ
  Basis Set: (CC-PVDZ AUX)
    Blend: CC-PVDZ-JKFIT + DEF2-UNIVERSAL-JKFIT
  Basis Set: CC-PVDZ
    Blend: CC-PVDZ
  Basis Set: (CC-PVDZ AUX)
    Blend: CC-PVDZ-JKFIT + DEF2-UNIVERSAL-JKFIT
  @DF-UKS Final Energy:  -441.60747097977327
    Total Energy =                       -441.6074709797732680
  Basis Set: CC-PVDZ
    Blend: CC-PVDZ
  Basis Set: (CC-PVDZ AUX)
    Blend: CC-PVDZ-JKFIT + DEF2-UNIVERSAL-JKFIT
  Basis Set: CC-PVDZ
    Blend: CC-PVDZ
  @DF-UKS Final Energy:  -441.62348798906339
    Total Energy =                       -441.6234879890633920
  @DF-UKS Final Energy:  -441.68216919423702
    Total Energy =                       -441.6821691942370194
  @DF-UKS Final Energy:  -441.96110793453084
    Total Energy =                       -441.9611079345308440
  @DF-UKS Final Energy:  -442.18270094316006
    Total Energy =                       -442.1827009431600572
  @DF-UKS Final Energy:  -442.34874471249844
    Total Energy =                       -442.3487447124984442
  @DF-UKS Final Energy:  -442.42900551391858
    Total Energy =                       -442.4290055139185824
  @DF-UKS Final Energy:  -442.46608656326202
    Total Energy =                       -442.4660865632620244
  @DF-UKS Final Energy:  -442.48202486876033
    Total Energy =                       -442.4820248687603339
  @DF-UKS Final Energy:  -442.48817420124220
    Total Energy =                       -442.4881742012422023
  @DF-UKS Final Energy:  -442.49006052884715
    Total Energy =                       -442.4900605288471525
  @DF-UKS Final Energy:  -442.49039146416555
    Total Energy =                       -442.4903914641655547
  @DF-UKS Final Energy:  -442.49046678700199
    Total Energy =                       -442.4904667870020489
  Basis Set: (CC-PVDZ AUX)
    Blend: CC-PVDZ-JKFIT + DEF2-UNIVERSAL-JKFIT
  Basis Set: CC-PVDZ
    Blend: CC-PVDZ
  Basis Set: (CC-PVDZ AUX)
    Blend: CC-PVDZ-JKFIT + DEF2-UNIVERSAL-JKFIT
  @DF-UKS Final Energy:  -442.49047359047563
    Total Energy =                       -442.4904735904756308
  Basis Set: CC-PVDZ
    Blend: CC-PVDZ
  Basis Set: (CC-PVDZ AUX)
    Blend: CC-PVDZ-JKFIT + DEF2-UNIVERSAL-JKFIT
  Charge       = -1
  Multiplicity = 1
  Basis Set: CC-PVDZ
    Blend: CC-PVDZ
  Basis Set: (CC-PVDZ AUX)
    Blend: CC-PVDZ-JKFIT + DEF2-UNIVERSAL-JKFIT

    Orbital Energies [Eh]
    ---------------------

    Alpha Occupied:

       1A1   -55.875438     2A1   -46.650822     3A1    -3.954936
       4A1    -2.932129     1B2    -2.510094     5A1    -2.508293
       1B1    -2.502980     2B2    -1.676726     6A1    -1.676146
       2B1    -1.674034     7A1    -0.144084     8A1    -0.029062
       3B1     0.052172

    Alpha Virtual:

       3B2     0.078796     9A1     0.081310     4B2     0.133255
       4B1     0.136387    10A1     0.171585    11A1     0.240219
      12A1     0.299032     5B2     0.302237     5B1     0.307224
      13A1     0.371411     6B2     0.393572     6B1     0.401677
       7B2     0.416368     7B1     0.425108     1A2     0.438188
      14A1     0.439898    15A1     0.454111     2A2     0.506527
      16A1     0.507866    17A1     0.570182     8B2     0.615400
       8B1     0.625298    18A1     0.791182

    Beta Occupied:

       1A1   -55.875438     2A1   -46.650822     3A1    -3.954936
       4A1    -2.932129     1B2    -2.510094     5A1    -2.508293
       1B1    -2.502980     2B2    -1.676726     6A1    -1.676146
       2B1    -1.674034     7A1    -0.144084     8A1    -0.029062
       3B1     0.052172

    Beta Virtual:

       3B2     0.078796     9A1     0.081310     4B2     0.133255
       4B1     0.136387    10A1     0.171585    11A1     0.240219
      12A1     0.299032     5B2     0.302237     5B1     0.307224
      13A1     0.371411     6B2     0.393572     6B1     0.401677
       7B2     0.416368     7B1     0.425108     1A2     0.438188
      14A1     0.439898    15A1     0.454111     2A2     0.506527
      16A1     0.507866    17A1     0.570182     8B2     0.615400
       8B1     0.625298    18A1     0.791182

    Final Occupation by Irrep:
             A1    A2    B1    B2
    DOCC [     8,    0,    3,    2 ]
    SOCC [     0,    0,    0,    0 ]
    NA   [     8,    0,    3,    2 ]
    NB   [     8,    0,    3,    2 ]

  @DF-UKS Final Energy:  -442.49047423182060

   => Energetics <=

    Nuclear Repulsion Energy =             29.4777281995588822
    One-Electron Energy =                -679.5150476669124373
    Two-Electron Energy =                 235.9248152427128673
    DFT Exchange-Correlation Energy =     -28.3779700071799468
    Empirical Dispersion Energy =           0.0000000000000000
    VV10 Nonlocal Energy =                  0.0000000000000000
    Total Energy =                       -442.4904742318206559

  UHF NO Occupations:
  HONO-2 :    3 B1 2.0000000
  HONO-1 :    7 A1 2.0000000
  HONO-0 :    8 A1 2.0000000
  LUNO+0 :    9 A1 0.0000000
  LUNO+1 :   10 A1 0.0000000
  LUNO+2 :    3 B2 0.0000000
  LUNO+3 :   11 A1 0.0000000

Computation Completed

Properties will be evaluated at   0.000000,   0.000000,   0.000000 [a0]

Properties computed using the SCF density matrix

 Multipole Moments:

 ------------------------------------------------------------------------------------
     Multipole            Electronic (a.u.)      Nuclear  (a.u.)        Total (a.u.)
 ------------------------------------------------------------------------------------

 L = 1.  Multiply by 2.5417464519 to convert [e a0] to [Debye]
 Dipole X            :          0.0000000            0.0000000            0.0000000
 Dipole Y            :          0.0000000            0.0000000            0.0000000
 Dipole Z            :         -1.3676293            1.2432120           -0.1244174
 Magnitude           :                                                    0.1244174

 ------------------------------------------------------------------------------------

*** tstop() called on Joses-MacBook-Pro-2.local at Thu Jul 17 11:23:37 2025
Module time:
	user time   =      14.14 seconds =       0.24 minutes
	system time =       3.31 seconds =       0.06 minutes
	total time  =          2 seconds =       0.03 minutes
Total time:
	user time   =     190.13 seconds =       3.17 minutes
	system time =      88.59 seconds =       1.48 minutes
	total time  =         27 seconds =       0.45 minutes

*** tstart() called on Joses-MacBook-Pro-2.local
*** at Thu Jul 17 11:23:37 2025

         ------------------------------------------------------------
                                   SCF GRAD
                          Rob Parrish, Justin Turney,
                       Andy Simmonett, and Alex Sokolov
         ------------------------------------------------------------

  ==> Geometry <==

    Molecular point group: c2v
    Full point group: C_inf_v

    Geometry (in Angstrom), charge = -1, multiplicity = 1:

       Center              X                  Y                   Z               Mass
    ------------   -----------------  -----------------  -----------------  -----------------
         MG           0.000000000000     0.000000000000     1.482562248157    23.985041697000
         AL           0.000000000000     0.000000000000    -1.317912887025    26.981538530000

  Nuclear repulsion =   29.477728199558882

  ==> Basis Set <==

  Basis Set: CC-PVDZ
    Blend: CC-PVDZ
    Number of shells: 16
    Number of basis functions: 36
    Number of Cartesian functions: 38
    Spherical Harmonics?: true
    Max angular momentum: 2

  ==> DFJKGrad: Density-Fitted SCF Gradients <==

    Gradient:                    1
    J tasked:                  Yes
    K tasked:                  Yes
    wK tasked:                  No
    OpenMP threads:              1
    Integrals threads:           1
    Memory [MiB]:              375
    Schwarz Cutoff:          1E-12
    Fitting Condition:       1E-10

   => Auxiliary Basis Set <=

  Basis Set: (CC-PVDZ AUX)
    Blend: CC-PVDZ-JKFIT + DEF2-UNIVERSAL-JKFIT
    Number of shells: 70
    Number of basis functions: 224
    Number of Cartesian functions: 267
    Spherical Harmonics?: true
    Max angular momentum: 4

  ==> DFT Potential <==

   => LibXC <=

    Version 6.2.2
    S. Lehtola, C. Steigemann, M. J.T. Oliveira, and M. A.L. Marques.,  SoftwareX 7, 1â€“5 (2018) (10.1016/j.softx.2017.11.002)

   => Composite Functional: B3LYP <=

    B3LYP Hyb-GGA Exchange-Correlation Functional

    P. J. Stephens, F. J. Devlin, C. F. Chabalowski, and M. J. Frisch.,  J. Phys. Chem. 98, 11623 (1994) (10.1021/j100096a001)

    Deriv               =              1
    GGA                 =           TRUE
    Meta                =          FALSE

    Exchange Hybrid     =           TRUE
    MP2 Hybrid          =          FALSE

   => Exchange Functionals <=

    0.0800   Slater exchange
    0.7200         Becke 88

   => Exact (HF) Exchange <=

    0.2000               HF

   => Correlation Functionals <=

    0.1900   Vosko, Wilk & Nusair (VWN5_RPA)
    0.8100   Lee, Yang & Parr

   => LibXC Density Thresholds  <==

    XC_HYB_GGA_XC_B3LYP:  1.00E-15

   => Molecular Quadrature <=

    Radial Scheme          =       TREUTLER
    Pruning Scheme         =           NONE
    Nuclear Scheme         =       TREUTLER

    Blocking Scheme        =         OCTREE
    BS radius alpha        =              1
    Pruning alpha          =              1
    Radial Points          =             75
    Spherical Points       =            302
    Total Points           =          42940
    Total Blocks           =            421
    Max Points             =            255
    Max Functions          =             36
    Weights Tolerance      =       1.00E-15

  -Total Gradient:
     Atom            X                  Y                   Z
    ------   -----------------  -----------------  -----------------
       1        0.000000000000     0.000000000000    -0.000054856543
       2        0.000000000000     0.000000000000     0.000063669690

*** tstop() called on Joses-MacBook-Pro-2.local at Thu Jul 17 11:23:37 2025
Module time:
	user time   =       3.88 seconds =       0.06 minutes
	system time =       2.40 seconds =       0.04 minutes
	total time  =          0 seconds =       0.00 minutes
Total time:
	user time   =     194.01 seconds =       3.23 minutes
	system time =      91.00 seconds =       1.52 minutes
	total time  =         27 seconds =       0.45 minutes

    			-----------------------------------------

    			 OPTKING 3.0: for geometry optimizations

    			     By R.A. King, Bethel University

    			        with contributions from

    			    A.V. Copan, J. Cayton, A. Heide

    			-----------------------------------------

	                            ===> Fragment 1 <==

	 Z (Atomic Numbers)          Masses                          Geom
	      12.000000            23.985042          0.00000000  0.00000000  2.80163661
	      13.000000            26.981539          0.00000000  0.00000000 -2.49049441

	 - Coordinate -           - BOHR/RAD -       - ANG/DEG -
	 R(1,2)           =         5.292131           2.800475

	        --- Internal Coordinate Step in ANG or DEG, aJ/ANG or AJ/DEG ---
	-------------------------------------------------------------------------------
	           Coordinate      Previous         Force          Change          New
	           ----------      --------        ------          ------        ------
	               R(1,2)       2.80048        0.00049        0.00111       2.80159
	-------------------------------------------------------------------------------

	                                 ==> Convergence Check <==

	Measures of convergence in internal coordinates in au.

	Criteria marked as inactive (o), active & met (*), and active & unmet ( ).

	----------------------------------------------------------------------------------------------
	   Step    Total Energy     Delta E     Max Force     RMS Force      Max Disp      RMS Disp
	----------------------------------------------------------------------------------------------
	  Convergence Criteria     1.00e-06 *    3.00e-04 *             o    1.20e-03 *             o
	----------------------------------------------------------------------------------------------
	    16    -442.49047423   -6.41e-07 *    5.93e-05 *    5.93e-05 o    2.10e-03      2.10e-03 o  ~
	----------------------------------------------------------------------------------------------

Next Geometry in Ang
	Fragment 1 (Ang)

	   Mg   0.0000000000   0.0000000000   1.4831175003
	   Al   0.0000000000   0.0000000000  -1.3184681392

    Final optimized geometry and variables:
    Molecular point group: c2v
    Full point group: C_inf_v

    Geometry (in Angstrom), charge = -1, multiplicity = 1:

    MG           0.000000000000     0.000000000000     1.482562248157
    AL           0.000000000000     0.000000000000    -1.317912887025

    Psi4 stopped on: Thursday, 17 July 2025 11:23AM
    Psi4 wall time for execution: 0:00:28.44

*** Psi4 exiting successfully. Buy a developer a beer!
