                               Psi4 1.9.1 release

  ==> Input File <==

--------------------------------------------------------------------------
molecule {
-1 1
Ne   0.00000        0.60000        0.00000
Na   0.00000       -0.60000        0.00000
}

set {
basis              cc-pvdz
reference          uks
maxiter            500
geom_maxiter       500
DAMPING_PERCENTAGE 1
guess              SAP
}

optimize('b3lyp')
--------------------------------------------------------------------------

    Molecular point group: c2v
  Charge       = -1
  Multiplicity = 1
  Basis Set: CC-PVDZ
    Blend: CC-PVDZ
  Basis Set: (CC-PVDZ AUX)
    Blend: CC-PVDZ-JKFIT + DEF2-UNIVERSAL-JKFIT
  @DF-UKS Final Energy:  -290.71153875308727
    Total Energy =                       -290.7115387530872681
 Dipole X            :          0.0000000            0.0000000            0.0000000
 Dipole Y            :          0.0000000            0.0000000            0.0000000
 Dipole Z            :          0.9422859            0.5265734            1.4688593
 Magnitude           :                                                    1.4688593
    Molecular point group: c2v
  Basis Set: CC-PVDZ
    Blend: CC-PVDZ
  Basis Set: (CC-PVDZ AUX)
    Blend: CC-PVDZ-JKFIT + DEF2-UNIVERSAL-JKFIT
  Basis Set: CC-PVDZ
    Blend: CC-PVDZ
  Basis Set: (CC-PVDZ AUX)
    Blend: CC-PVDZ-JKFIT + DEF2-UNIVERSAL-JKFIT
  @DF-UKS Final Energy:  -290.98406034120609
    Total Energy =                       -290.9840603412060887
  Basis Set: CC-PVDZ
    Blend: CC-PVDZ
  Basis Set: (CC-PVDZ AUX)
    Blend: CC-PVDZ-JKFIT + DEF2-UNIVERSAL-JKFIT
  Basis Set: CC-PVDZ
    Blend: CC-PVDZ
  @DF-UKS Final Energy:  -291.09302012546880
    Total Energy =                       -291.0930201254687972
  @DF-UKS Final Energy:  -291.15345327331482
    Total Energy =                       -291.1534532733148239
  @DF-UKS Final Energy:  -291.17740224318140
    Total Energy =                       -291.1774022431814046
  @DF-UKS Final Energy:  -291.19332499804625
    Total Energy =                       -291.1933249980462506
  @DF-UKS Final Energy:  -291.20344843415694
    Total Energy =                       -291.2034484341569396
  @DF-UKS Final Energy:  -291.20916778324732
    Total Energy =                       -291.2091677832473238
  @DF-UKS Final Energy:  -291.21268164484769
    Total Energy =                       -291.2126816448476916
  @DF-UKS Final Energy:  -291.21495122024720
    Total Energy =                       -291.2149512202472010
  @DF-UKS Final Energy:  -291.21642915338668
    Total Energy =                       -291.2164291533866844
  @DF-UKS Final Energy:  -291.21741839693476
    Total Energy =                       -291.2174183969347609
  @DF-UKS Final Energy:  -291.21802067613709
    Total Energy =                       -291.2180206761371437
  @DF-UKS Final Energy:  -291.21839619589184
    Total Energy =                       -291.2183961958918417
  @DF-UKS Final Energy:  -291.21852799835716
    Total Energy =                       -291.2185279983571036
  Basis Set: (CC-PVDZ AUX)
    Blend: CC-PVDZ-JKFIT + DEF2-UNIVERSAL-JKFIT
  Basis Set: CC-PVDZ
    Blend: CC-PVDZ
  Basis Set: (CC-PVDZ AUX)
    Blend: CC-PVDZ-JKFIT + DEF2-UNIVERSAL-JKFIT
  @DF-UKS Final Energy:  -291.21857327180078
    Total Energy =                       -291.2185732718007785
  Basis Set: CC-PVDZ
    Blend: CC-PVDZ
  Basis Set: (CC-PVDZ AUX)
    Blend: CC-PVDZ-JKFIT + DEF2-UNIVERSAL-JKFIT
  Charge       = -1
  Multiplicity = 1
  Basis Set: CC-PVDZ
    Blend: CC-PVDZ
  Basis Set: (CC-PVDZ AUX)
    Blend: CC-PVDZ-JKFIT + DEF2-UNIVERSAL-JKFIT

    Orbital Energies [Eh]
    ---------------------

    Alpha Occupied:

       1A1   -38.278089     2A1   -30.843669     3A1    -2.025263
       4A1    -1.306265     5A1    -0.956767     1B2    -0.956463
       1B1    -0.956463     6A1    -0.416499     2B1    -0.414135
       2B2    -0.414135     7A1     0.039574

    Alpha Virtual:

       3B1     0.102601     3B2     0.102601     8A1     0.105631
       9A1     0.186182     4B1     0.223091     4B2     0.223091
      10A1     0.230549    11A1     0.325821     1A2     0.325823
       5B2     0.327440     5B1     0.327440    12A1     0.348339
       6B1     1.506978     6B2     1.506978    13A1     1.561474
      14A1     2.108298     2A2     4.851069     7B2     4.851176
       7B1     4.851176    15A1     4.852006    16A1     4.852114

    Beta Occupied:

       1A1   -38.278089     2A1   -30.843669     3A1    -2.025263
       4A1    -1.306265     5A1    -0.956767     1B2    -0.956463
       1B1    -0.956463     6A1    -0.416499     2B1    -0.414135
       2B2    -0.414135     7A1     0.039574

    Beta Virtual:

       3B1     0.102601     3B2     0.102601     8A1     0.105631
       9A1     0.186182     4B1     0.223091     4B2     0.223091
      10A1     0.230549    11A1     0.325821     1A2     0.325823
       5B2     0.327440     5B1     0.327440    12A1     0.348339
       6B1     1.506978     6B2     1.506978    13A1     1.561474
      14A1     2.108298     2A2     4.851069     7B2     4.851176
       7B1     4.851176    15A1     4.852006    16A1     4.852114

    Final Occupation by Irrep:
             A1    A2    B1    B2
    DOCC [     7,    0,    2,    2 ]
    SOCC [     0,    0,    0,    0 ]
    NA   [     7,    0,    2,    2 ]
    NB   [     7,    0,    2,    2 ]

  @DF-UKS Final Energy:  -291.21857393128801

   => Energetics <=

    Nuclear Repulsion Energy =             19.0508427168848335
    One-Electron Energy =                -451.8586176810241000
    Two-Electron Energy =                 163.4274255722731937
    DFT Exchange-Correlation Energy =     -21.8382245394219510
    Empirical Dispersion Energy =           0.0000000000000000
    VV10 Nonlocal Energy =                  0.0000000000000000
    Total Energy =                       -291.2185739312880060

  UHF NO Occupations:
  HONO-2 :    5 A1 2.0000000
  HONO-1 :    6 A1 2.0000000
  HONO-0 :    7 A1 2.0000000
  LUNO+0 :    8 A1 0.0000000
  LUNO+1 :    3 B1 0.0000000
  LUNO+2 :    9 A1 0.0000000
  LUNO+3 :    3 B2 0.0000000

Computation Completed

Properties will be evaluated at   0.000000,   0.000000,   0.000000 [a0]

Properties computed using the SCF density matrix

 Multipole Moments:

 ------------------------------------------------------------------------------------
     Multipole            Electronic (a.u.)      Nuclear  (a.u.)        Total (a.u.)
 ------------------------------------------------------------------------------------

 L = 1.  Multiply by 2.5417464519 to convert [e a0] to [Debye]
 Dipole X            :          0.0000000            0.0000000            0.0000000
 Dipole Y            :          0.0000000            0.0000000            0.0000000
 Dipole Z            :          1.7550032            1.3407794            3.0957826
 Magnitude           :                                                    3.0957826

 ------------------------------------------------------------------------------------

*** tstop() called on Joses-MacBook-Pro-2.local at Thu Jul 17 10:57:58 2025
Module time:
	user time   =       3.39 seconds =       0.06 minutes
	system time =       3.34 seconds =       0.06 minutes
	total time  =          0 seconds =       0.00 minutes
Total time:
	user time   =      75.20 seconds =       1.25 minutes
	system time =      98.53 seconds =       1.64 minutes
	total time  =         18 seconds =       0.30 minutes

*** tstart() called on Joses-MacBook-Pro-2.local
*** at Thu Jul 17 10:57:58 2025

         ------------------------------------------------------------
                                   SCF GRAD
                          Rob Parrish, Justin Turney,
                       Andy Simmonett, and Alex Sokolov
         ------------------------------------------------------------

  ==> Geometry <==

    Molecular point group: c2v
    Full point group: C_inf_v

    Geometry (in Angstrom), charge = -1, multiplicity = 1:

       Center              X                  Y                   Z               Mass
    ------------   -----------------  -----------------  -----------------  -----------------
         NE           0.000000000000     0.000000000000     1.634276376626    19.992440176200
         NA           0.000000000000     0.000000000000    -1.421204897287    22.989769282000

  Nuclear repulsion =   19.050842716884834

  ==> Basis Set <==

  Basis Set: CC-PVDZ
    Blend: CC-PVDZ
    Number of shells: 14
    Number of basis functions: 32
    Number of Cartesian functions: 34
    Spherical Harmonics?: true
    Max angular momentum: 2

  ==> DFJKGrad: Density-Fitted SCF Gradients <==

    Gradient:                    1
    J tasked:                  Yes
    K tasked:                  Yes
    wK tasked:                  No
    OpenMP threads:              1
    Integrals threads:           1
    Memory [MiB]:              375
    Schwarz Cutoff:          1E-12
    Fitting Condition:       1E-10

   => Auxiliary Basis Set <=

  Basis Set: (CC-PVDZ AUX)
    Blend: CC-PVDZ-JKFIT + DEF2-UNIVERSAL-JKFIT
    Number of shells: 58
    Number of basis functions: 182
    Number of Cartesian functions: 218
    Spherical Harmonics?: true
    Max angular momentum: 4

  ==> DFT Potential <==

   => LibXC <=

    Version 6.2.2
    S. Lehtola, C. Steigemann, M. J.T. Oliveira, and M. A.L. Marques.,  SoftwareX 7, 1â€“5 (2018) (10.1016/j.softx.2017.11.002)

   => Composite Functional: B3LYP <=

    B3LYP Hyb-GGA Exchange-Correlation Functional

    P. J. Stephens, F. J. Devlin, C. F. Chabalowski, and M. J. Frisch.,  J. Phys. Chem. 98, 11623 (1994) (10.1021/j100096a001)

    Deriv               =              1
    GGA                 =           TRUE
    Meta                =          FALSE

    Exchange Hybrid     =           TRUE
    MP2 Hybrid          =          FALSE

   => Exchange Functionals <=

    0.0800   Slater exchange
    0.7200         Becke 88

   => Exact (HF) Exchange <=

    0.2000               HF

   => Correlation Functionals <=

    0.1900   Vosko, Wilk & Nusair (VWN5_RPA)
    0.8100   Lee, Yang & Parr

   => LibXC Density Thresholds  <==

    XC_HYB_GGA_XC_B3LYP:  1.00E-15

   => Molecular Quadrature <=

    Radial Scheme          =       TREUTLER
    Pruning Scheme         =           NONE
    Nuclear Scheme         =       TREUTLER

    Blocking Scheme        =         OCTREE
    BS radius alpha        =              1
    Pruning alpha          =              1
    Radial Points          =             75
    Spherical Points       =            302
    Total Points           =          43850
    Total Blocks           =            424
    Max Points             =            250
    Max Functions          =             32
    Weights Tolerance      =       1.00E-15

  -Total Gradient:
     Atom            X                  Y                   Z
    ------   -----------------  -----------------  -----------------
       1        0.000000000000    -0.000000000000    -0.000013388381
       2        0.000000000000    -0.000000000000    -0.000007929355

*** tstop() called on Joses-MacBook-Pro-2.local at Thu Jul 17 10:57:59 2025
Module time:
	user time   =       1.26 seconds =       0.02 minutes
	system time =       1.69 seconds =       0.03 minutes
	total time  =          1 seconds =       0.02 minutes
Total time:
	user time   =      76.46 seconds =       1.27 minutes
	system time =     100.23 seconds =       1.67 minutes
	total time  =         19 seconds =       0.32 minutes

    			-----------------------------------------

    			 OPTKING 3.0: for geometry optimizations

    			     By R.A. King, Bethel University

    			        with contributions from

    			    A.V. Copan, J. Cayton, A. Heide

    			-----------------------------------------

	                            ===> Fragment 1 <==

	 Z (Atomic Numbers)          Masses                          Geom
	      10.000000            19.992440          0.00000000  0.00000000  3.08833477
	      11.000000            22.989769          0.00000000  0.00000000 -2.68568802

	 - Coordinate -           - BOHR/RAD -       - ANG/DEG -
	 R(1,2)           =         5.774023           3.055481

	        --- Internal Coordinate Step in ANG or DEG, aJ/ANG or AJ/DEG ---
	-------------------------------------------------------------------------------
	           Coordinate      Previous         Force          Change          New
	           ----------      --------        ------          ------        ------
	               R(1,2)       3.05548        0.00002        0.00080       3.05628
	-------------------------------------------------------------------------------

	                                 ==> Convergence Check <==

	Measures of convergence in internal coordinates in au.

	Criteria marked as inactive (o), active & met (*), and active & unmet ( ).

	----------------------------------------------------------------------------------------------
	   Step    Total Energy     Delta E     Max Force     RMS Force      Max Disp      RMS Disp
	----------------------------------------------------------------------------------------------
	  Convergence Criteria     1.00e-06 *    3.00e-04 *             o    1.20e-03 *             o
	----------------------------------------------------------------------------------------------
	    17    -291.21857393   -6.59e-07 *    2.73e-06 *    2.73e-06 o    1.52e-03      1.52e-03 o  ~
	----------------------------------------------------------------------------------------------

Next Geometry in Ang
	Fragment 1 (Ang)

	   Ne   0.0000000000   0.0000000000   1.6346778281
	   Na   0.0000000000   0.0000000000  -1.4216063487

    Final optimized geometry and variables:
    Molecular point group: c2v
    Full point group: C_inf_v

    Geometry (in Angstrom), charge = -1, multiplicity = 1:

    NE           0.000000000000     0.000000000000     1.634276376626
    NA           0.000000000000     0.000000000000    -1.421204897287

    Psi4 stopped on: Thursday, 17 July 2025 10:57AM
    Psi4 wall time for execution: 0:00:19.02

*** Psi4 exiting successfully. Buy a developer a beer!
