                               Psi4 1.9.1 release

  ==> Input File <==

--------------------------------------------------------------------------
molecule {
-1 3
C   0.00000        0.60000        0.00000
Cl   0.00000       -0.60000        0.00000
}

set {
basis              cc-pvdz
reference          uks
maxiter            500
geom_maxiter       500
DAMPING_PERCENTAGE 1
guess              SAP
}

optimize('b3lyp')
--------------------------------------------------------------------------

    Molecular point group: c2v
  Charge       = -1
  Multiplicity = 3
  Basis Set: CC-PVDZ
    Blend: CC-PVDZ
  Basis Set: (CC-PVDZ AUX)
    Blend: CC-PVDZ-JKFIT
  @DF-UKS Final Energy:  -497.79785974730299
    Total Energy =                       -497.7978597473029936
 Dipole X            :          0.0000000            0.0000000            0.0000000
 Dipole Y            :          0.0000000            0.0000000            0.0000000
 Dipole Z            :         -2.1970018            0.2806591           -1.9163427
 Magnitude           :                                                    1.9163427
    Molecular point group: c2v
  Basis Set: CC-PVDZ
    Blend: CC-PVDZ
  Basis Set: (CC-PVDZ AUX)
    Blend: CC-PVDZ-JKFIT
  Basis Set: CC-PVDZ
    Blend: CC-PVDZ
  Basis Set: (CC-PVDZ AUX)
    Blend: CC-PVDZ-JKFIT
  @DF-UKS Final Energy:  -498.00439685362949
    Total Energy =                       -498.0043968536294869
  Basis Set: CC-PVDZ
    Blend: CC-PVDZ
  Basis Set: (CC-PVDZ AUX)
    Blend: CC-PVDZ-JKFIT
  Basis Set: CC-PVDZ
    Blend: CC-PVDZ
  @DF-UKS Final Energy:  -498.10304381218066
    Total Energy =                       -498.1030438121806583
  @DF-UKS Final Energy:  -498.14091541300485
    Total Energy =                       -498.1409154130048478
  @DF-UKS Final Energy:  -498.16591686240076
    Total Energy =                       -498.1659168624007634
  @DF-UKS Final Energy:  -498.18012656574473
    Total Energy =                       -498.1801265657447289
  @DF-UKS Final Energy:  -498.18653878425653
    Total Energy =                       -498.1865387842565269
  @DF-UKS Final Energy:  -498.18918818382917
    Total Energy =                       -498.1891881838291738
  @DF-UKS Final Energy:  -498.18990428014001
    Total Energy =                       -498.1899042801400128
  @DF-UKS Final Energy:  -498.19016368893716
    Total Energy =                       -498.1901636889371048
  @DF-UKS Final Energy:  -498.19021250823664
    Total Energy =                       -498.1902125082366410
  Basis Set: (CC-PVDZ AUX)
    Blend: CC-PVDZ-JKFIT
  Basis Set: CC-PVDZ
    Blend: CC-PVDZ
  Basis Set: (CC-PVDZ AUX)
    Blend: CC-PVDZ-JKFIT
  @DF-UKS Final Energy:  -498.19022348330731
    Total Energy =                       -498.1902234833073067
  Basis Set: CC-PVDZ
    Blend: CC-PVDZ
  Basis Set: (CC-PVDZ AUX)
    Blend: CC-PVDZ-JKFIT
  Charge       = -1
  Multiplicity = 3
  Basis Set: CC-PVDZ
    Blend: CC-PVDZ
  Basis Set: (CC-PVDZ AUX)
    Blend: CC-PVDZ-JKFIT

    Orbital Energies [Eh]
    ---------------------

    Alpha Occupied:

       1A1  -101.274023     2A1    -9.958616     3A1    -9.189799
       4A1    -6.949151     1B2    -6.944898     1B1    -6.944898
       5A1    -0.552905     6A1    -0.290639     2B1    -0.081863
       2B2    -0.081863     7A1    -0.066590     3B1     0.062637
       3B2     0.062637

    Alpha Virtual:

       8A1     0.258299     9A1     0.720336     4B1     0.727985
       4B2     0.727985    10A1     0.775231     5B1     0.808404
       5B2     0.808404    11A1     0.830272     6B1     0.970888
       6B2     0.970888     1A2     0.992285    12A1     0.992286
      13A1     1.019938    14A1     1.240593     2A2     1.420573
      15A1     1.420574     7B1     1.548650     7B2     1.548650
      16A1     1.944288

    Beta Occupied:

       1A1  -101.273439     2A1    -9.934191     3A1    -9.189228
       4A1    -6.949375     1B2    -6.943507     1B1    -6.943507
       5A1    -0.545111     6A1    -0.218317     2B1    -0.069166
       2B2    -0.069166     7A1    -0.035385

    Beta Virtual:

       3B1     0.230488     3B2     0.230488     8A1     0.286778
       9A1     0.729704     4B1     0.789316     4B2     0.789316
      10A1     0.789642     5B1     0.827456     5B2     0.827456
      11A1     0.850921     6B1     0.983928     6B2     0.983928
       1A2     0.998208    12A1     0.998208    13A1     1.051768
      14A1     1.255660     2A2     1.530327    15A1     1.530333
       7B1     1.604302     7B2     1.604302    16A1     1.979368

    Final Occupation by Irrep:
             A1    A2    B1    B2
    DOCC [     7,    0,    2,    2 ]
    SOCC [     0,    0,    1,    1 ]
    NA   [     7,    0,    3,    3 ]
    NB   [     7,    0,    2,    2 ]

  @DF-UKS Final Energy:  -498.19022464293300

   => Energetics <=

    Nuclear Repulsion Energy =             27.2740655238560876
    One-Electron Energy =                -747.1460733099213485
    Two-Electron Energy =                 248.9252114682496710
    DFT Exchange-Correlation Energy =     -27.2434283251173426
    Empirical Dispersion Energy =           0.0000000000000000
    VV10 Nonlocal Energy =                  0.0000000000000000
    Total Energy =                       -498.1902246429329466

  UHF NO Occupations:
  HONO-2 :    7 A1 1.9974418
  HONO-1 :    3 B1 1.0000000
  HONO-0 :    3 B2 1.0000000
  LUNO+0 :    8 A1 0.0025582
  LUNO+1 :    9 A1 0.0002723
  LUNO+2 :    4 B2 0.0001174
  LUNO+3 :    4 B1 0.0001174

Computation Completed

Properties will be evaluated at   0.000000,   0.000000,   0.000000 [a0]

Properties computed using the SCF density matrix

 Multipole Moments:

 ------------------------------------------------------------------------------------
     Multipole            Electronic (a.u.)      Nuclear  (a.u.)        Total (a.u.)
 ------------------------------------------------------------------------------------

 L = 1.  Multiply by 2.5417464519 to convert [e a0] to [Debye]
 Dipole X            :          0.0000000            0.0000000            0.0000000
 Dipole Y            :          0.0000000            0.0000000            0.0000000
 Dipole Z            :         -1.7116509            0.4628597           -1.2487912
 Magnitude           :                                                    1.2487912

 ------------------------------------------------------------------------------------

*** tstop() called on Joses-MacBook-Pro-2.local at Thu Jul 17 10:23:01 2025
Module time:
	user time   =       2.84 seconds =       0.05 minutes
	system time =       4.28 seconds =       0.07 minutes
	total time  =          1 seconds =       0.02 minutes
Total time:
	user time   =      76.05 seconds =       1.27 minutes
	system time =      66.52 seconds =       1.11 minutes
	total time  =         15 seconds =       0.25 minutes

*** tstart() called on Joses-MacBook-Pro-2.local
*** at Thu Jul 17 10:23:01 2025

         ------------------------------------------------------------
                                   SCF GRAD
                          Rob Parrish, Justin Turney,
                       Andy Simmonett, and Alex Sokolov
         ------------------------------------------------------------

  ==> Geometry <==

    Molecular point group: c2v
    Full point group: C_inf_v

    Geometry (in Angstrom), charge = -1, multiplicity = 3:

       Center              X                  Y                   Z               Mass
    ------------   -----------------  -----------------  -----------------  -----------------
         C            0.000000000000     0.000000000000     1.473407434092    12.000000000000
         CL           0.000000000000     0.000000000000    -0.505618224592    34.968852682000

  Nuclear repulsion =   27.274065523856088

  ==> Basis Set <==

  Basis Set: CC-PVDZ
    Blend: CC-PVDZ
    Number of shells: 14
    Number of basis functions: 32
    Number of Cartesian functions: 34
    Spherical Harmonics?: true
    Max angular momentum: 2

  ==> DFJKGrad: Density-Fitted SCF Gradients <==

    Gradient:                    1
    J tasked:                  Yes
    K tasked:                  Yes
    wK tasked:                  No
    OpenMP threads:              1
    Integrals threads:           1
    Memory [MiB]:              375
    Schwarz Cutoff:          1E-12
    Fitting Condition:       1E-10

   => Auxiliary Basis Set <=

  Basis Set: (CC-PVDZ AUX)
    Blend: CC-PVDZ-JKFIT
    Number of shells: 60
    Number of basis functions: 182
    Number of Cartesian functions: 211
    Spherical Harmonics?: true
    Max angular momentum: 3

  ==> DFT Potential <==

   => LibXC <=

    Version 6.2.2
    S. Lehtola, C. Steigemann, M. J.T. Oliveira, and M. A.L. Marques.,  SoftwareX 7, 1â€“5 (2018) (10.1016/j.softx.2017.11.002)

   => Composite Functional: B3LYP <=

    B3LYP Hyb-GGA Exchange-Correlation Functional

    P. J. Stephens, F. J. Devlin, C. F. Chabalowski, and M. J. Frisch.,  J. Phys. Chem. 98, 11623 (1994) (10.1021/j100096a001)

    Deriv               =              1
    GGA                 =           TRUE
    Meta                =          FALSE

    Exchange Hybrid     =           TRUE
    MP2 Hybrid          =          FALSE

   => Exchange Functionals <=

    0.0800   Slater exchange
    0.7200         Becke 88

   => Exact (HF) Exchange <=

    0.2000               HF

   => Correlation Functionals <=

    0.1900   Vosko, Wilk & Nusair (VWN5_RPA)
    0.8100   Lee, Yang & Parr

   => LibXC Density Thresholds  <==

    XC_HYB_GGA_XC_B3LYP:  1.00E-15

   => Molecular Quadrature <=

    Radial Scheme          =       TREUTLER
    Pruning Scheme         =           NONE
    Nuclear Scheme         =       TREUTLER

    Blocking Scheme        =         OCTREE
    BS radius alpha        =              1
    Pruning alpha          =              1
    Radial Points          =             75
    Spherical Points       =            302
    Total Points           =          41139
    Total Blocks           =            367
    Max Points             =            256
    Max Functions          =             32
    Weights Tolerance      =       1.00E-15

  -Total Gradient:
     Atom            X                  Y                   Z
    ------   -----------------  -----------------  -----------------
       1        0.000000000000     0.000000000000    -0.000077964322
       2        0.000000000000    -0.000000000000     0.000073133981

*** tstop() called on Joses-MacBook-Pro-2.local at Thu Jul 17 10:23:01 2025
Module time:
	user time   =       1.20 seconds =       0.02 minutes
	system time =       1.42 seconds =       0.02 minutes
	total time  =          0 seconds =       0.00 minutes
Total time:
	user time   =      77.25 seconds =       1.29 minutes
	system time =      67.95 seconds =       1.13 minutes
	total time  =         15 seconds =       0.25 minutes

    			-----------------------------------------

    			 OPTKING 3.0: for geometry optimizations

    			     By R.A. King, Bethel University

    			        with contributions from

    			    A.V. Copan, J. Cayton, A. Heide

    			-----------------------------------------

	                            ===> Fragment 1 <==

	 Z (Atomic Numbers)          Masses                          Geom
	       6.000000            12.000000          0.00000000  0.00000000  2.78433652
	      17.000000            34.968853          0.00000000  0.00000000 -0.95547997

	 - Coordinate -           - BOHR/RAD -       - ANG/DEG -
	 R(1,2)           =         3.739816           1.979026

	        --- Internal Coordinate Step in ANG or DEG, aJ/ANG or AJ/DEG ---
	-------------------------------------------------------------------------------
	           Coordinate      Previous         Force          Change          New
	           ----------      --------        ------          ------        ------
	               R(1,2)       1.97903        0.00062        0.00054       1.97956
	-------------------------------------------------------------------------------

	                                 ==> Convergence Check <==

	Measures of convergence in internal coordinates in au.

	Criteria marked as inactive (o), active & met (*), and active & unmet ( ).

	----------------------------------------------------------------------------------------------
	   Step    Total Energy     Delta E     Max Force     RMS Force      Max Disp      RMS Disp
	----------------------------------------------------------------------------------------------
	  Convergence Criteria     1.00e-06 *    3.00e-04 *             o    1.20e-03 *             o
	----------------------------------------------------------------------------------------------
	    13    -498.19022464   -1.16e-06      7.55e-05 *    7.55e-05 o    1.01e-03 *    1.01e-03 o  ~
	----------------------------------------------------------------------------------------------

Next Geometry in Ang
	Fragment 1 (Ang)

	    C   0.0000000000   0.0000000000   1.4736756359
	   Cl   0.0000000000   0.0000000000  -0.5058864264

    Final optimized geometry and variables:
    Molecular point group: c2v
    Full point group: C_inf_v

    Geometry (in Angstrom), charge = -1, multiplicity = 3:

    C            0.000000000000     0.000000000000     1.473407434092
    CL           0.000000000000     0.000000000000    -0.505618224592

    Psi4 stopped on: Thursday, 17 July 2025 10:23AM
    Psi4 wall time for execution: 0:00:15.68

*** Psi4 exiting successfully. Buy a developer a beer!
