                               Psi4 1.9.1 release

  ==> Input File <==

--------------------------------------------------------------------------
molecule {
-1 3
S   0.00000        0.60000        0.00000
Cl   0.00000       -0.60000        0.00000
}

set {
basis              cc-pvdz
reference          uks
maxiter            500
geom_maxiter       500
DAMPING_PERCENTAGE 1
guess              SAP
}

optimize('b3lyp')
--------------------------------------------------------------------------

    Molecular point group: c2v
  Charge       = -1
  Multiplicity = 3
  Basis Set: CC-PVDZ
    Blend: CC-PVDZ
  Basis Set: (CC-PVDZ AUX)
    Blend: CC-PVDZ-JKFIT
  @DF-UKS Final Energy:  -856.88160549936822
    Total Energy =                       -856.8816054993682201
 Dipole X            :          0.0000000            0.0000000            0.0000000
 Dipole Y            :          0.0000000            0.0000000            0.0000000
 Dipole Z            :         -2.0696733            0.5412130           -1.5284603
 Magnitude           :                                                    1.5284603
    Molecular point group: c2v
  Basis Set: CC-PVDZ
    Blend: CC-PVDZ
  Basis Set: (CC-PVDZ AUX)
    Blend: CC-PVDZ-JKFIT
  Basis Set: CC-PVDZ
    Blend: CC-PVDZ
  Basis Set: (CC-PVDZ AUX)
    Blend: CC-PVDZ-JKFIT
  @DF-UKS Final Energy:  -856.92892215656707
    Total Energy =                       -856.9289221565670687
  Basis Set: CC-PVDZ
    Blend: CC-PVDZ
  Basis Set: (CC-PVDZ AUX)
    Blend: CC-PVDZ-JKFIT
  Basis Set: CC-PVDZ
    Blend: CC-PVDZ
  @DF-UKS Final Energy:  -857.01592235983890
    Total Energy =                       -857.0159223598388962
  @DF-UKS Final Energy:  -857.29305548791217
    Total Energy =                       -857.2930554879120564
  @DF-UKS Final Energy:  -857.83253624723784
    Total Energy =                       -857.8325362472378401
  @DF-UKS Final Energy:  -858.05106807612208
    Total Energy =                       -858.0510680761220783
  @DF-UKS Final Energy:  -858.21127578952098
    Total Energy =                       -858.2112757895209825
  @DF-UKS Final Energy:  -858.31725505718202
    Total Energy =                       -858.3172550571820238
  @DF-UKS Final Energy:  -858.38082592058777
    Total Energy =                       -858.3808259205877675
  @DF-UKS Final Energy:  -858.41138429410330
    Total Energy =                       -858.4113842941032999
  @DF-UKS Final Energy:  -858.42486623082596
    Total Energy =                       -858.4248662308259554
  @DF-UKS Final Energy:  -858.43004406706268
    Total Energy =                       -858.4300440670625676
  @DF-UKS Final Energy:  -858.43162380586216
    Total Energy =                       -858.4316238058621593
  @DF-UKS Final Energy:  -858.43189746628229
    Total Energy =                       -858.4318974662822939
  @DF-UKS Final Energy:  -858.43196015176215
    Total Energy =                       -858.4319601517622687
  Basis Set: (CC-PVDZ AUX)
    Blend: CC-PVDZ-JKFIT
  Basis Set: CC-PVDZ
    Blend: CC-PVDZ
  Basis Set: (CC-PVDZ AUX)
    Blend: CC-PVDZ-JKFIT
  @DF-UKS Final Energy:  -858.43196573038085
    Total Energy =                       -858.4319657303808526
  Basis Set: CC-PVDZ
    Blend: CC-PVDZ
  Basis Set: (CC-PVDZ AUX)
    Blend: CC-PVDZ-JKFIT
  Charge       = -1
  Multiplicity = 3
  Basis Set: CC-PVDZ
    Blend: CC-PVDZ
  Basis Set: (CC-PVDZ AUX)
    Blend: CC-PVDZ-JKFIT

    Orbital Energies [Eh]
    ---------------------

    Alpha Occupied:

       1A1  -101.260073     2A1   -88.674067     3A1    -9.173539
       4A1    -7.731173     5A1    -6.935526     1B2    -6.929092
       1B1    -6.927789     2B2    -5.701148     6A1    -5.696075
       2B1    -5.683088     7A1    -0.523521     8A1    -0.463858
       9A1    -0.113741     3B2    -0.093921     3B1    -0.061962
       4B2    -0.051253     4B1    -0.033912    10A1    -0.012948

    Alpha Virtual:

      11A1     0.651246     5B2     0.667261     5B1     0.695376
      12A1     0.719960     6B2     0.747476    13A1     0.747803
       6B1     0.771676     1A2     0.802175    14A1     0.808531
      15A1     0.832838     7B2     0.843199     7B1     0.860561
      16A1     0.944091     8B2     1.008817     2A2     1.011622
      17A1     1.011655     8B1     1.013080    18A1     1.258585

    Beta Occupied:

       1A1  -101.257072     2A1   -88.665159     3A1    -9.170561
       4A1    -7.722038     5A1    -6.927228     1B2    -6.926310
       1B1    -6.925929     2B2    -5.682206     6A1    -5.680122
       2B1    -5.677633     7A1    -0.502070     8A1    -0.390936
       9A1    -0.061734     3B1    -0.051770     3B2    -0.047357
       4B1    -0.015316

    Beta Virtual:

       4B2     0.058836    10A1     0.095499    11A1     0.682372
       5B1     0.705656     5B2     0.710598    12A1     0.750567
       6B1     0.792629     6B2     0.795287    13A1     0.804664
      14A1     0.853829     1A2     0.855717    15A1     0.860896
       7B1     0.886228     7B2     0.891486    16A1     0.967342
       2A2     1.018088    17A1     1.018109     8B2     1.032298
       8B1     1.032690    18A1     1.283533

    Final Occupation by Irrep:
             A1    A2    B1    B2
    DOCC [     9,    0,    4,    3 ]
    SOCC [     1,    0,    0,    1 ]
    NA   [    10,    0,    4,    4 ]
    NB   [     9,    0,    4,    3 ]

  @DF-UKS Final Energy:  -858.43196620463254

   => Energetics <=

    Nuclear Repulsion Energy =             51.6600597009145801
    One-Electron Energy =               -1297.4041414130267640
    Two-Electron Energy =                 430.9319429527603802
    DFT Exchange-Correlation Energy =     -43.6198274452807553
    Empirical Dispersion Energy =           0.0000000000000000
    VV10 Nonlocal Energy =                  0.0000000000000000
    Total Energy =                       -858.4319662046324311

  UHF NO Occupations:
  HONO-2 :    9 A1 1.9992634
  HONO-1 :   10 A1 1.0000000
  HONO-0 :    4 B2 1.0000000
  LUNO+0 :   11 A1 0.0007366
  LUNO+1 :   12 A1 0.0005822
  LUNO+2 :    5 B1 0.0000947
  LUNO+3 :    5 B2 0.0000896

Computation Completed

Properties will be evaluated at   0.000000,   0.000000,   0.000000 [a0]

Properties computed using the SCF density matrix

 Multipole Moments:

 ------------------------------------------------------------------------------------
     Multipole            Electronic (a.u.)      Nuclear  (a.u.)        Total (a.u.)
 ------------------------------------------------------------------------------------

 L = 1.  Multiply by 2.5417464519 to convert [e a0] to [Debye]
 Dipole X            :          0.0000000            0.0000000            0.0000000
 Dipole Y            :          0.0000000            0.0000000            0.0000000
 Dipole Z            :         -0.8330466            1.2566147            0.4235680
 Magnitude           :                                                    0.4235680

 ------------------------------------------------------------------------------------

*** tstop() called on Joses-MacBook-Pro-2.local at Thu Jul 17 12:06:56 2025
Module time:
	user time   =       8.20 seconds =       0.14 minutes
	system time =       1.34 seconds =       0.02 minutes
	total time  =          1 seconds =       0.02 minutes
Total time:
	user time   =     203.02 seconds =       3.38 minutes
	system time =      45.93 seconds =       0.77 minutes
	total time  =         24 seconds =       0.40 minutes

*** tstart() called on Joses-MacBook-Pro-2.local
*** at Thu Jul 17 12:06:56 2025

         ------------------------------------------------------------
                                   SCF GRAD
                          Rob Parrish, Justin Turney,
                       Andy Simmonett, and Alex Sokolov
         ------------------------------------------------------------

  ==> Geometry <==

    Molecular point group: c2v
    Full point group: C_inf_v

    Geometry (in Angstrom), charge = -1, multiplicity = 3:

       Center              X                  Y                   Z               Mass
    ------------   -----------------  -----------------  -----------------  -----------------
         S            0.000000000000     0.000000000000     1.455475216424    31.972071174400
         CL           0.000000000000     0.000000000000    -1.330743036818    34.968852682000

  Nuclear repulsion =   51.660059700914580

  ==> Basis Set <==

  Basis Set: CC-PVDZ
    Blend: CC-PVDZ
    Number of shells: 16
    Number of basis functions: 36
    Number of Cartesian functions: 38
    Spherical Harmonics?: true
    Max angular momentum: 2

  ==> DFJKGrad: Density-Fitted SCF Gradients <==

    Gradient:                    1
    J tasked:                  Yes
    K tasked:                  Yes
    wK tasked:                  No
    OpenMP threads:              1
    Integrals threads:           1
    Memory [MiB]:              375
    Schwarz Cutoff:          1E-12
    Fitting Condition:       1E-10

   => Auxiliary Basis Set <=

  Basis Set: (CC-PVDZ AUX)
    Blend: CC-PVDZ-JKFIT
    Number of shells: 72
    Number of basis functions: 224
    Number of Cartesian functions: 260
    Spherical Harmonics?: true
    Max angular momentum: 3

  ==> DFT Potential <==

   => LibXC <=

    Version 6.2.2
    S. Lehtola, C. Steigemann, M. J.T. Oliveira, and M. A.L. Marques.,  SoftwareX 7, 1â€“5 (2018) (10.1016/j.softx.2017.11.002)

   => Composite Functional: B3LYP <=

    B3LYP Hyb-GGA Exchange-Correlation Functional

    P. J. Stephens, F. J. Devlin, C. F. Chabalowski, and M. J. Frisch.,  J. Phys. Chem. 98, 11623 (1994) (10.1021/j100096a001)

    Deriv               =              1
    GGA                 =           TRUE
    Meta                =          FALSE

    Exchange Hybrid     =           TRUE
    MP2 Hybrid          =          FALSE

   => Exchange Functionals <=

    0.0800   Slater exchange
    0.7200         Becke 88

   => Exact (HF) Exchange <=

    0.2000               HF

   => Correlation Functionals <=

    0.1900   Vosko, Wilk & Nusair (VWN5_RPA)
    0.8100   Lee, Yang & Parr

   => LibXC Density Thresholds  <==

    XC_HYB_GGA_XC_B3LYP:  1.00E-15

   => Molecular Quadrature <=

    Radial Scheme          =       TREUTLER
    Pruning Scheme         =           NONE
    Nuclear Scheme         =       TREUTLER

    Blocking Scheme        =         OCTREE
    BS radius alpha        =              1
    Pruning alpha          =              1
    Radial Points          =             75
    Spherical Points       =            302
    Total Points           =          40328
    Total Blocks           =            370
    Max Points             =            245
    Max Functions          =             36
    Weights Tolerance      =       1.00E-15

  -Total Gradient:
     Atom            X                  Y                   Z
    ------   -----------------  -----------------  -----------------
       1        0.000000000000     0.000000000000    -0.000054904672
       2        0.000000000000    -0.000000000000     0.000057197400

*** tstop() called on Joses-MacBook-Pro-2.local at Thu Jul 17 12:06:56 2025
Module time:
	user time   =       2.41 seconds =       0.04 minutes
	system time =       0.95 seconds =       0.02 minutes
	total time  =          0 seconds =       0.00 minutes
Total time:
	user time   =     205.45 seconds =       3.42 minutes
	system time =      46.88 seconds =       0.78 minutes
	total time  =         24 seconds =       0.40 minutes

    			-----------------------------------------

    			 OPTKING 3.0: for geometry optimizations

    			     By R.A. King, Bethel University

    			        with contributions from

    			    A.V. Copan, J. Cayton, A. Heide

    			-----------------------------------------

	                            ===> Fragment 1 <==

	 Z (Atomic Numbers)          Masses                          Geom
	      16.000000            31.972071          0.00000000  0.00000000  2.75044954
	      17.000000            34.968853          0.00000000  0.00000000 -2.51473988

	 - Coordinate -           - BOHR/RAD -       - ANG/DEG -
	 R(1,2)           =         5.265189           2.786218

	        --- Internal Coordinate Step in ANG or DEG, aJ/ANG or AJ/DEG ---
	-------------------------------------------------------------------------------
	           Coordinate      Previous         Force          Change          New
	           ----------      --------        ------          ------        ------
	               R(1,2)       2.78622        0.00046        0.00105       2.78726
	-------------------------------------------------------------------------------

	                                 ==> Convergence Check <==

	Measures of convergence in internal coordinates in au.

	Criteria marked as inactive (o), active & met (*), and active & unmet ( ).

	----------------------------------------------------------------------------------------------
	   Step    Total Energy     Delta E     Max Force     RMS Force      Max Disp      RMS Disp
	----------------------------------------------------------------------------------------------
	  Convergence Criteria     1.00e-06 *    3.00e-04 *             o    1.20e-03 *             o
	----------------------------------------------------------------------------------------------
	    17    -858.43196620   -4.74e-07 *    5.61e-05 *    5.61e-05 o    1.98e-03      1.98e-03 o  ~
	----------------------------------------------------------------------------------------------

Next Geometry in Ang
	Fragment 1 (Ang)

	    S   0.0000000000   0.0000000000   1.4559979291
	   Cl   0.0000000000   0.0000000000  -1.3312657495

    Final optimized geometry and variables:
    Molecular point group: c2v
    Full point group: C_inf_v

    Geometry (in Angstrom), charge = -1, multiplicity = 3:

    S            0.000000000000     0.000000000000     1.455475216424
    CL           0.000000000000     0.000000000000    -1.330743036818

    Psi4 stopped on: Thursday, 17 July 2025 12:06PM
    Psi4 wall time for execution: 0:00:24.33

*** Psi4 exiting successfully. Buy a developer a beer!
