                               Psi4 1.9.1 release

  ==> Input File <==

--------------------------------------------------------------------------
molecule {
-1 3
H   0.00000        0.60000        0.00000
S   0.00000       -0.60000        0.00000
}

set {
basis              cc-pvdz
reference          uks
maxiter            500
geom_maxiter       500
DAMPING_PERCENTAGE 1
guess              SAP
}

optimize('b3lyp')
--------------------------------------------------------------------------

    Molecular point group: c2v
  Charge       = -1
  Multiplicity = 3
  Basis Set: CC-PVDZ
    Blend: CC-PVDZ
  Basis Set: (CC-PVDZ AUX)
    Blend: CC-PVDZ-JKFIT
  @DF-UKS Final Energy:  -398.59672652661413
    Total Energy =                       -398.5967265266141339
 Dipole X            :          0.0000000            0.0000000            0.0000000
 Dipole Y            :          0.0000000            0.0000000            0.0000000
 Dipole Z            :         -2.3432633            1.0896182           -1.2536451
 Magnitude           :                                                    1.2536451
    Molecular point group: c2v
  Basis Set: CC-PVDZ
    Blend: CC-PVDZ
  Basis Set: (CC-PVDZ AUX)
    Blend: CC-PVDZ-JKFIT
  Basis Set: CC-PVDZ
    Blend: CC-PVDZ
  Basis Set: (CC-PVDZ AUX)
    Blend: CC-PVDZ-JKFIT
  @DF-UKS Final Energy:  -398.65987606758699
    Total Energy =                       -398.6598760675869926
  Basis Set: CC-PVDZ
    Blend: CC-PVDZ
  Basis Set: (CC-PVDZ AUX)
    Blend: CC-PVDZ-JKFIT
  Basis Set: CC-PVDZ
    Blend: CC-PVDZ
  @DF-UKS Final Energy:  -398.68041353579054
    Total Energy =                       -398.6804135357905352
  @DF-UKS Final Energy:  -398.69551216054731
    Total Energy =                       -398.6955121605473664
  @DF-UKS Final Energy:  -398.70228405122799
    Total Energy =                       -398.7022840512280482
  @DF-UKS Final Energy:  -398.70477539416714
    Total Energy =                       -398.7047753941671431
  @DF-UKS Final Energy:  -398.70542866840361
    Total Energy =                       -398.7054286684036128
  @DF-UKS Final Energy:  -398.70551937416496
    Total Energy =                       -398.7055193741649646
  Basis Set: (CC-PVDZ AUX)
    Blend: CC-PVDZ-JKFIT
  Basis Set: CC-PVDZ
    Blend: CC-PVDZ
  Basis Set: (CC-PVDZ AUX)
    Blend: CC-PVDZ-JKFIT
  @DF-UKS Final Energy:  -398.70553517075996
    Total Energy =                       -398.7055351707599584
  Basis Set: CC-PVDZ
    Blend: CC-PVDZ
  Basis Set: (CC-PVDZ AUX)
    Blend: CC-PVDZ-JKFIT
  Charge       = -1
  Multiplicity = 3
  Basis Set: CC-PVDZ
    Blend: CC-PVDZ
  Basis Set: (CC-PVDZ AUX)
    Blend: CC-PVDZ-JKFIT

    Orbital Energies [Eh]
    ---------------------

    Alpha Occupied:

       1A1   -88.604699     2A1    -7.661523     1B1    -5.633158
       3A1    -5.621841     1B2    -5.615278     4A1    -0.401112
       5A1    -0.056321     2B1    -0.034675     2B2     0.011731
       6A1     0.060123

    Alpha Virtual:

       7A1     0.682593     3B1     0.718446     3B2     0.750624
       8A1     0.750750     9A1     0.804752     4B1     0.846913
      10A1     0.849437     1A2     0.859484     4B2     0.884442
      11A1     0.887465     5B1     1.540390     5B2     1.542145
      12A1     1.746201

    Beta Occupied:

       1A1   -88.597510     2A1    -7.654095     1B1    -5.615406
       3A1    -5.611591     1B2    -5.610805     4A1    -0.339721
       5A1     0.006767     2B2     0.030123

    Beta Virtual:

       2B1     0.107796     6A1     0.182365     7A1     0.729078
       3B2     0.761150     3B1     0.767174     8A1     0.798792
       9A1     0.841232     4B2     0.909936     1A2     0.912438
      10A1     0.913969     4B1     0.916936    11A1     0.923056
       5B1     1.618198     5B2     1.619395    12A1     1.813004

    Final Occupation by Irrep:
             A1    A2    B1    B2
    DOCC [     5,    0,    1,    2 ]
    SOCC [     1,    0,    1,    0 ]
    NA   [     6,    0,    2,    2 ]
    NB   [     5,    0,    1,    2 ]

  @DF-UKS Final Energy:  -398.70553610280564

   => Energetics <=

    Nuclear Repulsion Energy =              3.7455791401575267
    One-Electron Energy =                -562.9293954601316727
    Two-Electron Energy =                 181.5947608211334057
    DFT Exchange-Correlation Energy =     -21.1164806039647992
    Empirical Dispersion Energy =           0.0000000000000000
    VV10 Nonlocal Energy =                  0.0000000000000000
    Total Energy =                       -398.7055361028056382

  UHF NO Occupations:
  HONO-2 :    5 A1 1.9984859
  HONO-1 :    6 A1 1.0000000
  HONO-0 :    2 B1 1.0000000
  LUNO+0 :    7 A1 0.0015141
  LUNO+1 :    8 A1 0.0006937
  LUNO+2 :    3 B2 0.0000729
  LUNO+3 :    3 B1 0.0000000

Computation Completed

Properties will be evaluated at   0.000000,   0.000000,   0.000000 [a0]

Properties computed using the SCF density matrix

 Multipole Moments:

 ------------------------------------------------------------------------------------
     Multipole            Electronic (a.u.)      Nuclear  (a.u.)        Total (a.u.)
 ------------------------------------------------------------------------------------

 L = 1.  Multiply by 2.5417464519 to convert [e a0] to [Debye]
 Dipole X            :          0.0000000            0.0000000            0.0000000
 Dipole Y            :          0.0000000            0.0000000            0.0000000
 Dipole Z            :         -3.3650250            2.0525570           -1.3124679
 Magnitude           :                                                    1.3124679

 ------------------------------------------------------------------------------------

*** tstop() called on Joses-MacBook-Pro-2.local at Thu Jul 17 09:16:00 2025
Module time:
	user time   =       3.84 seconds =       0.06 minutes
	system time =       1.85 seconds =       0.03 minutes
	total time  =          1 seconds =       0.02 minutes
Total time:
	user time   =      45.76 seconds =       0.76 minutes
	system time =      39.28 seconds =       0.65 minutes
	total time  =          8 seconds =       0.13 minutes

*** tstart() called on Joses-MacBook-Pro-2.local
*** at Thu Jul 17 09:16:00 2025

         ------------------------------------------------------------
                                   SCF GRAD
                          Rob Parrish, Justin Turney,
                       Andy Simmonett, and Alex Sokolov
         ------------------------------------------------------------

  ==> Geometry <==

    Molecular point group: c2v
    Full point group: C_inf_v

    Geometry (in Angstrom), charge = -1, multiplicity = 3:

       Center              X                  Y                   Z               Mass
    ------------   -----------------  -----------------  -----------------  -----------------
         H            0.000000000000     0.000000000000     2.191409925329     1.007825032230
         S            0.000000000000     0.000000000000    -0.069077719944    31.972071174400

  Nuclear repulsion =    3.745579140157527

  ==> Basis Set <==

  Basis Set: CC-PVDZ
    Blend: CC-PVDZ
    Number of shells: 11
    Number of basis functions: 23
    Number of Cartesian functions: 24
    Spherical Harmonics?: true
    Max angular momentum: 2

  ==> DFJKGrad: Density-Fitted SCF Gradients <==

    Gradient:                    1
    J tasked:                  Yes
    K tasked:                  Yes
    wK tasked:                  No
    OpenMP threads:              1
    Integrals threads:           1
    Memory [MiB]:              375
    Schwarz Cutoff:          1E-12
    Fitting Condition:       1E-10

   => Auxiliary Basis Set <=

  Basis Set: (CC-PVDZ AUX)
    Blend: CC-PVDZ-JKFIT
    Number of shells: 45
    Number of basis functions: 135
    Number of Cartesian functions: 155
    Spherical Harmonics?: true
    Max angular momentum: 3

  ==> DFT Potential <==

   => LibXC <=

    Version 6.2.2
    S. Lehtola, C. Steigemann, M. J.T. Oliveira, and M. A.L. Marques.,  SoftwareX 7, 1â€“5 (2018) (10.1016/j.softx.2017.11.002)

   => Composite Functional: B3LYP <=

    B3LYP Hyb-GGA Exchange-Correlation Functional

    P. J. Stephens, F. J. Devlin, C. F. Chabalowski, and M. J. Frisch.,  J. Phys. Chem. 98, 11623 (1994) (10.1021/j100096a001)

    Deriv               =              1
    GGA                 =           TRUE
    Meta                =          FALSE

    Exchange Hybrid     =           TRUE
    MP2 Hybrid          =          FALSE

   => Exchange Functionals <=

    0.0800   Slater exchange
    0.7200         Becke 88

   => Exact (HF) Exchange <=

    0.2000               HF

   => Correlation Functionals <=

    0.1900   Vosko, Wilk & Nusair (VWN5_RPA)
    0.8100   Lee, Yang & Parr

   => LibXC Density Thresholds  <==

    XC_HYB_GGA_XC_B3LYP:  1.00E-15

   => Molecular Quadrature <=

    Radial Scheme          =       TREUTLER
    Pruning Scheme         =           NONE
    Nuclear Scheme         =       TREUTLER

    Blocking Scheme        =         OCTREE
    BS radius alpha        =              1
    Pruning alpha          =              1
    Radial Points          =             75
    Spherical Points       =            302
    Total Points           =          42491
    Total Blocks           =            379
    Max Points             =            252
    Max Functions          =             23
    Weights Tolerance      =       1.00E-15

  -Total Gradient:
     Atom            X                  Y                   Z
    ------   -----------------  -----------------  -----------------
       1        0.000000000000     0.000000000000    -0.000041344749
       2        0.000000000000     0.000000000000     0.000040430012

*** tstop() called on Joses-MacBook-Pro-2.local at Thu Jul 17 09:16:00 2025
Module time:
	user time   =       0.81 seconds =       0.01 minutes
	system time =       1.05 seconds =       0.02 minutes
	total time  =          0 seconds =       0.00 minutes
Total time:
	user time   =      46.57 seconds =       0.78 minutes
	system time =      40.33 seconds =       0.67 minutes
	total time  =          8 seconds =       0.13 minutes

    			-----------------------------------------

    			 OPTKING 3.0: for geometry optimizations

    			     By R.A. King, Bethel University

    			        with contributions from

    			    A.V. Copan, J. Cayton, A. Heide

    			-----------------------------------------

	                            ===> Fragment 1 <==

	 Z (Atomic Numbers)          Masses                          Geom
	       1.000000             1.007825          0.00000000  0.00000000  4.14116459
	      16.000000            31.972071          0.00000000  0.00000000 -0.13053797

	 - Coordinate -           - BOHR/RAD -       - ANG/DEG -
	 R(1,2)           =         4.271703           2.260488

	        --- Internal Coordinate Step in ANG or DEG, aJ/ANG or AJ/DEG ---
	-------------------------------------------------------------------------------
	           Coordinate      Previous         Force          Change          New
	           ----------      --------        ------          ------        ------
	               R(1,2)       2.26049        0.00034        0.00122       2.26171
	-------------------------------------------------------------------------------

	                                 ==> Convergence Check <==

	Measures of convergence in internal coordinates in au.

	Criteria marked as inactive (o), active & met (*), and active & unmet ( ).

	----------------------------------------------------------------------------------------------
	   Step    Total Energy     Delta E     Max Force     RMS Force      Max Disp      RMS Disp
	----------------------------------------------------------------------------------------------
	  Convergence Criteria     1.00e-06 *    3.00e-04 *             o    1.20e-03 *             o
	----------------------------------------------------------------------------------------------
	    10    -398.70553610   -9.32e-07 *    4.09e-05 *    4.09e-05 o    2.31e-03      2.31e-03 o  ~
	----------------------------------------------------------------------------------------------

Next Geometry in Ang
	Fragment 1 (Ang)

	    H   0.0000000000   0.0000000000   2.1920216127
	    S   0.0000000000   0.0000000000  -0.0696894073

    Final optimized geometry and variables:
    Molecular point group: c2v
    Full point group: C_inf_v

    Geometry (in Angstrom), charge = -1, multiplicity = 3:

    H            0.000000000000     0.000000000000     2.191409925329
    S            0.000000000000     0.000000000000    -0.069077719944

    Psi4 stopped on: Thursday, 17 July 2025 09:16AM
    Psi4 wall time for execution: 0:00:08.85

*** Psi4 exiting successfully. Buy a developer a beer!
