                               Psi4 1.9.1 release

  ==> Input File <==

--------------------------------------------------------------------------
molecule {
-1 3
N   0.00000        0.60000        0.00000
Ne   0.00000       -0.60000        0.00000
}

set {
basis              cc-pvdz
reference          uks
maxiter            500
geom_maxiter       500
DAMPING_PERCENTAGE 1
guess              SAP
}

optimize('b3lyp')
--------------------------------------------------------------------------

    Molecular point group: c2v
  Charge       = -1
  Multiplicity = 3
  Basis Set: CC-PVDZ
    Blend: CC-PVDZ
  Basis Set: (CC-PVDZ AUX)
    Blend: CC-PVDZ-JKFIT
  @DF-UKS Final Energy:  -182.93045752762856
    Total Energy =                       -182.9304575276285618
 Dipole X            :          0.0000000            0.0000000            0.0000000
 Dipole Y            :          0.0000000            0.0000000            0.0000000
 Dipole Z            :         -2.3097539           -0.0055805           -2.3153343
 Magnitude           :                                                    2.3153343
    Molecular point group: c2v
  Basis Set: CC-PVDZ
    Blend: CC-PVDZ
  Basis Set: (CC-PVDZ AUX)
    Blend: CC-PVDZ-JKFIT
  Basis Set: CC-PVDZ
    Blend: CC-PVDZ
  Basis Set: (CC-PVDZ AUX)
    Blend: CC-PVDZ-JKFIT
  @DF-UKS Final Energy:  -183.23444790650089
    Total Energy =                       -183.2344479065008613
  Basis Set: CC-PVDZ
    Blend: CC-PVDZ
  Basis Set: (CC-PVDZ AUX)
    Blend: CC-PVDZ-JKFIT
  Basis Set: CC-PVDZ
    Blend: CC-PVDZ
  @DF-UKS Final Energy:  -183.33152224392259
    Total Energy =                       -183.3315222439225920
  @DF-UKS Final Energy:  -183.38281087274191
    Total Energy =                       -183.3828108727419419
  @DF-UKS Final Energy:  -183.40890440300058
    Total Energy =                       -183.4089044030005766
  @DF-UKS Final Energy:  -183.42256677936447
    Total Energy =                       -183.4225667793644448
  @DF-UKS Final Energy:  -183.42971299829509
    Total Energy =                       -183.4297129982950878
  @DF-UKS Final Energy:  -183.43326147228814
    Total Energy =                       -183.4332614722881090
  @DF-UKS Final Energy:  -183.43484903849591
    Total Energy =                       -183.4348490384958836
  @DF-UKS Final Energy:  -183.43546439445197
    Total Energy =                       -183.4354643944519694
  @DF-UKS Final Energy:  -183.43566358242236
    Total Energy =                       -183.4356635824223645
  @DF-UKS Final Energy:  -183.43570562172772
    Total Energy =                       -183.4357056217277204
  @DF-UKS Final Energy:  -183.43571948741763
    Total Energy =                       -183.4357194874176287
  Basis Set: (CC-PVDZ AUX)
    Blend: CC-PVDZ-JKFIT
  Basis Set: CC-PVDZ
    Blend: CC-PVDZ
  Basis Set: (CC-PVDZ AUX)
    Blend: CC-PVDZ-JKFIT
  @DF-UKS Final Energy:  -183.43572178849757
    Total Energy =                       -183.4357217884975739
  Basis Set: CC-PVDZ
    Blend: CC-PVDZ
  Basis Set: (CC-PVDZ AUX)
    Blend: CC-PVDZ-JKFIT
  Charge       = -1
  Multiplicity = 3
  Basis Set: CC-PVDZ
    Blend: CC-PVDZ
  Basis Set: (CC-PVDZ AUX)
    Blend: CC-PVDZ-JKFIT

    Orbital Energies [Eh]
    ---------------------

    Alpha Occupied:

       1A1   -30.786307     2A1   -13.907541     3A1    -1.252009
       1B1    -0.361361     1B2    -0.361213     4A1    -0.358717
       5A1    -0.299039     2B1     0.124221     6A1     0.124514
       2B2     0.183118

    Alpha Virtual:

       7A1     1.057316     3B1     1.068797     3B2     1.112384
       8A1     1.196238     4B1     1.536641     4B2     1.537005
       9A1     1.576104    10A1     2.008082     5B1     2.141985
      11A1     2.142479     5B2     2.189069     1A2     2.189072
      12A1     2.205865     2A2     4.904281    13A1     4.904357
       6B1     4.905807     6B2     4.905893    14A1     4.906744

    Beta Occupied:

       1A1   -30.786192     2A1   -13.875799     3A1    -1.251851
       1B1    -0.361300     1B2    -0.361158     4A1    -0.358187
       5A1    -0.175604     2B2     0.219735

    Beta Virtual:

       6A1     0.337001     2B1     0.337160     3B2     1.139176
       7A1     1.155886     3B1     1.172028     8A1     1.264838
       4B1     1.536654     4B2     1.536946     9A1     1.580946
      10A1     2.009002     5B2     2.259995     1A2     2.260036
      11A1     2.265797     5B1     2.279287    12A1     2.279617
       2A2     4.904334    13A1     4.904410     6B1     4.905973
       6B2     4.906056    14A1     4.906946

    Final Occupation by Irrep:
             A1    A2    B1    B2
    DOCC [     5,    0,    1,    2 ]
    SOCC [     1,    0,    1,    0 ]
    NA   [     6,    0,    2,    2 ]
    NB   [     5,    0,    1,    2 ]

  @DF-UKS Final Energy:  -183.43572222086874

   => Energetics <=

    Nuclear Repulsion Energy =             12.3184413052533586
    One-Electron Energy =                -286.2836770280015344
    Two-Electron Energy =                 106.3965070119299128
    DFT Exchange-Correlation Energy =     -15.8669935100504951
    Empirical Dispersion Energy =           0.0000000000000000
    VV10 Nonlocal Energy =                  0.0000000000000000
    Total Energy =                       -183.4357222208687404

  UHF NO Occupations:
  HONO-2 :    5 A1 1.9992430
  HONO-1 :    6 A1 1.0000000
  HONO-0 :    2 B1 1.0000000
  LUNO+0 :    7 A1 0.0007570
  LUNO+1 :    3 B2 0.0001968
  LUNO+2 :    8 A1 0.0000002
  LUNO+3 :    9 A1 0.0000001

Computation Completed

Properties will be evaluated at   0.000000,   0.000000,   0.000000 [a0]

Properties computed using the SCF density matrix

 Multipole Moments:

 ------------------------------------------------------------------------------------
     Multipole            Electronic (a.u.)      Nuclear  (a.u.)        Total (a.u.)
 ------------------------------------------------------------------------------------

 L = 1.  Multiply by 2.5417464519 to convert [e a0] to [Debye]
 Dipole X            :          0.0000000            0.0000000            0.0000000
 Dipole Y            :          0.0000000            0.0000000            0.0000000
 Dipole Z            :         -3.3152156           -0.0139840           -3.3291997
 Magnitude           :                                                    3.3291997

 ------------------------------------------------------------------------------------

*** tstop() called on Joses-MacBook-Pro-2.local at Thu Jul 17 10:27:40 2025
Module time:
	user time   =       2.01 seconds =       0.03 minutes
	system time =       3.23 seconds =       0.05 minutes
	total time  =          1 seconds =       0.02 minutes
Total time:
	user time   =      79.86 seconds =       1.33 minutes
	system time =      56.32 seconds =       0.94 minutes
	total time  =         14 seconds =       0.23 minutes

*** tstart() called on Joses-MacBook-Pro-2.local
*** at Thu Jul 17 10:27:40 2025

         ------------------------------------------------------------
                                   SCF GRAD
                          Rob Parrish, Justin Turney,
                       Andy Simmonett, and Alex Sokolov
         ------------------------------------------------------------

  ==> Geometry <==

    Molecular point group: c2v
    Full point group: C_inf_v

    Geometry (in Angstrom), charge = -1, multiplicity = 3:

       Center              X                  Y                   Z               Mass
    ------------   -----------------  -----------------  -----------------  -----------------
         N            0.000000000000     0.000000000000     1.768428906258    14.003074004430
         NE           0.000000000000     0.000000000000    -1.238640237393    19.992440176200

  Nuclear repulsion =   12.318441305253359

  ==> Basis Set <==

  Basis Set: CC-PVDZ
    Blend: CC-PVDZ
    Number of shells: 12
    Number of basis functions: 28
    Number of Cartesian functions: 30
    Spherical Harmonics?: true
    Max angular momentum: 2

  ==> DFJKGrad: Density-Fitted SCF Gradients <==

    Gradient:                    1
    J tasked:                  Yes
    K tasked:                  Yes
    wK tasked:                  No
    OpenMP threads:              1
    Integrals threads:           1
    Memory [MiB]:              375
    Schwarz Cutoff:          1E-12
    Fitting Condition:       1E-10

   => Auxiliary Basis Set <=

  Basis Set: (CC-PVDZ AUX)
    Blend: CC-PVDZ-JKFIT
    Number of shells: 48
    Number of basis functions: 140
    Number of Cartesian functions: 162
    Spherical Harmonics?: true
    Max angular momentum: 3

  ==> DFT Potential <==

   => LibXC <=

    Version 6.2.2
    S. Lehtola, C. Steigemann, M. J.T. Oliveira, and M. A.L. Marques.,  SoftwareX 7, 1â€“5 (2018) (10.1016/j.softx.2017.11.002)

   => Composite Functional: B3LYP <=

    B3LYP Hyb-GGA Exchange-Correlation Functional

    P. J. Stephens, F. J. Devlin, C. F. Chabalowski, and M. J. Frisch.,  J. Phys. Chem. 98, 11623 (1994) (10.1021/j100096a001)

    Deriv               =              1
    GGA                 =           TRUE
    Meta                =          FALSE

    Exchange Hybrid     =           TRUE
    MP2 Hybrid          =          FALSE

   => Exchange Functionals <=

    0.0800   Slater exchange
    0.7200         Becke 88

   => Exact (HF) Exchange <=

    0.2000               HF

   => Correlation Functionals <=

    0.1900   Vosko, Wilk & Nusair (VWN5_RPA)
    0.8100   Lee, Yang & Parr

   => LibXC Density Thresholds  <==

    XC_HYB_GGA_XC_B3LYP:  1.00E-15

   => Molecular Quadrature <=

    Radial Scheme          =       TREUTLER
    Pruning Scheme         =           NONE
    Nuclear Scheme         =       TREUTLER

    Blocking Scheme        =         OCTREE
    BS radius alpha        =              1
    Pruning alpha          =              1
    Radial Points          =             75
    Spherical Points       =            302
    Total Points           =          42890
    Total Blocks           =            383
    Max Points             =            252
    Max Functions          =             28
    Weights Tolerance      =       1.00E-15

  -Total Gradient:
     Atom            X                  Y                   Z
    ------   -----------------  -----------------  -----------------
       1        0.000000000000    -0.000000000000    -0.000020358722
       2        0.000000000000    -0.000000000000     0.000023372068

*** tstop() called on Joses-MacBook-Pro-2.local at Thu Jul 17 10:27:40 2025
Module time:
	user time   =       0.49 seconds =       0.01 minutes
	system time =       1.06 seconds =       0.02 minutes
	total time  =          0 seconds =       0.00 minutes
Total time:
	user time   =      80.35 seconds =       1.34 minutes
	system time =      57.40 seconds =       0.96 minutes
	total time  =         14 seconds =       0.23 minutes

    			-----------------------------------------

    			 OPTKING 3.0: for geometry optimizations

    			     By R.A. King, Bethel University

    			        with contributions from

    			    A.V. Copan, J. Cayton, A. Heide

    			-----------------------------------------

	                            ===> Fragment 1 <==

	 Z (Atomic Numbers)          Masses                          Geom
	       7.000000            14.003074          0.00000000  0.00000000  3.34184631
	      10.000000            19.992440          0.00000000  0.00000000 -2.34069082

	 - Coordinate -           - BOHR/RAD -       - ANG/DEG -
	 R(1,2)           =         5.682537           3.007069

	        --- Internal Coordinate Step in ANG or DEG, aJ/ANG or AJ/DEG ---
	-------------------------------------------------------------------------------
	           Coordinate      Previous         Force          Change          New
	           ----------      --------        ------          ------        ------
	               R(1,2)       3.00707        0.00018        0.00371       3.01078
	-------------------------------------------------------------------------------

	                                 ==> Convergence Check <==

	Measures of convergence in internal coordinates in au.

	Criteria marked as inactive (o), active & met (*), and active & unmet ( ).

	----------------------------------------------------------------------------------------------
	   Step    Total Energy     Delta E     Max Force     RMS Force      Max Disp      RMS Disp
	----------------------------------------------------------------------------------------------
	  Convergence Criteria     1.00e-06 *    3.00e-04 *             o    1.20e-03 *             o
	----------------------------------------------------------------------------------------------
	    15    -183.43572222   -4.32e-07 *    2.19e-05 *    2.19e-05 o    7.01e-03      7.01e-03 o  ~
	----------------------------------------------------------------------------------------------

Next Geometry in Ang
	Fragment 1 (Ang)

	    N   0.0000000000   0.0000000000   1.7702846599
	   Ne   0.0000000000   0.0000000000  -1.2404959910

    Final optimized geometry and variables:
    Molecular point group: c2v
    Full point group: C_inf_v

    Geometry (in Angstrom), charge = -1, multiplicity = 3:

    N            0.000000000000     0.000000000000     1.768428906258
    NE           0.000000000000     0.000000000000    -1.238640237393

    Psi4 stopped on: Thursday, 17 July 2025 10:27AM
    Psi4 wall time for execution: 0:00:15.07

*** Psi4 exiting successfully. Buy a developer a beer!
