                               Psi4 1.9.1 release

  ==> Input File <==

--------------------------------------------------------------------------
molecule {
-1 3
F   0.00000        0.60000        0.00000
Ne   0.00000       -0.60000        0.00000
}

set {
basis              cc-pvdz
reference          uks
maxiter            500
geom_maxiter       500
DAMPING_PERCENTAGE 1
guess              SAP
}

optimize('b3lyp')
--------------------------------------------------------------------------

    Molecular point group: c2v
  Charge       = -1
  Multiplicity = 3
  Basis Set: CC-PVDZ
    Blend: CC-PVDZ
  Basis Set: (CC-PVDZ AUX)
    Blend: CC-PVDZ-JKFIT
  @DF-UKS Final Energy:  -227.06671813582753
    Total Energy =                       -227.0667181358275286
 Dipole X            :          0.0000000            0.0000000            0.0000000
 Dipole Y            :          0.0000000            0.0000000            0.0000000
 Dipole Z            :         -0.8356827           -0.5846191           -1.4203018
 Magnitude           :                                                    1.4203018
    Molecular point group: c2v
  Basis Set: CC-PVDZ
    Blend: CC-PVDZ
  Basis Set: (CC-PVDZ AUX)
    Blend: CC-PVDZ-JKFIT
  Basis Set: CC-PVDZ
    Blend: CC-PVDZ
  Basis Set: (CC-PVDZ AUX)
    Blend: CC-PVDZ-JKFIT
  @DF-UKS Final Energy:  -227.25913433330112
    Total Energy =                       -227.2591343333011196
  Basis Set: CC-PVDZ
    Blend: CC-PVDZ
  Basis Set: (CC-PVDZ AUX)
    Blend: CC-PVDZ-JKFIT
  Basis Set: CC-PVDZ
    Blend: CC-PVDZ
  @DF-UKS Final Energy:  -227.27593167857140
    Total Energy =                       -227.2759316785713963
  @DF-UKS Final Energy:  -227.31471525364469
    Total Energy =                       -227.3147152536446924
  @DF-UKS Final Energy:  -227.50285109665995
    Total Energy =                       -227.5028510966599526
  @DF-UKS Final Energy:  -227.50795373487929
    Total Energy =                       -227.5079537348792940
  @DF-UKS Final Energy:  -227.50858820350334
    Total Energy =                       -227.5085882035033364
  Basis Set: (CC-PVDZ AUX)
    Blend: CC-PVDZ-JKFIT
  Basis Set: CC-PVDZ
    Blend: CC-PVDZ
  Basis Set: (CC-PVDZ AUX)
    Blend: CC-PVDZ-JKFIT
  @DF-UKS Final Energy:  -227.50860335013610
    Total Energy =                       -227.5086033501360987
  Basis Set: CC-PVDZ
    Blend: CC-PVDZ
  Basis Set: (CC-PVDZ AUX)
    Blend: CC-PVDZ-JKFIT
  Charge       = -1
  Multiplicity = 3
  Basis Set: CC-PVDZ
    Blend: CC-PVDZ
  Basis Set: (CC-PVDZ AUX)
    Blend: CC-PVDZ-JKFIT

    Orbital Energies [Eh]
    ---------------------

    Alpha Occupied:

       1A1   -30.610423     2A1   -24.190469     3A1    -1.110514
       4A1    -0.729627     5A1    -0.223744     1B1    -0.221684
       1B2    -0.221684     6A1    -0.067760     2B2     0.020736
       2B1     0.020736     7A1     1.280796

    Alpha Virtual:

       3B1     1.501825     3B2     1.501825     4B2     1.669070
       4B1     1.669070     8A1     1.679029     9A1     1.898855
      10A1     2.218434    11A1     3.945072     5B2     3.955264
       5B1     3.955264    12A1     4.003517     1A2     4.003541
      13A1     5.046020     2A2     5.046035     6B2     5.053678
       6B1     5.053678    14A1     5.058981

    Beta Occupied:

       1A1   -30.600705     2A1   -24.135926     3A1    -1.100804
       4A1    -0.620908     1B1    -0.216534     1B2    -0.216534
       5A1    -0.193922     2B2     0.061807     2B1     0.061807

    Beta Virtual:

       6A1     0.273872     7A1     1.522178     3B1     1.537890
       3B2     1.537890     4B2     1.676943     4B1     1.676943
       8A1     1.769000     9A1     1.959261    10A1     2.261918
      11A1     4.020673     1A2     4.020696     5B2     4.062749
       5B1     4.062749    12A1     4.094907    13A1     5.047964
       2A2     5.047981     6B2     5.061695     6B1     5.061695
      14A1     5.068906

    Final Occupation by Irrep:
             A1    A2    B1    B2
    DOCC [     5,    0,    2,    2 ]
    SOCC [     2,    0,    0,    0 ]
    NA   [     7,    0,    2,    2 ]
    NB   [     5,    0,    2,    2 ]

  @DF-UKS Final Energy:  -227.50860374401861

   => Energetics <=

    Nuclear Repulsion Energy =             20.3295265557670071
    One-Electron Energy =                -369.1162327464933242
    Two-Electron Energy =                 140.1871854986394794
    DFT Exchange-Correlation Energy =     -18.9090830519317770
    Empirical Dispersion Energy =           0.0000000000000000
    VV10 Nonlocal Energy =                  0.0000000000000000
    Total Energy =                       -227.5086037440186146

  UHF NO Occupations:
  HONO-2 :    5 A1 1.9995652
  HONO-1 :    6 A1 1.0000000
  HONO-0 :    7 A1 1.0000000
  LUNO+0 :    8 A1 0.0004348
  LUNO+1 :    3 B2 0.0000960
  LUNO+2 :    3 B1 0.0000960
  LUNO+3 :    9 A1 0.0000359

Computation Completed

Properties will be evaluated at   0.000000,   0.000000,   0.000000 [a0]

Properties computed using the SCF density matrix

 Multipole Moments:

 ------------------------------------------------------------------------------------
     Multipole            Electronic (a.u.)      Nuclear  (a.u.)        Total (a.u.)
 ------------------------------------------------------------------------------------

 L = 1.  Multiply by 2.5417464519 to convert [e a0] to [Debye]
 Dipole X            :          0.0000000            0.0000000            0.0000000
 Dipole Y            :          0.0000000            0.0000000            0.0000000
 Dipole Z            :         -0.1575136           -1.1413218           -1.2988355
 Magnitude           :                                                    1.2988355

 ------------------------------------------------------------------------------------

*** tstop() called on Joses-MacBook-Pro-2.local at Thu Jul 17 10:50:14 2025
Module time:
	user time   =       2.56 seconds =       0.04 minutes
	system time =       3.20 seconds =       0.05 minutes
	total time  =          1 seconds =       0.02 minutes
Total time:
	user time   =      35.22 seconds =       0.59 minutes
	system time =      47.96 seconds =       0.80 minutes
	total time  =          9 seconds =       0.15 minutes

*** tstart() called on Joses-MacBook-Pro-2.local
*** at Thu Jul 17 10:50:14 2025

         ------------------------------------------------------------
                                   SCF GRAD
                          Rob Parrish, Justin Turney,
                       Andy Simmonett, and Alex Sokolov
         ------------------------------------------------------------

  ==> Geometry <==

    Molecular point group: c2v
    Full point group: C_inf_v

    Geometry (in Angstrom), charge = -1, multiplicity = 3:

       Center              X                  Y                   Z               Mass
    ------------   -----------------  -----------------  -----------------  -----------------
         F            0.000000000000     0.000000000000     1.201211700842    18.998403162730
         NE           0.000000000000     0.000000000000    -1.141486680729    19.992440176200

  Nuclear repulsion =   20.329526555767007

  ==> Basis Set <==

  Basis Set: CC-PVDZ
    Blend: CC-PVDZ
    Number of shells: 12
    Number of basis functions: 28
    Number of Cartesian functions: 30
    Spherical Harmonics?: true
    Max angular momentum: 2

  ==> DFJKGrad: Density-Fitted SCF Gradients <==

    Gradient:                    1
    J tasked:                  Yes
    K tasked:                  Yes
    wK tasked:                  No
    OpenMP threads:              1
    Integrals threads:           1
    Memory [MiB]:              375
    Schwarz Cutoff:          1E-12
    Fitting Condition:       1E-10

   => Auxiliary Basis Set <=

  Basis Set: (CC-PVDZ AUX)
    Blend: CC-PVDZ-JKFIT
    Number of shells: 48
    Number of basis functions: 140
    Number of Cartesian functions: 162
    Spherical Harmonics?: true
    Max angular momentum: 3

  ==> DFT Potential <==

   => LibXC <=

    Version 6.2.2
    S. Lehtola, C. Steigemann, M. J.T. Oliveira, and M. A.L. Marques.,  SoftwareX 7, 1â€“5 (2018) (10.1016/j.softx.2017.11.002)

   => Composite Functional: B3LYP <=

    B3LYP Hyb-GGA Exchange-Correlation Functional

    P. J. Stephens, F. J. Devlin, C. F. Chabalowski, and M. J. Frisch.,  J. Phys. Chem. 98, 11623 (1994) (10.1021/j100096a001)

    Deriv               =              1
    GGA                 =           TRUE
    Meta                =          FALSE

    Exchange Hybrid     =           TRUE
    MP2 Hybrid          =          FALSE

   => Exchange Functionals <=

    0.0800   Slater exchange
    0.7200         Becke 88

   => Exact (HF) Exchange <=

    0.2000               HF

   => Correlation Functionals <=

    0.1900   Vosko, Wilk & Nusair (VWN5_RPA)
    0.8100   Lee, Yang & Parr

   => LibXC Density Thresholds  <==

    XC_HYB_GGA_XC_B3LYP:  1.00E-15

   => Molecular Quadrature <=

    Radial Scheme          =       TREUTLER
    Pruning Scheme         =           NONE
    Nuclear Scheme         =       TREUTLER

    Blocking Scheme        =         OCTREE
    BS radius alpha        =              1
    Pruning alpha          =              1
    Radial Points          =             75
    Spherical Points       =            302
    Total Points           =          42373
    Total Blocks           =            378
    Max Points             =            253
    Max Functions          =             28
    Weights Tolerance      =       1.00E-15

  -Total Gradient:
     Atom            X                  Y                   Z
    ------   -----------------  -----------------  -----------------
       1        0.000000000000    -0.000000000000    -0.000064696051
       2       -0.000000000000     0.000000000000     0.000070662172

*** tstop() called on Joses-MacBook-Pro-2.local at Thu Jul 17 10:50:14 2025
Module time:
	user time   =       0.67 seconds =       0.01 minutes
	system time =       0.88 seconds =       0.01 minutes
	total time  =          0 seconds =       0.00 minutes
Total time:
	user time   =      35.89 seconds =       0.60 minutes
	system time =      48.85 seconds =       0.81 minutes
	total time  =          9 seconds =       0.15 minutes

    			-----------------------------------------

    			 OPTKING 3.0: for geometry optimizations

    			     By R.A. King, Bethel University

    			        with contributions from

    			    A.V. Copan, J. Cayton, A. Heide

    			-----------------------------------------

	                            ===> Fragment 1 <==

	 Z (Atomic Numbers)          Masses                          Geom
	       9.000000            18.998403          0.00000000  0.00000000  2.26996113
	      10.000000            19.992440          0.00000000  0.00000000 -2.15709720

	 - Coordinate -           - BOHR/RAD -       - ANG/DEG -
	 R(1,2)           =         4.427058           2.342698

	        --- Internal Coordinate Step in ANG or DEG, aJ/ANG or AJ/DEG ---
	-------------------------------------------------------------------------------
	           Coordinate      Previous         Force          Change          New
	           ----------      --------        ------          ------        ------
	               R(1,2)       2.34270        0.00056        0.00015       2.34285
	-------------------------------------------------------------------------------

	                                 ==> Convergence Check <==

	Measures of convergence in internal coordinates in au.

	Criteria marked as inactive (o), active & met (*), and active & unmet ( ).

	----------------------------------------------------------------------------------------------
	   Step    Total Energy     Delta E     Max Force     RMS Force      Max Disp      RMS Disp
	----------------------------------------------------------------------------------------------
	  Convergence Criteria     1.00e-06 *    3.00e-04 *             o    1.20e-03 *             o
	----------------------------------------------------------------------------------------------
	     9    -227.50860374   -3.94e-07 *    6.77e-05 *    6.77e-05 o    2.79e-04 *    2.79e-04 o  ~
	----------------------------------------------------------------------------------------------

Next Geometry in Ang
	Fragment 1 (Ang)

	    F   0.0000000000   0.0000000000   1.2012853922
	   Ne   0.0000000000   0.0000000000  -1.1415603721

    Final optimized geometry and variables:
    Molecular point group: c2v
    Full point group: C_inf_v

    Geometry (in Angstrom), charge = -1, multiplicity = 3:

    F            0.000000000000     0.000000000000     1.201211700842
    NE           0.000000000000     0.000000000000    -1.141486680729

    Psi4 stopped on: Thursday, 17 July 2025 10:50AM
    Psi4 wall time for execution: 0:00:09.25

*** Psi4 exiting successfully. Buy a developer a beer!
