                               Psi4 1.9.1 release

  ==> Input File <==

--------------------------------------------------------------------------
molecule {
-1 3
Be   0.00000        0.60000        0.00000
F   0.00000       -0.60000        0.00000
}

set {
basis              cc-pvdz
reference          uks
maxiter            500
geom_maxiter       500
DAMPING_PERCENTAGE 1
guess              SAP
}

optimize('b3lyp')
--------------------------------------------------------------------------

    Molecular point group: c2v
  Charge       = -1
  Multiplicity = 3
  Basis Set: CC-PVDZ
    Blend: CC-PVDZ
  Basis Set: (CC-PVDZ AUX)
    Blend: CC-PVDZ-JKFIT + DEF2-UNIVERSAL-JKFIT
  @DF-UKS Final Energy:  -114.50912695463470
    Total Energy =                       -114.5091269546346950
 Dipole X            :          0.0000000            0.0000000            0.0000000
 Dipole Y            :          0.0000000            0.0000000            0.0000000
 Dipole Z            :         -1.0777365           -0.4141822           -1.4919187
 Magnitude           :                                                    1.4919187
    Molecular point group: c2v
  Basis Set: CC-PVDZ
    Blend: CC-PVDZ
  Basis Set: (CC-PVDZ AUX)
    Blend: CC-PVDZ-JKFIT + DEF2-UNIVERSAL-JKFIT
  Basis Set: CC-PVDZ
    Blend: CC-PVDZ
  Basis Set: (CC-PVDZ AUX)
    Blend: CC-PVDZ-JKFIT + DEF2-UNIVERSAL-JKFIT
  @DF-UKS Final Energy:  -114.55306506378381
    Total Energy =                       -114.5530650637838050
  Basis Set: CC-PVDZ
    Blend: CC-PVDZ
  Basis Set: (CC-PVDZ AUX)
    Blend: CC-PVDZ-JKFIT + DEF2-UNIVERSAL-JKFIT
  Basis Set: CC-PVDZ
    Blend: CC-PVDZ
  @DF-UKS Final Energy:  -114.56163820856511
    Total Energy =                       -114.5616382085651139
  @DF-UKS Final Energy:  -114.56352726304223
    Total Energy =                       -114.5635272630422321
  @DF-UKS Final Energy:  -114.56400724560939
    Total Energy =                       -114.5640072456093890
  @DF-UKS Final Energy:  -114.56413864118568
    Total Energy =                       -114.5641386411856786
  Basis Set: (CC-PVDZ AUX)
    Blend: CC-PVDZ-JKFIT + DEF2-UNIVERSAL-JKFIT
  Basis Set: CC-PVDZ
    Blend: CC-PVDZ
  Basis Set: (CC-PVDZ AUX)
    Blend: CC-PVDZ-JKFIT + DEF2-UNIVERSAL-JKFIT
  @DF-UKS Final Energy:  -114.56418598683121
    Total Energy =                       -114.5641859868312054
  Basis Set: CC-PVDZ
    Blend: CC-PVDZ
  Basis Set: (CC-PVDZ AUX)
    Blend: CC-PVDZ-JKFIT + DEF2-UNIVERSAL-JKFIT
  Charge       = -1
  Multiplicity = 3
  Basis Set: CC-PVDZ
    Blend: CC-PVDZ
  Basis Set: (CC-PVDZ AUX)
    Blend: CC-PVDZ-JKFIT + DEF2-UNIVERSAL-JKFIT

    Orbital Energies [Eh]
    ---------------------

    Alpha Occupied:

       1A1   -24.413409     2A1    -3.824870     3A1    -0.892972
       4A1    -0.204274     1B2    -0.159138     1B1    -0.155020
       5A1     0.000757     2B2     0.129509

    Alpha Virtual:

       2B1     0.183392     6A1     0.251919     7A1     0.378906
       3B2     0.391697     3B1     0.406458     8A1     0.572312
       1A2     0.691157     9A1     0.696586     4B2     0.772002
       4B1     0.775915    10A1     0.955127     5B1     1.538093
       5B2     1.538870    11A1     1.573784    12A1     2.638795
       2A2     3.841156    13A1     3.841200     6B1     3.907033
       6B2     3.908248    14A1     4.056965

    Beta Occupied:

       1A1   -24.410029     2A1    -3.814195     3A1    -0.885899
       4A1    -0.197893     1B1    -0.152965     1B2    -0.142777

    Beta Virtual:

       5A1     0.137102     2B1     0.214506     2B2     0.234231
       6A1     0.272199     3B1     0.428287     7A1     0.437595
       3B2     0.447357     8A1     0.617352     1A2     0.750359
       9A1     0.750941     4B1     0.824678     4B2     0.846375
      10A1     1.003344     5B1     1.542746     5B2     1.552133
      11A1     1.580622    12A1     2.646805    13A1     3.847795
       2A2     3.847882     6B1     3.910185     6B2     3.917973
      14A1     4.063817

    Final Occupation by Irrep:
             A1    A2    B1    B2
    DOCC [     4,    0,    1,    1 ]
    SOCC [     1,    0,    0,    1 ]
    NA   [     5,    0,    1,    2 ]
    NB   [     4,    0,    1,    1 ]

  @DF-UKS Final Energy:  -114.56419101475164

   => Energetics <=

    Nuclear Repulsion Energy =             12.9525556136341500
    One-Electron Energy =                -188.0564868692748632
    Two-Electron Energy =                  71.4746312709101232
    DFT Exchange-Correlation Energy =     -10.9348910300210598
    Empirical Dispersion Energy =           0.0000000000000000
    VV10 Nonlocal Energy =                  0.0000000000000000
    Total Energy =                       -114.5641910147516427

  UHF NO Occupations:
  HONO-2 :    1 B1 1.9998721
  HONO-1 :    5 A1 1.0000000
  HONO-0 :    2 B2 1.0000000
  LUNO+0 :    2 B1 0.0001279
  LUNO+1 :    3 B2 0.0001080
  LUNO+2 :    6 A1 0.0000305
  LUNO+3 :    7 A1 0.0000039

Computation Completed

Properties will be evaluated at   0.000000,   0.000000,   0.000000 [a0]

Properties computed using the SCF density matrix

 Multipole Moments:

 ------------------------------------------------------------------------------------
     Multipole            Electronic (a.u.)      Nuclear  (a.u.)        Total (a.u.)
 ------------------------------------------------------------------------------------

 L = 1.  Multiply by 2.5417464519 to convert [e a0] to [Debye]
 Dipole X            :          0.0000000            0.0000000            0.0000000
 Dipole Y            :          0.0000000            0.0000000            0.0000000
 Dipole Z            :         -0.9164445           -0.5076429           -1.4240874
 Magnitude           :                                                    1.4240874

 ------------------------------------------------------------------------------------

*** tstop() called on Joses-MacBook-Pro-2.local at Thu Jul 17 09:41:14 2025
Module time:
	user time   =       2.87 seconds =       0.05 minutes
	system time =       3.47 seconds =       0.06 minutes
	total time  =          1 seconds =       0.02 minutes
Total time:
	user time   =      31.87 seconds =       0.53 minutes
	system time =      38.21 seconds =       0.64 minutes
	total time  =          7 seconds =       0.12 minutes

*** tstart() called on Joses-MacBook-Pro-2.local
*** at Thu Jul 17 09:41:14 2025

         ------------------------------------------------------------
                                   SCF GRAD
                          Rob Parrish, Justin Turney,
                       Andy Simmonett, and Alex Sokolov
         ------------------------------------------------------------

  ==> Geometry <==

    Molecular point group: c2v
    Full point group: C_inf_v

    Geometry (in Angstrom), charge = -1, multiplicity = 3:

       Center              X                  Y                   Z               Mass
    ------------   -----------------  -----------------  -----------------  -----------------
         BE           0.000000000000     0.000000000000     0.997569285958     9.012183065000
         F            0.000000000000     0.000000000000    -0.473212245686    18.998403162730

  Nuclear repulsion =   12.952555613634150

  ==> Basis Set <==

  Basis Set: CC-PVDZ
    Blend: CC-PVDZ
    Number of shells: 12
    Number of basis functions: 28
    Number of Cartesian functions: 30
    Spherical Harmonics?: true
    Max angular momentum: 2

  ==> DFJKGrad: Density-Fitted SCF Gradients <==

    Gradient:                    1
    J tasked:                  Yes
    K tasked:                  Yes
    wK tasked:                  No
    OpenMP threads:              1
    Integrals threads:           1
    Memory [MiB]:              375
    Schwarz Cutoff:          1E-12
    Fitting Condition:       1E-10

   => Auxiliary Basis Set <=

  Basis Set: (CC-PVDZ AUX)
    Blend: CC-PVDZ-JKFIT + DEF2-UNIVERSAL-JKFIT
    Number of shells: 41
    Number of basis functions: 121
    Number of Cartesian functions: 141
    Spherical Harmonics?: true
    Max angular momentum: 3

  ==> DFT Potential <==

   => LibXC <=

    Version 6.2.2
    S. Lehtola, C. Steigemann, M. J.T. Oliveira, and M. A.L. Marques.,  SoftwareX 7, 1â€“5 (2018) (10.1016/j.softx.2017.11.002)

   => Composite Functional: B3LYP <=

    B3LYP Hyb-GGA Exchange-Correlation Functional

    P. J. Stephens, F. J. Devlin, C. F. Chabalowski, and M. J. Frisch.,  J. Phys. Chem. 98, 11623 (1994) (10.1021/j100096a001)

    Deriv               =              1
    GGA                 =           TRUE
    Meta                =          FALSE

    Exchange Hybrid     =           TRUE
    MP2 Hybrid          =          FALSE

   => Exchange Functionals <=

    0.0800   Slater exchange
    0.7200         Becke 88

   => Exact (HF) Exchange <=

    0.2000               HF

   => Correlation Functionals <=

    0.1900   Vosko, Wilk & Nusair (VWN5_RPA)
    0.8100   Lee, Yang & Parr

   => LibXC Density Thresholds  <==

    XC_HYB_GGA_XC_B3LYP:  1.00E-15

   => Molecular Quadrature <=

    Radial Scheme          =       TREUTLER
    Pruning Scheme         =           NONE
    Nuclear Scheme         =       TREUTLER

    Blocking Scheme        =         OCTREE
    BS radius alpha        =              1
    Pruning alpha          =              1
    Radial Points          =             75
    Spherical Points       =            302
    Total Points           =          43528
    Total Blocks           =            403
    Max Points             =            256
    Max Functions          =             28
    Weights Tolerance      =       1.00E-15

  -Total Gradient:
     Atom            X                  Y                   Z
    ------   -----------------  -----------------  -----------------
       1        0.000000000000     0.000000000000    -0.000274358806
       2        0.000000000000     0.000000000000     0.000313530378

*** tstop() called on Joses-MacBook-Pro-2.local at Thu Jul 17 09:41:14 2025
Module time:
	user time   =       0.43 seconds =       0.01 minutes
	system time =       1.34 seconds =       0.02 minutes
	total time  =          0 seconds =       0.00 minutes
Total time:
	user time   =      32.31 seconds =       0.54 minutes
	system time =      39.56 seconds =       0.66 minutes
	total time  =          7 seconds =       0.12 minutes

    			-----------------------------------------

    			 OPTKING 3.0: for geometry optimizations

    			     By R.A. King, Bethel University

    			        with contributions from

    			    A.V. Copan, J. Cayton, A. Heide

    			-----------------------------------------

	                            ===> Fragment 1 <==

	 Z (Atomic Numbers)          Masses                          Geom
	       4.000000             9.012183          0.00000000  0.00000000  1.88513274
	       9.000000            18.998403          0.00000000  0.00000000 -0.89424154

	 - Coordinate -           - BOHR/RAD -       - ANG/DEG -
	 R(1,2)           =         2.779374           1.470782

	        --- Internal Coordinate Step in ANG or DEG, aJ/ANG or AJ/DEG ---
	-------------------------------------------------------------------------------
	           Coordinate      Previous         Force          Change          New
	           ----------      --------        ------          ------        ------
	               R(1,2)       1.47078        0.00242        0.00057       1.47135
	-------------------------------------------------------------------------------

	                                 ==> Convergence Check <==

	Measures of convergence in internal coordinates in au.

	Criteria marked as inactive (o), active & met (*), and active & unmet ( ).

	----------------------------------------------------------------------------------------------
	   Step    Total Energy     Delta E     Max Force     RMS Force      Max Disp      RMS Disp
	----------------------------------------------------------------------------------------------
	  Convergence Criteria     1.00e-06 *    3.00e-04 *             o    1.20e-03 *             o
	----------------------------------------------------------------------------------------------
	     8    -114.56419101   -5.03e-06      2.94e-04 *    2.94e-04 o    1.08e-03 *    1.08e-03 o  ~
	----------------------------------------------------------------------------------------------

Next Geometry in Ang
	Fragment 1 (Ang)

	   Be   0.0000000000   0.0000000000   0.9978549903
	    F   0.0000000000   0.0000000000  -0.4734979500

    Final optimized geometry and variables:
    Molecular point group: c2v
    Full point group: C_inf_v

    Geometry (in Angstrom), charge = -1, multiplicity = 3:

    BE           0.000000000000     0.000000000000     0.997569285958
    F            0.000000000000     0.000000000000    -0.473212245686

    Psi4 stopped on: Thursday, 17 July 2025 09:41AM
    Psi4 wall time for execution: 0:00:07.62

*** Psi4 exiting successfully. Buy a developer a beer!
