                               Psi4 1.9.1 release

  ==> Input File <==

--------------------------------------------------------------------------
molecule {
-1 3
Na   0.00000        0.60000        0.00000
S   0.00000       -0.60000        0.00000
}

set {
basis              cc-pvdz
reference          uks
maxiter            500
geom_maxiter       500
DAMPING_PERCENTAGE 1
guess              SAP
}

optimize('b3lyp')
--------------------------------------------------------------------------

    Molecular point group: c2v
  Charge       = -1
  Multiplicity = 3
  Basis Set: CC-PVDZ
    Blend: CC-PVDZ
  Basis Set: (CC-PVDZ AUX)
    Blend: CC-PVDZ-JKFIT + DEF2-UNIVERSAL-JKFIT
  @DF-UKS Final Energy:  -559.57981832440919
    Total Energy =                       -559.5798183244093025
 Dipole X            :          0.0000000            0.0000000            0.0000000
 Dipole Y            :          0.0000000            0.0000000            0.0000000
 Dipole Z            :         -1.1574079           -0.6660660           -1.8234738
 Magnitude           :                                                    1.8234738
    Molecular point group: c2v
  Basis Set: CC-PVDZ
    Blend: CC-PVDZ
  Basis Set: (CC-PVDZ AUX)
    Blend: CC-PVDZ-JKFIT + DEF2-UNIVERSAL-JKFIT
  Basis Set: CC-PVDZ
    Blend: CC-PVDZ
  Basis Set: (CC-PVDZ AUX)
    Blend: CC-PVDZ-JKFIT + DEF2-UNIVERSAL-JKFIT
  @DF-UKS Final Energy:  -559.59242586087373
    Total Energy =                       -559.5924258608736181
  Basis Set: CC-PVDZ
    Blend: CC-PVDZ
  Basis Set: (CC-PVDZ AUX)
    Blend: CC-PVDZ-JKFIT + DEF2-UNIVERSAL-JKFIT
  Basis Set: CC-PVDZ
    Blend: CC-PVDZ
  @DF-UKS Final Energy:  -559.61674579020564
    Total Energy =                       -559.6167457902056412
  @DF-UKS Final Energy:  -559.70482438631450
    Total Energy =                       -559.7048243863144990
  @DF-UKS Final Energy:  -560.09315751800614
    Total Energy =                       -560.0931575180061373
  @DF-UKS Final Energy:  -560.29667279777277
    Total Energy =                       -560.2966727977727714
  @DF-UKS Final Energy:  -560.41660089235950
    Total Energy =                       -560.4166008923594973
  @DF-UKS Final Energy:  -560.47156324365801
    Total Energy =                       -560.4715632436578971
  @DF-UKS Final Energy:  -560.49754025242419
    Total Energy =                       -560.4975402524241872
  @DF-UKS Final Energy:  -560.50907539188381
    Total Energy =                       -560.5090753918838118
  @DF-UKS Final Energy:  -560.51369351027552
    Total Energy =                       -560.5136935102756297
  @DF-UKS Final Energy:  -560.51513390284231
    Total Energy =                       -560.5151339028424218
  @DF-UKS Final Energy:  -560.51537160059240
    Total Energy =                       -560.5153716005924025
  @DF-UKS Final Energy:  -560.51541898581797
    Total Energy =                       -560.5154189858179734
  Basis Set: (CC-PVDZ AUX)
    Blend: CC-PVDZ-JKFIT + DEF2-UNIVERSAL-JKFIT
  Basis Set: CC-PVDZ
    Blend: CC-PVDZ
  Basis Set: (CC-PVDZ AUX)
    Blend: CC-PVDZ-JKFIT + DEF2-UNIVERSAL-JKFIT
  @DF-UKS Final Energy:  -560.51542193638466
    Total Energy =                       -560.5154219363846551
  Basis Set: CC-PVDZ
    Blend: CC-PVDZ
  Basis Set: (CC-PVDZ AUX)
    Blend: CC-PVDZ-JKFIT + DEF2-UNIVERSAL-JKFIT
  Charge       = -1
  Multiplicity = 3
  Basis Set: CC-PVDZ
    Blend: CC-PVDZ
  Basis Set: (CC-PVDZ AUX)
    Blend: CC-PVDZ-JKFIT + DEF2-UNIVERSAL-JKFIT

    Orbital Energies [Eh]
    ---------------------

    Alpha Occupied:

       1A1   -88.653134     2A1   -38.323847     3A1    -7.711614
       4A1    -5.684418     1B1    -5.667096     1B2    -5.667096
       5A1    -2.070481     2B2    -1.001742     2B1    -1.001742
       6A1    -1.001603     7A1    -0.449634     8A1    -0.101250
       3B1    -0.042684     3B2    -0.042684     9A1     0.024166

    Alpha Virtual:

       4B1     0.105049     4B2     0.105049    10A1     0.124638
      11A1     0.174508     5B1     0.206565     5B2     0.206565
      12A1     0.254409    13A1     0.308598     1A2     0.308599
       6B2     0.327726     6B1     0.327726    14A1     0.396012
      15A1     0.721653     7B1     0.740803     7B2     0.740803
      16A1     0.789819    17A1     0.847095     2A2     0.847113
       8B2     0.866515     8B1     0.866515    18A1     1.108213

    Beta Occupied:

       1A1   -88.648301     2A1   -38.322553     3A1    -7.706626
       4A1    -5.668414     1B1    -5.664054     1B2    -5.664054
       5A1    -2.068076     2B2    -1.000365     2B1    -1.000365
       6A1    -0.998844     7A1    -0.404851     3B1    -0.029810
       3B2    -0.029810

    Beta Virtual:

       8A1     0.024922     9A1     0.090756     4B1     0.115077
       4B2     0.115077    10A1     0.132822    11A1     0.192892
       5B1     0.224802     5B2     0.224802    12A1     0.285536
      13A1     0.324644     1A2     0.324645     6B2     0.356194
       6B1     0.356194    14A1     0.421507     7B1     0.752470
       7B2     0.752470    15A1     0.762500    16A1     0.848875
      17A1     0.854280     2A2     0.854299     8B2     0.908293
       8B1     0.908293    18A1     1.130491

    Final Occupation by Irrep:
             A1    A2    B1    B2
    DOCC [     7,    0,    3,    3 ]
    SOCC [     2,    0,    0,    0 ]
    NA   [     9,    0,    3,    3 ]
    NB   [     7,    0,    3,    3 ]

  @DF-UKS Final Energy:  -560.51542194503895

   => Energetics <=

    Nuclear Repulsion Energy =             35.4551249529438834
    One-Electron Energy =                -854.1983356133143843
    Two-Electron Energy =                 290.7037485910439614
    DFT Exchange-Correlation Energy =     -32.4759598757124337
    Empirical Dispersion Energy =           0.0000000000000000
    VV10 Nonlocal Energy =                  0.0000000000000000
    Total Energy =                       -560.5154219450390656

  UHF NO Occupations:
  HONO-2 :    7 A1 1.9990760
  HONO-1 :    8 A1 1.0000000
  HONO-0 :    9 A1 1.0000000
  LUNO+0 :   10 A1 0.0009240
  LUNO+1 :    4 B2 0.0001482
  LUNO+2 :    4 B1 0.0001482
  LUNO+3 :    5 B1 0.0000003

Computation Completed

Properties will be evaluated at   0.000000,   0.000000,   0.000000 [a0]

Properties computed using the SCF density matrix

 Multipole Moments:

 ------------------------------------------------------------------------------------
     Multipole            Electronic (a.u.)      Nuclear  (a.u.)        Total (a.u.)
 ------------------------------------------------------------------------------------

 L = 1.  Multiply by 2.5417464519 to convert [e a0] to [Debye]
 Dipole X            :          0.0000000            0.0000000            0.0000000
 Dipole Y            :          0.0000000            0.0000000            0.0000000
 Dipole Z            :          0.1032488           -1.4580445           -1.3547956
 Magnitude           :                                                    1.3547956

 ------------------------------------------------------------------------------------

*** tstop() called on Joses-MacBook-Pro-2.local at Thu Jul 17 11:15:27 2025
Module time:
	user time   =       7.21 seconds =       0.12 minutes
	system time =       3.66 seconds =       0.06 minutes
	total time  =          1 seconds =       0.02 minutes
Total time:
	user time   =     172.93 seconds =       2.88 minutes
	system time =      89.97 seconds =       1.50 minutes
	total time  =         25 seconds =       0.42 minutes

*** tstart() called on Joses-MacBook-Pro-2.local
*** at Thu Jul 17 11:15:27 2025

         ------------------------------------------------------------
                                   SCF GRAD
                          Rob Parrish, Justin Turney,
                       Andy Simmonett, and Alex Sokolov
         ------------------------------------------------------------

  ==> Geometry <==

    Molecular point group: c2v
    Full point group: C_inf_v

    Geometry (in Angstrom), charge = -1, multiplicity = 3:

       Center              X                  Y                   Z               Mass
    ------------   -----------------  -----------------  -----------------  -----------------
         NA           0.000000000000     0.000000000000     1.528073641025    22.989769282000
         S            0.000000000000     0.000000000000    -1.098773371967    31.972071174400

  Nuclear repulsion =   35.455124952943883

  ==> Basis Set <==

  Basis Set: CC-PVDZ
    Blend: CC-PVDZ
    Number of shells: 16
    Number of basis functions: 36
    Number of Cartesian functions: 38
    Spherical Harmonics?: true
    Max angular momentum: 2

  ==> DFJKGrad: Density-Fitted SCF Gradients <==

    Gradient:                    1
    J tasked:                  Yes
    K tasked:                  Yes
    wK tasked:                  No
    OpenMP threads:              1
    Integrals threads:           1
    Memory [MiB]:              375
    Schwarz Cutoff:          1E-12
    Fitting Condition:       1E-10

   => Auxiliary Basis Set <=

  Basis Set: (CC-PVDZ AUX)
    Blend: CC-PVDZ-JKFIT + DEF2-UNIVERSAL-JKFIT
    Number of shells: 70
    Number of basis functions: 224
    Number of Cartesian functions: 267
    Spherical Harmonics?: true
    Max angular momentum: 4

  ==> DFT Potential <==

   => LibXC <=

    Version 6.2.2
    S. Lehtola, C. Steigemann, M. J.T. Oliveira, and M. A.L. Marques.,  SoftwareX 7, 1â€“5 (2018) (10.1016/j.softx.2017.11.002)

   => Composite Functional: B3LYP <=

    B3LYP Hyb-GGA Exchange-Correlation Functional

    P. J. Stephens, F. J. Devlin, C. F. Chabalowski, and M. J. Frisch.,  J. Phys. Chem. 98, 11623 (1994) (10.1021/j100096a001)

    Deriv               =              1
    GGA                 =           TRUE
    Meta                =          FALSE

    Exchange Hybrid     =           TRUE
    MP2 Hybrid          =          FALSE

   => Exchange Functionals <=

    0.0800   Slater exchange
    0.7200         Becke 88

   => Exact (HF) Exchange <=

    0.2000               HF

   => Correlation Functionals <=

    0.1900   Vosko, Wilk & Nusair (VWN5_RPA)
    0.8100   Lee, Yang & Parr

   => LibXC Density Thresholds  <==

    XC_HYB_GGA_XC_B3LYP:  1.00E-15

   => Molecular Quadrature <=

    Radial Scheme          =       TREUTLER
    Pruning Scheme         =           NONE
    Nuclear Scheme         =       TREUTLER

    Blocking Scheme        =         OCTREE
    BS radius alpha        =              1
    Pruning alpha          =              1
    Radial Points          =             75
    Spherical Points       =            302
    Total Points           =          43848
    Total Blocks           =            441
    Max Points             =            256
    Max Functions          =             36
    Weights Tolerance      =       1.00E-15

  -Total Gradient:
     Atom            X                  Y                   Z
    ------   -----------------  -----------------  -----------------
       1       -0.000000000000     0.000000000000     0.000006557906
       2        0.000000000000    -0.000000000000     0.000086080985

*** tstop() called on Joses-MacBook-Pro-2.local at Thu Jul 17 11:15:27 2025
Module time:
	user time   =       1.76 seconds =       0.03 minutes
	system time =       2.14 seconds =       0.04 minutes
	total time  =          0 seconds =       0.00 minutes
Total time:
	user time   =     174.70 seconds =       2.91 minutes
	system time =      92.12 seconds =       1.54 minutes
	total time  =         25 seconds =       0.42 minutes

    			-----------------------------------------

    			 OPTKING 3.0: for geometry optimizations

    			     By R.A. King, Bethel University

    			        with contributions from

    			    A.V. Copan, J. Cayton, A. Heide

    			-----------------------------------------

	                            ===> Fragment 1 <==

	 Z (Atomic Numbers)          Masses                          Geom
	      11.000000            22.989769          0.00000000  0.00000000  2.88764068
	      16.000000            31.972071          0.00000000  0.00000000 -2.07638075

	 - Coordinate -           - BOHR/RAD -       - ANG/DEG -
	 R(1,2)           =         4.964021           2.626847

	        --- Internal Coordinate Step in ANG or DEG, aJ/ANG or AJ/DEG ---
	-------------------------------------------------------------------------------
	           Coordinate      Previous         Force          Change          New
	           ----------      --------        ------          ------        ------
	               R(1,2)       2.62685        0.00033        0.00073       2.62757
	-------------------------------------------------------------------------------

	                                 ==> Convergence Check <==

	Measures of convergence in internal coordinates in au.

	Criteria marked as inactive (o), active & met (*), and active & unmet ( ).

	----------------------------------------------------------------------------------------------
	   Step    Total Energy     Delta E     Max Force     RMS Force      Max Disp      RMS Disp
	----------------------------------------------------------------------------------------------
	  Convergence Criteria     1.00e-06 *    3.00e-04 *             o    1.20e-03 *             o
	----------------------------------------------------------------------------------------------
	    16    -560.51542195   -8.65e-09 *    3.98e-05 *    3.98e-05 o    1.37e-03      1.37e-03 o  ~
	----------------------------------------------------------------------------------------------

Next Geometry in Ang
	Fragment 1 (Ang)

	   Na   0.0000000000   0.0000000000   1.5284370388
	    S   0.0000000000   0.0000000000  -1.0991367697

    Final optimized geometry and variables:
    Molecular point group: c2v
    Full point group: C_inf_v

    Geometry (in Angstrom), charge = -1, multiplicity = 3:

    NA           0.000000000000     0.000000000000     1.528073641025
    S            0.000000000000     0.000000000000    -1.098773371967

    Psi4 stopped on: Thursday, 17 July 2025 11:15AM
    Psi4 wall time for execution: 0:00:26.28

*** Psi4 exiting successfully. Buy a developer a beer!
