                               Psi4 1.9.1 release

  ==> Input File <==

--------------------------------------------------------------------------
molecule {
-1 3
F   0.00000        0.60000        0.00000
Mg   0.00000       -0.60000        0.00000
}

set {
basis              cc-pvdz
reference          uks
maxiter            500
geom_maxiter       500
DAMPING_PERCENTAGE 1
guess              SAP
}

optimize('b3lyp')
--------------------------------------------------------------------------

    Molecular point group: c2v
  Charge       = -1
  Multiplicity = 3
  Basis Set: CC-PVDZ
    Blend: CC-PVDZ
  Basis Set: (CC-PVDZ AUX)
    Blend: CC-PVDZ-JKFIT + DEF2-UNIVERSAL-JKFIT
  @DF-UKS Final Energy:  -299.54640441160063
    Total Energy =                       -299.5464044116006335
 Dipole X            :          0.0000000            0.0000000            0.0000000
 Dipole Y            :          0.0000000            0.0000000            0.0000000
 Dipole Z            :          1.4015729           -0.6391737            0.7623992
 Magnitude           :                                                    0.7623992
    Molecular point group: c2v
  Basis Set: CC-PVDZ
    Blend: CC-PVDZ
  Basis Set: (CC-PVDZ AUX)
    Blend: CC-PVDZ-JKFIT + DEF2-UNIVERSAL-JKFIT
  Basis Set: CC-PVDZ
    Blend: CC-PVDZ
  Basis Set: (CC-PVDZ AUX)
    Blend: CC-PVDZ-JKFIT + DEF2-UNIVERSAL-JKFIT
  @DF-UKS Final Energy:  -299.78808974866405
    Total Energy =                       -299.7880897486640492
  Basis Set: CC-PVDZ
    Blend: CC-PVDZ
  Basis Set: (CC-PVDZ AUX)
    Blend: CC-PVDZ-JKFIT + DEF2-UNIVERSAL-JKFIT
  Basis Set: CC-PVDZ
    Blend: CC-PVDZ
  @DF-UKS Final Energy:  -299.88094593706870
    Total Energy =                       -299.8809459370687023
  @DF-UKS Final Energy:  -299.91466422254001
    Total Energy =                       -299.9146642225400115
  @DF-UKS Final Energy:  -299.93567624553725
    Total Energy =                       -299.9356762455371950
  @DF-UKS Final Energy:  -299.94530675421112
    Total Energy =                       -299.9453067542111739
  @DF-UKS Final Energy:  -299.94797285198649
    Total Energy =                       -299.9479728519864921
  @DF-UKS Final Energy:  -299.94896206220375
    Total Energy =                       -299.9489620622037478
  @DF-UKS Final Energy:  -299.94919180983152
    Total Energy =                       -299.9491918098314613
  @DF-UKS Final Energy:  -299.94925753055998
    Total Energy =                       -299.9492575305599757
  Basis Set: (CC-PVDZ AUX)
    Blend: CC-PVDZ-JKFIT + DEF2-UNIVERSAL-JKFIT
  Basis Set: CC-PVDZ
    Blend: CC-PVDZ
  Basis Set: (CC-PVDZ AUX)
    Blend: CC-PVDZ-JKFIT + DEF2-UNIVERSAL-JKFIT
  @DF-UKS Final Energy:  -299.94926729829831
    Total Energy =                       -299.9492672982983095
  Basis Set: CC-PVDZ
    Blend: CC-PVDZ
  Basis Set: (CC-PVDZ AUX)
    Blend: CC-PVDZ-JKFIT + DEF2-UNIVERSAL-JKFIT
  Charge       = -1
  Multiplicity = 3
  Basis Set: CC-PVDZ
    Blend: CC-PVDZ
  Basis Set: (CC-PVDZ AUX)
    Blend: CC-PVDZ-JKFIT + DEF2-UNIVERSAL-JKFIT

    Orbital Energies [Eh]
    ---------------------

    Alpha Occupied:

       1A1   -46.638423     2A1   -24.391872     3A1    -2.922826
       1B1    -1.668399     1B2    -1.666290     4A1    -1.664869
       5A1    -0.857660     6A1    -0.160926     2B2    -0.131003
       2B1    -0.128994     7A1    -0.020869     3B2     0.087170

    Alpha Virtual:

       3B1     0.128721     8A1     0.174136     9A1     0.248457
       4B2     0.311741     4B1     0.319253    10A1     0.390872
       1A2     0.487218    11A1     0.489905     5B2     0.544050
       5B1     0.545079    12A1     0.693854     6B1     1.502438
       6B2     1.503423    13A1     1.522830    14A1     2.470808
       2A2     3.857557    15A1     3.857810    16A1     3.868561
       7B1     3.875763     7B2     3.876518

    Beta Occupied:

       1A1   -46.635888     2A1   -24.388949     3A1    -2.918563
       1B1    -1.665875     1B2    -1.661846     4A1    -1.661176
       5A1    -0.850833     6A1    -0.151058     2B1    -0.126962
       2B2    -0.121233

    Beta Virtual:

       7A1     0.074375     3B1     0.152400     3B2     0.166434
       8A1     0.190066     9A1     0.276784     4B1     0.339484
       4B2     0.353482    10A1     0.415939     1A2     0.526419
      11A1     0.527057     5B1     0.565290     5B2     0.579552
      12A1     0.716945     6B1     1.505014     6B2     1.510986
      13A1     1.527726    14A1     2.477669    15A1     3.861757
       2A2     3.861907    16A1     3.875398     7B1     3.880156
       7B2     3.884290

    Final Occupation by Irrep:
             A1    A2    B1    B2
    DOCC [     6,    0,    2,    2 ]
    SOCC [     1,    0,    0,    1 ]
    NA   [     7,    0,    2,    3 ]
    NB   [     6,    0,    2,    2 ]

  @DF-UKS Final Energy:  -299.94926775089056

   => Energetics <=

    Nuclear Repulsion Energy =             31.6449853574887392
    One-Electron Energy =                -487.1546589711215915
    Two-Electron Energy =                 177.4941060396178045
    DFT Exchange-Correlation Energy =     -21.9337001768754938
    Empirical Dispersion Energy =           0.0000000000000000
    VV10 Nonlocal Energy =                  0.0000000000000000
    Total Energy =                       -299.9492677508905558

  UHF NO Occupations:
  HONO-2 :    6 A1 1.9998955
  HONO-1 :    3 B2 1.0000000
  HONO-0 :    7 A1 1.0000000
  LUNO+0 :    8 A1 0.0001045
  LUNO+1 :    3 B1 0.0000487
  LUNO+2 :    4 B2 0.0000367
  LUNO+3 :    9 A1 0.0000015

Computation Completed

Properties will be evaluated at   0.000000,   0.000000,   0.000000 [a0]

Properties computed using the SCF density matrix

 Multipole Moments:

 ------------------------------------------------------------------------------------
     Multipole            Electronic (a.u.)      Nuclear  (a.u.)        Total (a.u.)
 ------------------------------------------------------------------------------------

 L = 1.  Multiply by 2.5417464519 to convert [e a0] to [Debye]
 Dipole X            :          0.0000000            0.0000000            0.0000000
 Dipole Y            :          0.0000000            0.0000000            0.0000000
 Dipole Z            :          1.4559598           -0.9619614            0.4939984
 Magnitude           :                                                    0.4939984

 ------------------------------------------------------------------------------------

*** tstop() called on Joses-MacBook-Pro-2.local at Thu Jul 17 10:51:51 2025
Module time:
	user time   =       3.01 seconds =       0.05 minutes
	system time =       3.09 seconds =       0.05 minutes
	total time  =          1 seconds =       0.02 minutes
Total time:
	user time   =      69.71 seconds =       1.16 minutes
	system time =      55.29 seconds =       0.92 minutes
	total time  =         14 seconds =       0.23 minutes

*** tstart() called on Joses-MacBook-Pro-2.local
*** at Thu Jul 17 10:51:51 2025

         ------------------------------------------------------------
                                   SCF GRAD
                          Rob Parrish, Justin Turney,
                       Andy Simmonett, and Alex Sokolov
         ------------------------------------------------------------

  ==> Geometry <==

    Molecular point group: c2v
    Full point group: C_inf_v

    Geometry (in Angstrom), charge = -1, multiplicity = 3:

       Center              X                  Y                   Z               Mass
    ------------   -----------------  -----------------  -----------------  -----------------
         F            0.000000000000     0.000000000000     1.007764947364    18.998403162730
         MG           0.000000000000     0.000000000000    -0.798244381025    23.985041697000

  Nuclear repulsion =   31.644985357488739

  ==> Basis Set <==

  Basis Set: CC-PVDZ
    Blend: CC-PVDZ
    Number of shells: 14
    Number of basis functions: 32
    Number of Cartesian functions: 34
    Spherical Harmonics?: true
    Max angular momentum: 2

  ==> DFJKGrad: Density-Fitted SCF Gradients <==

    Gradient:                    1
    J tasked:                  Yes
    K tasked:                  Yes
    wK tasked:                  No
    OpenMP threads:              1
    Integrals threads:           1
    Memory [MiB]:              375
    Schwarz Cutoff:          1E-12
    Fitting Condition:       1E-10

   => Auxiliary Basis Set <=

  Basis Set: (CC-PVDZ AUX)
    Blend: CC-PVDZ-JKFIT + DEF2-UNIVERSAL-JKFIT
    Number of shells: 58
    Number of basis functions: 182
    Number of Cartesian functions: 218
    Spherical Harmonics?: true
    Max angular momentum: 4

  ==> DFT Potential <==

   => LibXC <=

    Version 6.2.2
    S. Lehtola, C. Steigemann, M. J.T. Oliveira, and M. A.L. Marques.,  SoftwareX 7, 1â€“5 (2018) (10.1016/j.softx.2017.11.002)

   => Composite Functional: B3LYP <=

    B3LYP Hyb-GGA Exchange-Correlation Functional

    P. J. Stephens, F. J. Devlin, C. F. Chabalowski, and M. J. Frisch.,  J. Phys. Chem. 98, 11623 (1994) (10.1021/j100096a001)

    Deriv               =              1
    GGA                 =           TRUE
    Meta                =          FALSE

    Exchange Hybrid     =           TRUE
    MP2 Hybrid          =          FALSE

   => Exchange Functionals <=

    0.0800   Slater exchange
    0.7200         Becke 88

   => Exact (HF) Exchange <=

    0.2000               HF

   => Correlation Functionals <=

    0.1900   Vosko, Wilk & Nusair (VWN5_RPA)
    0.8100   Lee, Yang & Parr

   => LibXC Density Thresholds  <==

    XC_HYB_GGA_XC_B3LYP:  1.00E-15

   => Molecular Quadrature <=

    Radial Scheme          =       TREUTLER
    Pruning Scheme         =           NONE
    Nuclear Scheme         =       TREUTLER

    Blocking Scheme        =         OCTREE
    BS radius alpha        =              1
    Pruning alpha          =              1
    Radial Points          =             75
    Spherical Points       =            302
    Total Points           =          43429
    Total Blocks           =            406
    Max Points             =            255
    Max Functions          =             32
    Weights Tolerance      =       1.00E-15

  -Total Gradient:
     Atom            X                  Y                   Z
    ------   -----------------  -----------------  -----------------
       1        0.000000000000     0.000000000000    -0.000131696104
       2        0.000000000000    -0.000000000000     0.000003330732

*** tstop() called on Joses-MacBook-Pro-2.local at Thu Jul 17 10:51:51 2025
Module time:
	user time   =       1.13 seconds =       0.02 minutes
	system time =       1.37 seconds =       0.02 minutes
	total time  =          0 seconds =       0.00 minutes
Total time:
	user time   =      70.85 seconds =       1.18 minutes
	system time =      56.66 seconds =       0.94 minutes
	total time  =         14 seconds =       0.23 minutes

    			-----------------------------------------

    			 OPTKING 3.0: for geometry optimizations

    			     By R.A. King, Bethel University

    			        with contributions from

    			    A.V. Copan, J. Cayton, A. Heide

    			-----------------------------------------

	                            ===> Fragment 1 <==

	 Z (Atomic Numbers)          Masses                          Geom
	       9.000000            18.998403          0.00000000  0.00000000  1.90439975
	      12.000000            23.985042          0.00000000  0.00000000 -1.50846326

	 - Coordinate -           - BOHR/RAD -       - ANG/DEG -
	 R(1,2)           =         3.412863           1.806009

	        --- Internal Coordinate Step in ANG or DEG, aJ/ANG or AJ/DEG ---
	-------------------------------------------------------------------------------
	           Coordinate      Previous         Force          Change          New
	           ----------      --------        ------          ------        ------
	               R(1,2)       1.80601        0.00056        0.00019       1.80620
	-------------------------------------------------------------------------------

	                                 ==> Convergence Check <==

	Measures of convergence in internal coordinates in au.

	Criteria marked as inactive (o), active & met (*), and active & unmet ( ).

	----------------------------------------------------------------------------------------------
	   Step    Total Energy     Delta E     Max Force     RMS Force      Max Disp      RMS Disp
	----------------------------------------------------------------------------------------------
	  Convergence Criteria     1.00e-06 *    3.00e-04 *             o    1.20e-03 *             o
	----------------------------------------------------------------------------------------------
	    12    -299.94926775   -4.53e-07 *    6.75e-05 *    6.75e-05 o    3.66e-04 *    3.66e-04 o  ~
	----------------------------------------------------------------------------------------------

Next Geometry in Ang
	Fragment 1 (Ang)

	    F   0.0000000000   0.0000000000   1.0078617662
	   Mg   0.0000000000   0.0000000000  -0.7983411998

    Final optimized geometry and variables:
    Molecular point group: c2v
    Full point group: C_inf_v

    Geometry (in Angstrom), charge = -1, multiplicity = 3:

    F            0.000000000000     0.000000000000     1.007764947364
    MG           0.000000000000     0.000000000000    -0.798244381025

    Psi4 stopped on: Thursday, 17 July 2025 10:51AM
    Psi4 wall time for execution: 0:00:14.32

*** Psi4 exiting successfully. Buy a developer a beer!
