                               Psi4 1.9.1 release

  ==> Input File <==

--------------------------------------------------------------------------
molecule {
-1 3
O   0.00000        0.60000        0.00000
P   0.00000       -0.60000        0.00000
}

set {
basis              cc-pvdz
reference          uks
maxiter            500
geom_maxiter       500
DAMPING_PERCENTAGE 1
guess              SAP
}

optimize('b3lyp')
--------------------------------------------------------------------------

    Molecular point group: c2v
  Charge       = -1
  Multiplicity = 3
  Basis Set: CC-PVDZ
    Blend: CC-PVDZ
  Basis Set: (CC-PVDZ AUX)
    Blend: CC-PVDZ-JKFIT
  @DF-UKS Final Energy:  -416.32084682988778
    Total Energy =                       -416.3208468298877847
 Dipole X            :          0.0000000            0.0000000            0.0000000
 Dipole Y            :          0.0000000            0.0000000            0.0000000
 Dipole Z            :         -0.0646157            0.3797926            0.3151769
 Magnitude           :                                                    0.3151769
    Molecular point group: c2v
  Basis Set: CC-PVDZ
    Blend: CC-PVDZ
  Basis Set: (CC-PVDZ AUX)
    Blend: CC-PVDZ-JKFIT
  Basis Set: CC-PVDZ
    Blend: CC-PVDZ
  Basis Set: (CC-PVDZ AUX)
    Blend: CC-PVDZ-JKFIT
  @DF-UKS Final Energy:  -416.47143495143104
    Total Energy =                       -416.4714349514310356
  Basis Set: CC-PVDZ
    Blend: CC-PVDZ
  Basis Set: (CC-PVDZ AUX)
    Blend: CC-PVDZ-JKFIT
  Basis Set: CC-PVDZ
    Blend: CC-PVDZ
  @DF-UKS Final Energy:  -416.53641836065026
    Total Energy =                       -416.5364183606502593
  @DF-UKS Final Energy:  -416.55516747697646
    Total Energy =                       -416.5551674769764645
  @DF-UKS Final Energy:  -416.56354465466603
    Total Energy =                       -416.5635446546660319
  @DF-UKS Final Energy:  -416.56558084515751
    Total Energy =                       -416.5655808451575695
  @DF-UKS Final Energy:  -416.56613947914673
    Total Energy =                       -416.5661394791467274
  @DF-UKS Final Energy:  -416.56633938428701
    Total Energy =                       -416.5663393842869482
  Basis Set: (CC-PVDZ AUX)
    Blend: CC-PVDZ-JKFIT
  Basis Set: CC-PVDZ
    Blend: CC-PVDZ
  Basis Set: (CC-PVDZ AUX)
    Blend: CC-PVDZ-JKFIT
  @DF-UKS Final Energy:  -416.56637198694455
    Total Energy =                       -416.5663719869445458
  Basis Set: CC-PVDZ
    Blend: CC-PVDZ
  Basis Set: (CC-PVDZ AUX)
    Blend: CC-PVDZ-JKFIT
  Charge       = -1
  Multiplicity = 3
  Basis Set: CC-PVDZ
    Blend: CC-PVDZ
  Basis Set: (CC-PVDZ AUX)
    Blend: CC-PVDZ-JKFIT

    Orbital Energies [Eh]
    ---------------------

    Alpha Occupied:

       1A1   -76.813702     2A1   -18.853125     3A1    -6.280315
       1B2    -4.442798     1B1    -4.442798     4A1    -4.441010
       5A1    -0.683383     6A1    -0.263381     2B1    -0.084774
       2B2    -0.084774     7A1    -0.078042     3B1     0.088627
       3B2     0.088627

    Alpha Virtual:

       8A1     0.307448     9A1     0.602103     4B2     0.659685
       4B1     0.659685    10A1     0.716339    11A1     0.732131
       1A2     0.732132     5B1     0.806723     5B2     0.806723
      12A1     0.998730     6B1     1.261322     6B2     1.261322
      13A1     1.316010    14A1     1.956336    15A1     2.872735
       2A2     2.872754     7B2     2.988379     7B1     2.988379
      16A1     3.380760

    Beta Occupied:

       1A1   -76.808852     2A1   -18.835461     3A1    -6.275170
       4A1    -4.438514     1B2    -4.432666     1B1    -4.432666
       5A1    -0.644222     6A1    -0.214225     7A1    -0.049600
       2B1    -0.026903     2B2    -0.026903

    Beta Virtual:

       3B1     0.205607     3B2     0.205607     8A1     0.327198
       9A1     0.625703     4B2     0.690828     4B1     0.690828
      10A1     0.726017     1A2     0.794129    11A1     0.794130
       5B1     0.843704     5B2     0.843704    12A1     1.019260
       6B1     1.296473     6B2     1.296473    13A1     1.332139
      14A1     1.977476    15A1     2.925811     2A2     2.925832
       7B1     3.019392     7B2     3.019392    16A1     3.406656

    Final Occupation by Irrep:
             A1    A2    B1    B2
    DOCC [     7,    0,    2,    2 ]
    SOCC [     0,    0,    1,    1 ]
    NA   [     7,    0,    3,    3 ]
    NB   [     7,    0,    2,    2 ]

  @DF-UKS Final Energy:  -416.56637454677315

   => Energetics <=

    Nuclear Repulsion Energy =             39.7720490076658209
    One-Electron Energy =                -661.7409333662303652
    Two-Electron Energy =                 231.2742362778030270
    DFT Exchange-Correlation Energy =     -25.8717264660116157
    Empirical Dispersion Energy =           0.0000000000000000
    VV10 Nonlocal Energy =                  0.0000000000000000
    Total Energy =                       -416.5663745467731474

  UHF NO Occupations:
  HONO-2 :    7 A1 1.9990678
  HONO-1 :    3 B2 1.0000000
  HONO-0 :    3 B1 1.0000000
  LUNO+0 :    8 A1 0.0009322
  LUNO+1 :    4 B2 0.0008601
  LUNO+2 :    4 B1 0.0008601
  LUNO+3 :    9 A1 0.0001573

Computation Completed

Properties will be evaluated at   0.000000,   0.000000,   0.000000 [a0]

Properties computed using the SCF density matrix

 Multipole Moments:

 ------------------------------------------------------------------------------------
     Multipole            Electronic (a.u.)      Nuclear  (a.u.)        Total (a.u.)
 ------------------------------------------------------------------------------------

 L = 1.  Multiply by 2.5417464519 to convert [e a0] to [Debye]
 Dipole X            :          0.0000000            0.0000000            0.0000000
 Dipole Y            :          0.0000000            0.0000000            0.0000000
 Dipole Z            :         -0.7455101            0.5053237           -0.2401864
 Magnitude           :                                                    0.2401864

 ------------------------------------------------------------------------------------

*** tstop() called on Joses-MacBook-Pro-2.local at Thu Jul 17 10:43:47 2025
Module time:
	user time   =       4.69 seconds =       0.08 minutes
	system time =       2.26 seconds =       0.04 minutes
	total time  =          0 seconds =       0.00 minutes
Total time:
	user time   =      47.89 seconds =       0.80 minutes
	system time =      66.65 seconds =       1.11 minutes
	total time  =         11 seconds =       0.18 minutes

*** tstart() called on Joses-MacBook-Pro-2.local
*** at Thu Jul 17 10:43:47 2025

         ------------------------------------------------------------
                                   SCF GRAD
                          Rob Parrish, Justin Turney,
                       Andy Simmonett, and Alex Sokolov
         ------------------------------------------------------------

  ==> Geometry <==

    Molecular point group: c2v
    Full point group: C_inf_v

    Geometry (in Angstrom), charge = -1, multiplicity = 3:

       Center              X                  Y                   Z               Mass
    ------------   -----------------  -----------------  -----------------  -----------------
         O            0.000000000000     0.000000000000     1.052907080269    15.994914619570
         P            0.000000000000     0.000000000000    -0.543723389239    30.973761998420

  Nuclear repulsion =   39.772049007665821

  ==> Basis Set <==

  Basis Set: CC-PVDZ
    Blend: CC-PVDZ
    Number of shells: 14
    Number of basis functions: 32
    Number of Cartesian functions: 34
    Spherical Harmonics?: true
    Max angular momentum: 2

  ==> DFJKGrad: Density-Fitted SCF Gradients <==

    Gradient:                    1
    J tasked:                  Yes
    K tasked:                  Yes
    wK tasked:                  No
    OpenMP threads:              1
    Integrals threads:           1
    Memory [MiB]:              375
    Schwarz Cutoff:          1E-12
    Fitting Condition:       1E-10

   => Auxiliary Basis Set <=

  Basis Set: (CC-PVDZ AUX)
    Blend: CC-PVDZ-JKFIT
    Number of shells: 60
    Number of basis functions: 182
    Number of Cartesian functions: 211
    Spherical Harmonics?: true
    Max angular momentum: 3

  ==> DFT Potential <==

   => LibXC <=

    Version 6.2.2
    S. Lehtola, C. Steigemann, M. J.T. Oliveira, and M. A.L. Marques.,  SoftwareX 7, 1â€“5 (2018) (10.1016/j.softx.2017.11.002)

   => Composite Functional: B3LYP <=

    B3LYP Hyb-GGA Exchange-Correlation Functional

    P. J. Stephens, F. J. Devlin, C. F. Chabalowski, and M. J. Frisch.,  J. Phys. Chem. 98, 11623 (1994) (10.1021/j100096a001)

    Deriv               =              1
    GGA                 =           TRUE
    Meta                =          FALSE

    Exchange Hybrid     =           TRUE
    MP2 Hybrid          =          FALSE

   => Exchange Functionals <=

    0.0800   Slater exchange
    0.7200         Becke 88

   => Exact (HF) Exchange <=

    0.2000               HF

   => Correlation Functionals <=

    0.1900   Vosko, Wilk & Nusair (VWN5_RPA)
    0.8100   Lee, Yang & Parr

   => LibXC Density Thresholds  <==

    XC_HYB_GGA_XC_B3LYP:  1.00E-15

   => Molecular Quadrature <=

    Radial Scheme          =       TREUTLER
    Pruning Scheme         =           NONE
    Nuclear Scheme         =       TREUTLER

    Blocking Scheme        =         OCTREE
    BS radius alpha        =              1
    Pruning alpha          =              1
    Radial Points          =             75
    Spherical Points       =            302
    Total Points           =          42211
    Total Blocks           =            379
    Max Points             =            254
    Max Functions          =             32
    Weights Tolerance      =       1.00E-15

  -Total Gradient:
     Atom            X                  Y                   Z
    ------   -----------------  -----------------  -----------------
       1       -0.000000000000     0.000000000000    -0.000233961717
       2       -0.000000000000     0.000000000000     0.000208492725

*** tstop() called on Joses-MacBook-Pro-2.local at Thu Jul 17 10:43:48 2025
Module time:
	user time   =       1.19 seconds =       0.02 minutes
	system time =       1.29 seconds =       0.02 minutes
	total time  =          1 seconds =       0.02 minutes
Total time:
	user time   =      49.09 seconds =       0.82 minutes
	system time =      67.94 seconds =       1.13 minutes
	total time  =         12 seconds =       0.20 minutes

    			-----------------------------------------

    			 OPTKING 3.0: for geometry optimizations

    			     By R.A. King, Bethel University

    			        with contributions from

    			    A.V. Copan, J. Cayton, A. Heide

    			-----------------------------------------

	                            ===> Fragment 1 <==

	 Z (Atomic Numbers)          Masses                          Geom
	       8.000000            15.994915          0.00000000  0.00000000  1.98970602
	      15.000000            30.973762          0.00000000  0.00000000 -1.02748829

	 - Coordinate -           - BOHR/RAD -       - ANG/DEG -
	 R(1,2)           =         3.017194           1.596630

	        --- Internal Coordinate Step in ANG or DEG, aJ/ANG or AJ/DEG ---
	-------------------------------------------------------------------------------
	           Coordinate      Previous         Force          Change          New
	           ----------      --------        ------          ------        ------
	               R(1,2)       1.59663        0.00182        0.00028       1.59691
	-------------------------------------------------------------------------------

	                                 ==> Convergence Check <==

	Measures of convergence in internal coordinates in au.

	Criteria marked as inactive (o), active & met (*), and active & unmet ( ).

	----------------------------------------------------------------------------------------------
	   Step    Total Energy     Delta E     Max Force     RMS Force      Max Disp      RMS Disp
	----------------------------------------------------------------------------------------------
	  Convergence Criteria     1.00e-06 *    3.00e-04 *             o    1.20e-03 *             o
	----------------------------------------------------------------------------------------------
	    10    -416.56637455   -2.56e-06      2.21e-04 *    2.21e-04 o    5.26e-04 *    5.26e-04 o  ~
	----------------------------------------------------------------------------------------------

Next Geometry in Ang
	Fragment 1 (Ang)

	    O   0.0000000000   0.0000000000   1.0530461349
	    P   0.0000000000   0.0000000000  -0.5438624439

    Final optimized geometry and variables:
    Molecular point group: c2v
    Full point group: C_inf_v

    Geometry (in Angstrom), charge = -1, multiplicity = 3:

    O            0.000000000000     0.000000000000     1.052907080269
    P            0.000000000000     0.000000000000    -0.543723389239

    Psi4 stopped on: Thursday, 17 July 2025 10:43AM
    Psi4 wall time for execution: 0:00:12.91

*** Psi4 exiting successfully. Buy a developer a beer!
