                               Psi4 1.9.1 release

  ==> Input File <==

--------------------------------------------------------------------------
molecule {
-1 3
N   0.00000        0.60000        0.00000
S   0.00000       -0.60000        0.00000
}

set {
basis              cc-pvdz
reference          uks
maxiter            500
geom_maxiter       500
DAMPING_PERCENTAGE 1
guess              SAP
}

optimize('b3lyp')
--------------------------------------------------------------------------

    Molecular point group: c2v
  Charge       = -1
  Multiplicity = 3
  Basis Set: CC-PVDZ
    Blend: CC-PVDZ
  Basis Set: (CC-PVDZ AUX)
    Blend: CC-PVDZ-JKFIT
  @DF-UKS Final Energy:  -452.63466381784713
    Total Energy =                       -452.6346638178471267
 Dipole X            :          0.0000000            0.0000000            0.0000000
 Dipole Y            :          0.0000000            0.0000000            0.0000000
 Dipole Z            :         -0.5264737           -0.0120688           -0.5385426
 Magnitude           :                                                    0.5385426
    Molecular point group: c2v
  Basis Set: CC-PVDZ
    Blend: CC-PVDZ
  Basis Set: (CC-PVDZ AUX)
    Blend: CC-PVDZ-JKFIT
  Basis Set: CC-PVDZ
    Blend: CC-PVDZ
  Basis Set: (CC-PVDZ AUX)
    Blend: CC-PVDZ-JKFIT
  @DF-UKS Final Energy:  -452.79809290665946
    Total Energy =                       -452.7980929066594626
  Basis Set: CC-PVDZ
    Blend: CC-PVDZ
  Basis Set: (CC-PVDZ AUX)
    Blend: CC-PVDZ-JKFIT
  Basis Set: CC-PVDZ
    Blend: CC-PVDZ
  @DF-UKS Final Energy:  -452.87002817472944
    Total Energy =                       -452.8700281747294980
  @DF-UKS Final Energy:  -452.89255648347836
    Total Energy =                       -452.8925564834783017
  @DF-UKS Final Energy:  -452.90384557878468
    Total Energy =                       -452.9038455787846829
  @DF-UKS Final Energy:  -452.90708038182424
    Total Energy =                       -452.9070803818242439
  @DF-UKS Final Energy:  -452.90840869238519
    Total Energy =                       -452.9084086923852510
  @DF-UKS Final Energy:  -452.90866963888902
    Total Energy =                       -452.9086696388890232
  @DF-UKS Final Energy:  -452.90873165948415
    Total Energy =                       -452.9087316594841468
  Basis Set: (CC-PVDZ AUX)
    Blend: CC-PVDZ-JKFIT
  Basis Set: CC-PVDZ
    Blend: CC-PVDZ
  Basis Set: (CC-PVDZ AUX)
    Blend: CC-PVDZ-JKFIT
  @DF-UKS Final Energy:  -452.90873986172176
    Total Energy =                       -452.9087398617217559
  Basis Set: CC-PVDZ
    Blend: CC-PVDZ
  Basis Set: (CC-PVDZ AUX)
    Blend: CC-PVDZ-JKFIT
  Charge       = -1
  Multiplicity = 3
  Basis Set: CC-PVDZ
    Blend: CC-PVDZ
  Basis Set: (CC-PVDZ AUX)
    Blend: CC-PVDZ-JKFIT

    Orbital Energies [Eh]
    ---------------------

    Alpha Occupied:

       1A1   -88.598204     2A1   -14.068277     3A1    -7.657870
       4A1    -5.620615     1B2    -5.617570     1B1    -5.617570
       5A1    -0.574558     6A1    -0.312122     2B2    -0.075375
       2B1    -0.075375     7A1    -0.069557     3B2     0.076735
       3B1     0.076735

    Alpha Virtual:

       8A1     0.328780     9A1     0.734336     4B1     0.743896
       4B2     0.743896    10A1     0.750386    11A1     0.873107
       1A2     0.873107     5B2     0.886636     5B1     0.886636
      12A1     0.943790     6B1     1.039961     6B2     1.039961
      13A1     1.281431    14A1     1.458198     2A2     2.021964
      15A1     2.021965     7B1     2.196052     7B2     2.196052
      16A1     2.664702

    Beta Occupied:

       1A1   -88.595526     2A1   -14.039357     3A1    -7.655182
       4A1    -5.619734     1B2    -5.611944     1B1    -5.611944
       5A1    -0.523032     6A1    -0.254824     7A1    -0.038432
       2B2    -0.013410     2B1    -0.013410

    Beta Virtual:

       3B2     0.222152     3B1     0.222152     8A1     0.349916
       9A1     0.745821     4B1     0.756387     4B2     0.756387
      10A1     0.758691    11A1     0.901187     1A2     0.901187
       5B2     0.923952     5B1     0.923952    12A1     0.969024
       6B1     1.101433     6B2     1.101433    13A1     1.303344
      14A1     1.499638     2A2     2.125256    15A1     2.125261
       7B1     2.251471     7B2     2.251471    16A1     2.708009

    Final Occupation by Irrep:
             A1    A2    B1    B2
    DOCC [     7,    0,    2,    2 ]
    SOCC [     0,    0,    1,    1 ]
    NA   [     7,    0,    3,    3 ]
    NB   [     7,    0,    2,    2 ]

  @DF-UKS Final Energy:  -452.90874027930505

   => Energetics <=

    Nuclear Repulsion Energy =             35.9335590287857514
    One-Electron Energy =                -702.7166344297399974
    Two-Electron Energy =                 240.3278920162111376
    DFT Exchange-Correlation Energy =     -26.4535568945620660
    Empirical Dispersion Energy =           0.0000000000000000
    VV10 Nonlocal Energy =                  0.0000000000000000
    Total Energy =                       -452.9087402793051069

  UHF NO Occupations:
  HONO-2 :    7 A1 1.9987590
  HONO-1 :    3 B1 1.0000000
  HONO-0 :    3 B2 1.0000000
  LUNO+0 :    8 A1 0.0012410
  LUNO+1 :    4 B2 0.0011036
  LUNO+2 :    4 B1 0.0011036
  LUNO+3 :    9 A1 0.0003079

Computation Completed

Properties will be evaluated at   0.000000,   0.000000,   0.000000 [a0]

Properties computed using the SCF density matrix

 Multipole Moments:

 ------------------------------------------------------------------------------------
     Multipole            Electronic (a.u.)      Nuclear  (a.u.)        Total (a.u.)
 ------------------------------------------------------------------------------------

 L = 1.  Multiply by 2.5417464519 to convert [e a0] to [Debye]
 Dipole X            :          0.0000000            0.0000000            0.0000000
 Dipole Y            :          0.0000000            0.0000000            0.0000000
 Dipole Z            :         -0.4867345           -0.0165884           -0.5033228
 Magnitude           :                                                    0.5033228

 ------------------------------------------------------------------------------------

*** tstop() called on Joses-MacBook-Pro-2.local at Thu Jul 17 10:35:56 2025
Module time:
	user time   =       3.49 seconds =       0.06 minutes
	system time =       3.33 seconds =       0.06 minutes
	total time  =          1 seconds =       0.02 minutes
Total time:
	user time   =      68.11 seconds =       1.14 minutes
	system time =      59.16 seconds =       0.99 minutes
	total time  =         13 seconds =       0.22 minutes

*** tstart() called on Joses-MacBook-Pro-2.local
*** at Thu Jul 17 10:35:56 2025

         ------------------------------------------------------------
                                   SCF GRAD
                          Rob Parrish, Justin Turney,
                       Andy Simmonett, and Alex Sokolov
         ------------------------------------------------------------

  ==> Geometry <==

    Molecular point group: c2v
    Full point group: C_inf_v

    Geometry (in Angstrom), charge = -1, multiplicity = 3:

       Center              X                  Y                   Z               Mass
    ------------   -----------------  -----------------  -----------------  -----------------
         N            0.000000000000     0.000000000000     1.147008360113    14.003074004430
         S            0.000000000000     0.000000000000    -0.502364794034    31.972071174400

  Nuclear repulsion =   35.933559028785751

  ==> Basis Set <==

  Basis Set: CC-PVDZ
    Blend: CC-PVDZ
    Number of shells: 14
    Number of basis functions: 32
    Number of Cartesian functions: 34
    Spherical Harmonics?: true
    Max angular momentum: 2

  ==> DFJKGrad: Density-Fitted SCF Gradients <==

    Gradient:                    1
    J tasked:                  Yes
    K tasked:                  Yes
    wK tasked:                  No
    OpenMP threads:              1
    Integrals threads:           1
    Memory [MiB]:              375
    Schwarz Cutoff:          1E-12
    Fitting Condition:       1E-10

   => Auxiliary Basis Set <=

  Basis Set: (CC-PVDZ AUX)
    Blend: CC-PVDZ-JKFIT
    Number of shells: 60
    Number of basis functions: 182
    Number of Cartesian functions: 211
    Spherical Harmonics?: true
    Max angular momentum: 3

  ==> DFT Potential <==

   => LibXC <=

    Version 6.2.2
    S. Lehtola, C. Steigemann, M. J.T. Oliveira, and M. A.L. Marques.,  SoftwareX 7, 1â€“5 (2018) (10.1016/j.softx.2017.11.002)

   => Composite Functional: B3LYP <=

    B3LYP Hyb-GGA Exchange-Correlation Functional

    P. J. Stephens, F. J. Devlin, C. F. Chabalowski, and M. J. Frisch.,  J. Phys. Chem. 98, 11623 (1994) (10.1021/j100096a001)

    Deriv               =              1
    GGA                 =           TRUE
    Meta                =          FALSE

    Exchange Hybrid     =           TRUE
    MP2 Hybrid          =          FALSE

   => Exchange Functionals <=

    0.0800   Slater exchange
    0.7200         Becke 88

   => Exact (HF) Exchange <=

    0.2000               HF

   => Correlation Functionals <=

    0.1900   Vosko, Wilk & Nusair (VWN5_RPA)
    0.8100   Lee, Yang & Parr

   => LibXC Density Thresholds  <==

    XC_HYB_GGA_XC_B3LYP:  1.00E-15

   => Molecular Quadrature <=

    Radial Scheme          =       TREUTLER
    Pruning Scheme         =           NONE
    Nuclear Scheme         =       TREUTLER

    Blocking Scheme        =         OCTREE
    BS radius alpha        =              1
    Pruning alpha          =              1
    Radial Points          =             75
    Spherical Points       =            302
    Total Points           =          41601
    Total Blocks           =            369
    Max Points             =            256
    Max Functions          =             32
    Weights Tolerance      =       1.00E-15

  -Total Gradient:
     Atom            X                  Y                   Z
    ------   -----------------  -----------------  -----------------
       1        0.000000000000    -0.000000000000    -0.000078670382
       2        0.000000000000    -0.000000000000     0.000060541048

*** tstop() called on Joses-MacBook-Pro-2.local at Thu Jul 17 10:35:56 2025
Module time:
	user time   =       1.27 seconds =       0.02 minutes
	system time =       1.34 seconds =       0.02 minutes
	total time  =          0 seconds =       0.00 minutes
Total time:
	user time   =      69.38 seconds =       1.16 minutes
	system time =      60.50 seconds =       1.01 minutes
	total time  =         13 seconds =       0.22 minutes

    			-----------------------------------------

    			 OPTKING 3.0: for geometry optimizations

    			     By R.A. King, Bethel University

    			        with contributions from

    			    A.V. Copan, J. Cayton, A. Heide

    			-----------------------------------------

	                            ===> Fragment 1 <==

	 Z (Atomic Numbers)          Masses                          Geom
	       7.000000            14.003074          0.00000000  0.00000000  2.16753166
	      16.000000            31.972071          0.00000000  0.00000000 -0.94933188

	 - Coordinate -           - BOHR/RAD -       - ANG/DEG -
	 R(1,2)           =         3.116864           1.649373

	        --- Internal Coordinate Step in ANG or DEG, aJ/ANG or AJ/DEG ---
	-------------------------------------------------------------------------------
	           Coordinate      Previous         Force          Change          New
	           ----------      --------        ------          ------        ------
	               R(1,2)       1.64937        0.00057        0.00012       1.64949
	-------------------------------------------------------------------------------

	                                 ==> Convergence Check <==

	Measures of convergence in internal coordinates in au.

	Criteria marked as inactive (o), active & met (*), and active & unmet ( ).

	----------------------------------------------------------------------------------------------
	   Step    Total Energy     Delta E     Max Force     RMS Force      Max Disp      RMS Disp
	----------------------------------------------------------------------------------------------
	  Convergence Criteria     1.00e-06 *    3.00e-04 *             o    1.20e-03 *             o
	----------------------------------------------------------------------------------------------
	    11    -452.90874028   -4.18e-07 *    6.96e-05 *    6.96e-05 o    2.23e-04 *    2.23e-04 o  ~
	----------------------------------------------------------------------------------------------

Next Geometry in Ang
	Fragment 1 (Ang)

	    N   0.0000000000   0.0000000000   1.1470674347
	    S   0.0000000000   0.0000000000  -0.5024238687

    Final optimized geometry and variables:
    Molecular point group: c2v
    Full point group: C_inf_v

    Geometry (in Angstrom), charge = -1, multiplicity = 3:

    N            0.000000000000     0.000000000000     1.147008360113
    S            0.000000000000     0.000000000000    -0.502364794034

    Psi4 stopped on: Thursday, 17 July 2025 10:35AM
    Psi4 wall time for execution: 0:00:13.94

*** Psi4 exiting successfully. Buy a developer a beer!
