                               Psi4 1.9.1 release

  ==> Input File <==

--------------------------------------------------------------------------
molecule {
-1 3
B   0.00000        0.60000        0.00000
Si   0.00000       -0.60000        0.00000
}

set {
basis              cc-pvdz
reference          uks
maxiter            500
geom_maxiter       500
DAMPING_PERCENTAGE 1
guess              SAP
}

optimize('b3lyp')
--------------------------------------------------------------------------

    Molecular point group: c2v
  Charge       = -1
  Multiplicity = 3
  Basis Set: CC-PVDZ
    Blend: CC-PVDZ
  Basis Set: (CC-PVDZ AUX)
    Blend: CC-PVDZ-JKFIT
  @DF-UKS Final Energy:  -313.72281115781851
    Total Energy =                       -313.7228111578185690
 Dipole X            :          0.0000000            0.0000000            0.0000000
 Dipole Y            :          0.0000000            0.0000000            0.0000000
 Dipole Z            :         -0.2547064           -0.8286114           -1.0833177
 Magnitude           :                                                    1.0833177
    Molecular point group: c2v
  Basis Set: CC-PVDZ
    Blend: CC-PVDZ
  Basis Set: (CC-PVDZ AUX)
    Blend: CC-PVDZ-JKFIT
  Basis Set: CC-PVDZ
    Blend: CC-PVDZ
  Basis Set: (CC-PVDZ AUX)
    Blend: CC-PVDZ-JKFIT
  @DF-UKS Final Energy:  -313.93333845765386
    Total Energy =                       -313.9333384576538606
  Basis Set: CC-PVDZ
    Blend: CC-PVDZ
  Basis Set: (CC-PVDZ AUX)
    Blend: CC-PVDZ-JKFIT
  Basis Set: CC-PVDZ
    Blend: CC-PVDZ
  @DF-UKS Final Energy:  -314.05835929630621
    Total Energy =                       -314.0583592963062642
  @DF-UKS Final Energy:  -314.17305190340903
    Total Energy =                       -314.1730519034090321
  @DF-UKS Final Energy:  -314.21169882969303
    Total Energy =                       -314.2116988296930344
  @DF-UKS Final Energy:  -314.21359060583245
    Total Energy =                       -314.2135906058324508
  @DF-UKS Final Energy:  -314.21395413941184
    Total Energy =                       -314.2139541394118396
  @DF-UKS Final Energy:  -314.21403065629960
    Total Energy =                       -314.2140306562995988
  Basis Set: (CC-PVDZ AUX)
    Blend: CC-PVDZ-JKFIT
  Basis Set: CC-PVDZ
    Blend: CC-PVDZ
  Basis Set: (CC-PVDZ AUX)
    Blend: CC-PVDZ-JKFIT
  @DF-UKS Final Energy:  -314.21405179327530
    Total Energy =                       -314.2140517932753028
  Basis Set: CC-PVDZ
    Blend: CC-PVDZ
  Basis Set: (CC-PVDZ AUX)
    Blend: CC-PVDZ-JKFIT
  Charge       = -1
  Multiplicity = 3
  Basis Set: CC-PVDZ
    Blend: CC-PVDZ
  Basis Set: (CC-PVDZ AUX)
    Blend: CC-PVDZ-JKFIT

    Orbital Energies [Eh]
    ---------------------

    Alpha Occupied:

       1A1   -65.890811     2A1    -6.559952     3A1    -5.036611
       1B1    -3.398981     4A1    -3.394385     1B2    -3.391663
       5A1    -0.283781     6A1    -0.103106     2B1     0.004532
       7A1     0.005850     2B2     0.027967

    Alpha Virtual:

       3B1     0.172522     3B2     0.190207     8A1     0.288962
       9A1     0.432915    10A1     0.475685     4B1     0.485479
       4B2     0.501075     5B1     0.551445     5B2     0.566195
      11A1     0.573505     1A2     0.591235    12A1     0.592460
       6B1     0.637096     6B2     0.657278    13A1     0.783556
       2A2     0.961590    14A1     0.961768    15A1     0.995083
       7B1     1.145580     7B2     1.162997    16A1     1.371966

    Beta Occupied:

       1A1   -65.888371     2A1    -6.549320     3A1    -5.033880
       1B1    -3.392849     1B2    -3.390781     4A1    -3.389284
       5A1    -0.239506     6A1    -0.055677     2B2     0.039272

    Beta Virtual:

       2B1     0.097448     7A1     0.118900     3B2     0.204626
       3B1     0.216634     8A1     0.306943     9A1     0.462657
      10A1     0.502457     4B2     0.509361     4B1     0.515688
       5B2     0.573763     5B1     0.578854    11A1     0.611279
       1A2     0.613955    12A1     0.616597     6B2     0.676499
       6B1     0.682431    13A1     0.806506     2A2     0.991237
      14A1     0.993190    15A1     1.027743     7B2     1.197261
       7B1     1.201186    16A1     1.417087

    Final Occupation by Irrep:
             A1    A2    B1    B2
    DOCC [     6,    0,    1,    2 ]
    SOCC [     1,    0,    1,    0 ]
    NA   [     7,    0,    2,    2 ]
    NB   [     6,    0,    1,    2 ]

  @DF-UKS Final Energy:  -314.21405236655221

   => Energetics <=

    Nuclear Repulsion Energy =             19.7306964790337389
    One-Electron Energy =                -477.5544912662471688
    Two-Electron Energy =                 163.7944752168766911
    DFT Exchange-Correlation Energy =     -20.1847327962154317
    Empirical Dispersion Energy =           0.0000000000000000
    VV10 Nonlocal Energy =                  0.0000000000000000
    Total Energy =                       -314.2140523665521528

  UHF NO Occupations:
  HONO-2 :    2 B2 1.9972327
  HONO-1 :    2 B1 1.0000000
  HONO-0 :    7 A1 1.0000000
  LUNO+0 :    3 B2 0.0027673
  LUNO+1 :    8 A1 0.0008719
  LUNO+2 :    9 A1 0.0005043
  LUNO+3 :   10 A1 0.0000001

Computation Completed

Properties will be evaluated at   0.000000,   0.000000,   0.000000 [a0]

Properties computed using the SCF density matrix

 Multipole Moments:

 ------------------------------------------------------------------------------------
     Multipole            Electronic (a.u.)      Nuclear  (a.u.)        Total (a.u.)
 ------------------------------------------------------------------------------------

 L = 1.  Multiply by 2.5417464519 to convert [e a0] to [Debye]
 Dipole X            :          0.0000000            0.0000000            0.0000000
 Dipole Y            :          0.0000000            0.0000000            0.0000000
 Dipole Z            :          0.6715979           -1.2963623           -0.6247644
 Magnitude           :                                                    0.6247644

 ------------------------------------------------------------------------------------

*** tstop() called on Joses-MacBook-Pro-2.local at Thu Jul 17 09:54:19 2025
Module time:
	user time   =       3.91 seconds =       0.07 minutes
	system time =       3.51 seconds =       0.06 minutes
	total time  =          1 seconds =       0.02 minutes
Total time:
	user time   =      49.61 seconds =       0.83 minutes
	system time =      62.13 seconds =       1.04 minutes
	total time  =         11 seconds =       0.18 minutes

*** tstart() called on Joses-MacBook-Pro-2.local
*** at Thu Jul 17 09:54:19 2025

         ------------------------------------------------------------
                                   SCF GRAD
                          Rob Parrish, Justin Turney,
                       Andy Simmonett, and Alex Sokolov
         ------------------------------------------------------------

  ==> Geometry <==

    Molecular point group: c2v
    Full point group: C_inf_v

    Geometry (in Angstrom), charge = -1, multiplicity = 3:

       Center              X                  Y                   Z               Mass
    ------------   -----------------  -----------------  -----------------  -----------------
         B            0.000000000000     0.000000000000     1.347241641090    11.009305360000
         SI           0.000000000000     0.000000000000    -0.530158114477    27.976926534650

  Nuclear repulsion =   19.730696479033739

  ==> Basis Set <==

  Basis Set: CC-PVDZ
    Blend: CC-PVDZ
    Number of shells: 14
    Number of basis functions: 32
    Number of Cartesian functions: 34
    Spherical Harmonics?: true
    Max angular momentum: 2

  ==> DFJKGrad: Density-Fitted SCF Gradients <==

    Gradient:                    1
    J tasked:                  Yes
    K tasked:                  Yes
    wK tasked:                  No
    OpenMP threads:              1
    Integrals threads:           1
    Memory [MiB]:              375
    Schwarz Cutoff:          1E-12
    Fitting Condition:       1E-10

   => Auxiliary Basis Set <=

  Basis Set: (CC-PVDZ AUX)
    Blend: CC-PVDZ-JKFIT
    Number of shells: 60
    Number of basis functions: 182
    Number of Cartesian functions: 211
    Spherical Harmonics?: true
    Max angular momentum: 3

  ==> DFT Potential <==

   => LibXC <=

    Version 6.2.2
    S. Lehtola, C. Steigemann, M. J.T. Oliveira, and M. A.L. Marques.,  SoftwareX 7, 1â€“5 (2018) (10.1016/j.softx.2017.11.002)

   => Composite Functional: B3LYP <=

    B3LYP Hyb-GGA Exchange-Correlation Functional

    P. J. Stephens, F. J. Devlin, C. F. Chabalowski, and M. J. Frisch.,  J. Phys. Chem. 98, 11623 (1994) (10.1021/j100096a001)

    Deriv               =              1
    GGA                 =           TRUE
    Meta                =          FALSE

    Exchange Hybrid     =           TRUE
    MP2 Hybrid          =          FALSE

   => Exchange Functionals <=

    0.0800   Slater exchange
    0.7200         Becke 88

   => Exact (HF) Exchange <=

    0.2000               HF

   => Correlation Functionals <=

    0.1900   Vosko, Wilk & Nusair (VWN5_RPA)
    0.8100   Lee, Yang & Parr

   => LibXC Density Thresholds  <==

    XC_HYB_GGA_XC_B3LYP:  1.00E-15

   => Molecular Quadrature <=

    Radial Scheme          =       TREUTLER
    Pruning Scheme         =           NONE
    Nuclear Scheme         =       TREUTLER

    Blocking Scheme        =         OCTREE
    BS radius alpha        =              1
    Pruning alpha          =              1
    Radial Points          =             75
    Spherical Points       =            302
    Total Points           =          42125
    Total Blocks           =            388
    Max Points             =            256
    Max Functions          =             32
    Weights Tolerance      =       1.00E-15

  -Total Gradient:
     Atom            X                  Y                   Z
    ------   -----------------  -----------------  -----------------
       1        0.000000000000     0.000000000000    -0.000084761907
       2        0.000000000000     0.000000000000     0.000073605727

*** tstop() called on Joses-MacBook-Pro-2.local at Thu Jul 17 09:54:19 2025
Module time:
	user time   =       0.77 seconds =       0.01 minutes
	system time =       1.42 seconds =       0.02 minutes
	total time  =          0 seconds =       0.00 minutes
Total time:
	user time   =      50.38 seconds =       0.84 minutes
	system time =      63.55 seconds =       1.06 minutes
	total time  =         11 seconds =       0.18 minutes

    			-----------------------------------------

    			 OPTKING 3.0: for geometry optimizations

    			     By R.A. King, Bethel University

    			        with contributions from

    			    A.V. Copan, J. Cayton, A. Heide

    			-----------------------------------------

	                            ===> Fragment 1 <==

	 Z (Atomic Numbers)          Masses                          Geom
	       5.000000            11.009305          0.00000000  0.00000000  2.54591773
	      14.000000            27.976927          0.00000000  0.00000000 -1.00185364

	 - Coordinate -           - BOHR/RAD -       - ANG/DEG -
	 R(1,2)           =         3.547771           1.877400

	        --- Internal Coordinate Step in ANG or DEG, aJ/ANG or AJ/DEG ---
	-------------------------------------------------------------------------------
	           Coordinate      Previous         Force          Change          New
	           ----------      --------        ------          ------        ------
	               R(1,2)       1.87740        0.00065        0.00020       1.87760
	-------------------------------------------------------------------------------

	                                 ==> Convergence Check <==

	Measures of convergence in internal coordinates in au.

	Criteria marked as inactive (o), active & met (*), and active & unmet ( ).

	----------------------------------------------------------------------------------------------
	   Step    Total Energy     Delta E     Max Force     RMS Force      Max Disp      RMS Disp
	----------------------------------------------------------------------------------------------
	  Convergence Criteria     1.00e-06 *    3.00e-04 *             o    1.20e-03 *             o
	----------------------------------------------------------------------------------------------
	    10    -314.21405237   -5.73e-07 *    7.92e-05 *    7.92e-05 o    3.78e-04 *    3.78e-04 o  ~
	----------------------------------------------------------------------------------------------

Next Geometry in Ang
	Fragment 1 (Ang)

	    B   0.0000000000   0.0000000000   1.3473415850
	   Si   0.0000000000   0.0000000000  -0.5302580584

    Final optimized geometry and variables:
    Molecular point group: c2v
    Full point group: C_inf_v

    Geometry (in Angstrom), charge = -1, multiplicity = 3:

    B            0.000000000000     0.000000000000     1.347241641090
    SI           0.000000000000     0.000000000000    -0.530158114477

    Psi4 stopped on: Thursday, 17 July 2025 09:54AM
    Psi4 wall time for execution: 0:00:11.54

*** Psi4 exiting successfully. Buy a developer a beer!
