                               Psi4 1.9.1 release

  ==> Input File <==

--------------------------------------------------------------------------
molecule {
-1 3
B   0.00000        0.60000        0.00000
Ar   0.00000       -0.60000        0.00000
}

set {
basis              cc-pvdz
reference          uks
maxiter            500
geom_maxiter       500
DAMPING_PERCENTAGE 1
guess              SAP
}

optimize('b3lyp')
--------------------------------------------------------------------------

    Molecular point group: c2v
  Charge       = -1
  Multiplicity = 3
  Basis Set: CC-PVDZ
    Blend: CC-PVDZ
  Basis Set: (CC-PVDZ AUX)
    Blend: CC-PVDZ-JKFIT
  @DF-UKS Final Energy:  -551.62008036417819
    Total Energy =                       -551.6200803641781931
 Dipole X            :          0.0000000            0.0000000            0.0000000
 Dipole Y            :          0.0000000            0.0000000            0.0000000
 Dipole Z            :         -3.9553535            0.0731583           -3.8821952
 Magnitude           :                                                    3.8821952
    Molecular point group: c2v
  Basis Set: CC-PVDZ
    Blend: CC-PVDZ
  Basis Set: (CC-PVDZ AUX)
    Blend: CC-PVDZ-JKFIT
  Basis Set: CC-PVDZ
    Blend: CC-PVDZ
  Basis Set: (CC-PVDZ AUX)
    Blend: CC-PVDZ-JKFIT
  @DF-UKS Final Energy:  -551.84680798215447
    Total Energy =                       -551.8468079821544734
  Basis Set: CC-PVDZ
    Blend: CC-PVDZ
  Basis Set: (CC-PVDZ AUX)
    Blend: CC-PVDZ-JKFIT
  Basis Set: CC-PVDZ
    Blend: CC-PVDZ
  @DF-UKS Final Energy:  -551.97505250438735
    Total Energy =                       -551.9750525043873495
  @DF-UKS Final Energy:  -552.05174405404887
    Total Energy =                       -552.0517440540489815
  @DF-UKS Final Energy:  -552.10474316905811
    Total Energy =                       -552.1047431690581107
  @DF-UKS Final Energy:  -552.14236454442312
    Total Energy =                       -552.1423645444231170
  @DF-UKS Final Energy:  -552.16651737076597
    Total Energy =                       -552.1665173707659733
  @DF-UKS Final Energy:  -552.17948688534364
    Total Energy =                       -552.1794868853436355
  @DF-UKS Final Energy:  -552.18586977489531
    Total Energy =                       -552.1858697748954228
  @DF-UKS Final Energy:  -552.18894447665082
    Total Energy =                       -552.1889444766508177
  @DF-UKS Final Energy:  -552.19041001154631
    Total Energy =                       -552.1904100115463052
  @DF-UKS Final Energy:  -552.19109990937568
    Total Energy =                       -552.1910999093756800
  @DF-UKS Final Energy:  -552.19141335086761
    Total Energy =                       -552.1914133508674922
  @DF-UKS Final Energy:  -552.19154542077729
    Total Energy =                       -552.1915454207772882
  @DF-UKS Final Energy:  -552.19159255560351
    Total Energy =                       -552.1915925556035063
  @DF-UKS Final Energy:  -552.19160323204517
    Total Energy =                       -552.1916032320451677
  Basis Set: (CC-PVDZ AUX)
    Blend: CC-PVDZ-JKFIT
  Basis Set: CC-PVDZ
    Blend: CC-PVDZ
  Basis Set: (CC-PVDZ AUX)
    Blend: CC-PVDZ-JKFIT
  @DF-UKS Final Energy:  -552.19160675015212
    Total Energy =                       -552.1916067501521184
  Basis Set: CC-PVDZ
    Blend: CC-PVDZ
  Basis Set: (CC-PVDZ AUX)
    Blend: CC-PVDZ-JKFIT
  Charge       = -1
  Multiplicity = 3
  Basis Set: CC-PVDZ
    Blend: CC-PVDZ
  Basis Set: (CC-PVDZ AUX)
    Blend: CC-PVDZ-JKFIT

    Orbital Energies [Eh]
    ---------------------

    Alpha Occupied:

       1A1  -114.969874     2A1   -11.005945     1B2    -8.555895
       1B1    -8.555895     3A1    -8.555650     4A1    -6.497675
       5A1    -0.834346     2B2    -0.292982     2B1    -0.292982
       6A1    -0.290043     7A1    -0.091335     3B2     0.118729
       3B1     0.118729

    Alpha Virtual:

       8A1     0.194036     4B2     0.550590     4B1     0.550590
       9A1     0.559423    10A1     0.608152     5B2     0.712189
       5B1     0.712189    11A1     0.752114    12A1     0.893249
      13A1     0.964906     1A2     0.964915     6B1     0.966751
       6B2     0.966751    14A1     0.972530     2A2     0.984740
      15A1     0.984753     7B1     0.991450     7B2     0.991450
      16A1     1.014965

    Beta Occupied:

       1A1  -114.969864     2A1   -11.005936     1B2    -8.555879
       1B1    -8.555879     3A1    -8.555642     4A1    -6.485896
       5A1    -0.834314     2B2    -0.292971     2B1    -0.292971
       6A1    -0.290098     7A1    -0.020573

    Beta Virtual:

       8A1     0.210287     3B2     0.240980     3B1     0.240980
       9A1     0.568325     4B2     0.608608     4B1     0.608608
      10A1     0.642467     5B2     0.713051     5B1     0.713051
      11A1     0.756165    12A1     0.896454    13A1     0.964939
       1A2     0.964948     6B1     0.966802     6B2     0.966802
      14A1     0.973699     7B1     1.038011     7B2     1.038011
      15A1     1.039879     2A2     1.065827    16A1     1.065841

    Final Occupation by Irrep:
             A1    A2    B1    B2
    DOCC [     7,    0,    2,    2 ]
    SOCC [     0,    0,    1,    1 ]
    NA   [     7,    0,    3,    3 ]
    NB   [     7,    0,    2,    2 ]

  @DF-UKS Final Energy:  -552.19160733683259

   => Energetics <=

    Nuclear Repulsion Energy =             12.2122476098556589
    One-Electron Energy =                -789.1571422912270464
    Two-Electron Energy =                 252.9835791330655468
    DFT Exchange-Correlation Energy =     -28.2302917885267171
    Empirical Dispersion Energy =           0.0000000000000000
    VV10 Nonlocal Energy =                  0.0000000000000000
    Total Energy =                       -552.1916073368325897

  UHF NO Occupations:
  HONO-2 :    7 A1 1.9988374
  HONO-1 :    3 B2 1.0000000
  HONO-0 :    3 B1 1.0000000
  LUNO+0 :    8 A1 0.0011626
  LUNO+1 :    9 A1 0.0000001
  LUNO+2 :   10 A1 0.0000000
  LUNO+3 :    4 B2 0.0000000

Computation Completed

Properties will be evaluated at   0.000000,   0.000000,   0.000000 [a0]

Properties computed using the SCF density matrix

 Multipole Moments:

 ------------------------------------------------------------------------------------
     Multipole            Electronic (a.u.)      Nuclear  (a.u.)        Total (a.u.)
 ------------------------------------------------------------------------------------

 L = 1.  Multiply by 2.5417464519 to convert [e a0] to [Debye]
 Dipole X            :          0.0000000            0.0000000            0.0000000
 Dipole Y            :          0.0000000            0.0000000            0.0000000
 Dipole Z            :         -5.9571656            0.2377554           -5.7194102
 Magnitude           :                                                    5.7194102

 ------------------------------------------------------------------------------------

*** tstop() called on Joses-MacBook-Pro-2.local at Thu Jul 17 09:57:24 2025
Module time:
	user time   =       2.46 seconds =       0.04 minutes
	system time =       2.99 seconds =       0.05 minutes
	total time  =          0 seconds =       0.00 minutes
Total time:
	user time   =      85.00 seconds =       1.42 minutes
	system time =      99.16 seconds =       1.65 minutes
	total time  =         18 seconds =       0.30 minutes

*** tstart() called on Joses-MacBook-Pro-2.local
*** at Thu Jul 17 09:57:24 2025

         ------------------------------------------------------------
                                   SCF GRAD
                          Rob Parrish, Justin Turney,
                       Andy Simmonett, and Alex Sokolov
         ------------------------------------------------------------

  ==> Geometry <==

    Molecular point group: c2v
    Full point group: C_inf_v

    Geometry (in Angstrom), charge = -1, multiplicity = 3:

       Center              X                  Y                   Z               Mass
    ------------   -----------------  -----------------  -----------------  -----------------
         B            0.000000000000     0.000000000000     3.057527696949    11.009305360000
         AR           0.000000000000     0.000000000000    -0.842323541071    39.962383123700

  Nuclear repulsion =   12.212247609855659

  ==> Basis Set <==

  Basis Set: CC-PVDZ
    Blend: CC-PVDZ
    Number of shells: 14
    Number of basis functions: 32
    Number of Cartesian functions: 34
    Spherical Harmonics?: true
    Max angular momentum: 2

  ==> DFJKGrad: Density-Fitted SCF Gradients <==

    Gradient:                    1
    J tasked:                  Yes
    K tasked:                  Yes
    wK tasked:                  No
    OpenMP threads:              1
    Integrals threads:           1
    Memory [MiB]:              375
    Schwarz Cutoff:          1E-12
    Fitting Condition:       1E-10

   => Auxiliary Basis Set <=

  Basis Set: (CC-PVDZ AUX)
    Blend: CC-PVDZ-JKFIT
    Number of shells: 60
    Number of basis functions: 182
    Number of Cartesian functions: 211
    Spherical Harmonics?: true
    Max angular momentum: 3

  ==> DFT Potential <==

   => LibXC <=

    Version 6.2.2
    S. Lehtola, C. Steigemann, M. J.T. Oliveira, and M. A.L. Marques.,  SoftwareX 7, 1â€“5 (2018) (10.1016/j.softx.2017.11.002)

   => Composite Functional: B3LYP <=

    B3LYP Hyb-GGA Exchange-Correlation Functional

    P. J. Stephens, F. J. Devlin, C. F. Chabalowski, and M. J. Frisch.,  J. Phys. Chem. 98, 11623 (1994) (10.1021/j100096a001)

    Deriv               =              1
    GGA                 =           TRUE
    Meta                =          FALSE

    Exchange Hybrid     =           TRUE
    MP2 Hybrid          =          FALSE

   => Exchange Functionals <=

    0.0800   Slater exchange
    0.7200         Becke 88

   => Exact (HF) Exchange <=

    0.2000               HF

   => Correlation Functionals <=

    0.1900   Vosko, Wilk & Nusair (VWN5_RPA)
    0.8100   Lee, Yang & Parr

   => LibXC Density Thresholds  <==

    XC_HYB_GGA_XC_B3LYP:  1.00E-15

   => Molecular Quadrature <=

    Radial Scheme          =       TREUTLER
    Pruning Scheme         =           NONE
    Nuclear Scheme         =       TREUTLER

    Blocking Scheme        =         OCTREE
    BS radius alpha        =              1
    Pruning alpha          =              1
    Radial Points          =             75
    Spherical Points       =            302
    Total Points           =          42152
    Total Blocks           =            407
    Max Points             =            254
    Max Functions          =             32
    Weights Tolerance      =       1.00E-15

  -Total Gradient:
     Atom            X                  Y                   Z
    ------   -----------------  -----------------  -----------------
       1       -0.000000000000    -0.000000000000    -0.000013800586
       2        0.000000000000    -0.000000000000     0.000004912101

*** tstop() called on Joses-MacBook-Pro-2.local at Thu Jul 17 09:57:24 2025
Module time:
	user time   =       0.84 seconds =       0.01 minutes
	system time =       1.48 seconds =       0.02 minutes
	total time  =          0 seconds =       0.00 minutes
Total time:
	user time   =      85.84 seconds =       1.43 minutes
	system time =     100.64 seconds =       1.68 minutes
	total time  =         18 seconds =       0.30 minutes

    			-----------------------------------------

    			 OPTKING 3.0: for geometry optimizations

    			     By R.A. King, Bethel University

    			        with contributions from

    			    A.V. Copan, J. Cayton, A. Heide

    			-----------------------------------------

	                            ===> Fragment 1 <==

	 Z (Atomic Numbers)          Masses                          Geom
	       5.000000            11.009305          0.00000000  0.00000000  5.77788997
	      18.000000            39.962383          0.00000000  0.00000000 -1.59176080

	 - Coordinate -           - BOHR/RAD -       - ANG/DEG -
	 R(1,2)           =         7.369651           3.899851

	        --- Internal Coordinate Step in ANG or DEG, aJ/ANG or AJ/DEG ---
	-------------------------------------------------------------------------------
	           Coordinate      Previous         Force          Change          New
	           ----------      --------        ------          ------        ------
	               R(1,2)       3.89985        0.00008        0.00735       3.90720
	-------------------------------------------------------------------------------

	                                 ==> Convergence Check <==

	Measures of convergence in internal coordinates in au.

	Criteria marked as inactive (o), active & met (*), and active & unmet ( ).

	----------------------------------------------------------------------------------------------
	   Step    Total Energy     Delta E     Max Force     RMS Force      Max Disp      RMS Disp
	----------------------------------------------------------------------------------------------
	  Convergence Criteria     1.00e-06 *    3.00e-04 *             o    1.20e-03 *             o
	----------------------------------------------------------------------------------------------
	    18    -552.19160734   -5.87e-07 *    9.36e-06 *    9.36e-06 o    1.39e-02      1.39e-02 o  ~
	----------------------------------------------------------------------------------------------

Next Geometry in Ang
	Fragment 1 (Ang)

	    B   0.0000000000   0.0000000000   3.0612028694
	   Ar   0.0000000000   0.0000000000  -0.8459987135

    Final optimized geometry and variables:
    Molecular point group: c2v
    Full point group: C_inf_v

    Geometry (in Angstrom), charge = -1, multiplicity = 3:

    B            0.000000000000     0.000000000000     3.057527696949
    AR           0.000000000000     0.000000000000    -0.842323541071

    Psi4 stopped on: Thursday, 17 July 2025 09:57AM
    Psi4 wall time for execution: 0:00:18.72

*** Psi4 exiting successfully. Buy a developer a beer!
