                               Psi4 1.9.1 release

  ==> Input File <==

--------------------------------------------------------------------------
molecule {
-1 3
Na   0.00000        0.60000        0.00000
Si   0.00000       -0.60000        0.00000
}

set {
basis              cc-pvdz
reference          uks
maxiter            500
geom_maxiter       500
DAMPING_PERCENTAGE 1
guess              SAP
}

optimize('b3lyp')
--------------------------------------------------------------------------

    Molecular point group: c2v
  Charge       = -1
  Multiplicity = 3
  Basis Set: CC-PVDZ
    Blend: CC-PVDZ
  Basis Set: (CC-PVDZ AUX)
    Blend: CC-PVDZ-JKFIT + DEF2-UNIVERSAL-JKFIT
  @DF-UKS Final Energy:  -450.96682850199142
    Total Energy =                       -450.9668285019914151
 Dipole X            :          0.0000000            0.0000000            0.0000000
 Dipole Y            :          0.0000000            0.0000000            0.0000000
 Dipole Z            :         -0.0533476           -0.6278248           -0.6811724
 Magnitude           :                                                    0.6811724
    Molecular point group: c2v
  Basis Set: CC-PVDZ
    Blend: CC-PVDZ
  Basis Set: (CC-PVDZ AUX)
    Blend: CC-PVDZ-JKFIT + DEF2-UNIVERSAL-JKFIT
  Basis Set: CC-PVDZ
    Blend: CC-PVDZ
  Basis Set: (CC-PVDZ AUX)
    Blend: CC-PVDZ-JKFIT + DEF2-UNIVERSAL-JKFIT
  @DF-UKS Final Energy:  -450.97511308966187
    Total Energy =                       -450.9751130896618747
  Basis Set: CC-PVDZ
    Blend: CC-PVDZ
  Basis Set: (CC-PVDZ AUX)
    Blend: CC-PVDZ-JKFIT + DEF2-UNIVERSAL-JKFIT
  Basis Set: CC-PVDZ
    Blend: CC-PVDZ
  @DF-UKS Final Energy:  -450.99114465138666
    Total Energy =                       -450.9911446513866622
  @DF-UKS Final Energy:  -451.04971144047227
    Total Energy =                       -451.0497114404722652
  @DF-UKS Final Energy:  -451.32319773826811
    Total Energy =                       -451.3231977382681066
  @DF-UKS Final Energy:  -451.48349212925530
    Total Energy =                       -451.4834921292552963
  @DF-UKS Final Energy:  -451.59966940717464
    Total Energy =                       -451.5996694071746447
  @DF-UKS Final Energy:  -451.66877585287483
    Total Energy =                       -451.6687758528748873
  @DF-UKS Final Energy:  -451.70196072124116
    Total Energy =                       -451.7019607212411643
  @DF-UKS Final Energy:  -451.71534517639606
    Total Energy =                       -451.7153451763960561
  @DF-UKS Final Energy:  -451.75455272059810
    Total Energy =                       -451.7545527205980989
  @DF-UKS Final Energy:  -451.76087751678875
    Total Energy =                       -451.7608775167888098
  @DF-UKS Final Energy:  -451.76088342966619
    Total Energy =                       -451.7608834296661939
  Basis Set: (CC-PVDZ AUX)
    Blend: CC-PVDZ-JKFIT + DEF2-UNIVERSAL-JKFIT
  Basis Set: CC-PVDZ
    Blend: CC-PVDZ
  Basis Set: (CC-PVDZ AUX)
    Blend: CC-PVDZ-JKFIT + DEF2-UNIVERSAL-JKFIT
  @DF-UKS Final Energy:  -451.76095469557515
    Total Energy =                       -451.7609546955751512
  Basis Set: CC-PVDZ
    Blend: CC-PVDZ
  Basis Set: (CC-PVDZ AUX)
    Blend: CC-PVDZ-JKFIT + DEF2-UNIVERSAL-JKFIT
  Charge       = -1
  Multiplicity = 3
  Basis Set: CC-PVDZ
    Blend: CC-PVDZ
  Basis Set: (CC-PVDZ AUX)
    Blend: CC-PVDZ-JKFIT + DEF2-UNIVERSAL-JKFIT

    Orbital Energies [Eh]
    ---------------------

    Alpha Occupied:

       1A1   -65.938908     2A1   -38.302198     3A1    -5.081785
       1B1    -3.441278     1B2    -3.441278     4A1    -3.440820
       5A1    -2.049303     2B1    -0.981109     2B2    -0.981109
       6A1    -0.980282     7A1    -0.252666     8A1    -0.009179
       3B1     0.002988     3B2     0.002988

    Alpha Virtual:

       9A1     0.078408     4B2     0.112168     4B1     0.112168
      10A1     0.126265    11A1     0.183917     5B2     0.213634
       5B1     0.213634    12A1     0.269188     1A2     0.314519
      13A1     0.314520     6B1     0.326211     6B2     0.326211
      14A1     0.367363     7B1     0.504822     7B2     0.504822
      15A1     0.526328    16A1     0.552414     2A2     0.552414
      17A1     0.558284     8B1     0.632912     8B2     0.632912
      18A1     0.822118

    Beta Occupied:

       1A1   -65.932791     2A1   -38.302455     3A1    -5.074926
       4A1    -3.432030     1B1    -3.430627     1B2    -3.430627
       5A1    -2.049929     2B1    -0.981469     2B2    -0.981469
       6A1    -0.980392     7A1    -0.177111     8A1     0.017319

    Beta Virtual:

       3B2     0.087665     3B1     0.087665     9A1     0.092930
      10A1     0.131497     4B1     0.131528     4B2     0.131528
      11A1     0.176335     5B2     0.208614     5B1     0.208614
      12A1     0.269071    13A1     0.310391     1A2     0.310391
       6B1     0.334044     6B2     0.334044    14A1     0.383834
       7B1     0.545169     7B2     0.545169    15A1     0.565651
      16A1     0.585079     2A2     0.621297    17A1     0.621300
       8B1     0.681918     8B2     0.681918    18A1     0.854211

    Final Occupation by Irrep:
             A1    A2    B1    B2
    DOCC [     8,    0,    2,    2 ]
    SOCC [     0,    0,    1,    1 ]
    NA   [     8,    0,    3,    3 ]
    NB   [     8,    0,    2,    2 ]

  @DF-UKS Final Energy:  -451.76095481424488

   => Energetics <=

    Nuclear Repulsion Energy =             28.2973202808687070
    One-Electron Energy =                -690.0798984705157864
    Two-Electron Energy =                 238.5927979417902804
    DFT Exchange-Correlation Energy =     -28.5711745663880450
    Empirical Dispersion Energy =           0.0000000000000000
    VV10 Nonlocal Energy =                  0.0000000000000000
    Total Energy =                       -451.7609548142448261

  UHF NO Occupations:
  HONO-2 :    8 A1 1.6988724
  HONO-1 :    3 B2 1.0000000
  HONO-0 :    3 B1 1.0000000
  LUNO+0 :    9 A1 0.3011276
  LUNO+1 :   10 A1 0.0002553
  LUNO+2 :   11 A1 0.0000006
  LUNO+3 :    4 B1 0.0000004

Computation Completed

Properties will be evaluated at   0.000000,   0.000000,   0.000000 [a0]

Properties computed using the SCF density matrix

 Multipole Moments:

 ------------------------------------------------------------------------------------
     Multipole            Electronic (a.u.)      Nuclear  (a.u.)        Total (a.u.)
 ------------------------------------------------------------------------------------

 L = 1.  Multiply by 2.5417464519 to convert [e a0] to [Debye]
 Dipole X            :          0.0000000            0.0000000            0.0000000
 Dipole Y            :          0.0000000            0.0000000            0.0000000
 Dipole Z            :          0.9339150           -1.5067241           -0.5728091
 Magnitude           :                                                    0.5728091

 ------------------------------------------------------------------------------------

*** tstop() called on Joses-MacBook-Pro-2.local at Thu Jul 17 11:11:18 2025
Module time:
	user time   =      10.21 seconds =       0.17 minutes
	system time =       2.34 seconds =       0.04 minutes
	total time  =          1 seconds =       0.02 minutes
Total time:
	user time   =     229.98 seconds =       3.83 minutes
	system time =      60.50 seconds =       1.01 minutes
	total time  =         28 seconds =       0.47 minutes

*** tstart() called on Joses-MacBook-Pro-2.local
*** at Thu Jul 17 11:11:18 2025

         ------------------------------------------------------------
                                   SCF GRAD
                          Rob Parrish, Justin Turney,
                       Andy Simmonett, and Alex Sokolov
         ------------------------------------------------------------

  ==> Geometry <==

    Molecular point group: c2v
    Full point group: C_inf_v

    Geometry (in Angstrom), charge = -1, multiplicity = 3:

       Center              X                  Y                   Z               Mass
    ------------   -----------------  -----------------  -----------------  -----------------
         NA           0.000000000000     0.000000000000     1.580847826984    22.989769282000
         SI           0.000000000000     0.000000000000    -1.299046439833    27.976926534650

  Nuclear repulsion =   28.297320280868707

  ==> Basis Set <==

  Basis Set: CC-PVDZ
    Blend: CC-PVDZ
    Number of shells: 16
    Number of basis functions: 36
    Number of Cartesian functions: 38
    Spherical Harmonics?: true
    Max angular momentum: 2

  ==> DFJKGrad: Density-Fitted SCF Gradients <==

    Gradient:                    1
    J tasked:                  Yes
    K tasked:                  Yes
    wK tasked:                  No
    OpenMP threads:              1
    Integrals threads:           1
    Memory [MiB]:              375
    Schwarz Cutoff:          1E-12
    Fitting Condition:       1E-10

   => Auxiliary Basis Set <=

  Basis Set: (CC-PVDZ AUX)
    Blend: CC-PVDZ-JKFIT + DEF2-UNIVERSAL-JKFIT
    Number of shells: 70
    Number of basis functions: 224
    Number of Cartesian functions: 267
    Spherical Harmonics?: true
    Max angular momentum: 4

  ==> DFT Potential <==

   => LibXC <=

    Version 6.2.2
    S. Lehtola, C. Steigemann, M. J.T. Oliveira, and M. A.L. Marques.,  SoftwareX 7, 1â€“5 (2018) (10.1016/j.softx.2017.11.002)

   => Composite Functional: B3LYP <=

    B3LYP Hyb-GGA Exchange-Correlation Functional

    P. J. Stephens, F. J. Devlin, C. F. Chabalowski, and M. J. Frisch.,  J. Phys. Chem. 98, 11623 (1994) (10.1021/j100096a001)

    Deriv               =              1
    GGA                 =           TRUE
    Meta                =          FALSE

    Exchange Hybrid     =           TRUE
    MP2 Hybrid          =          FALSE

   => Exchange Functionals <=

    0.0800   Slater exchange
    0.7200         Becke 88

   => Exact (HF) Exchange <=

    0.2000               HF

   => Correlation Functionals <=

    0.1900   Vosko, Wilk & Nusair (VWN5_RPA)
    0.8100   Lee, Yang & Parr

   => LibXC Density Thresholds  <==

    XC_HYB_GGA_XC_B3LYP:  1.00E-15

   => Molecular Quadrature <=

    Radial Scheme          =       TREUTLER
    Pruning Scheme         =           NONE
    Nuclear Scheme         =       TREUTLER

    Blocking Scheme        =         OCTREE
    BS radius alpha        =              1
    Pruning alpha          =              1
    Radial Points          =             75
    Spherical Points       =            302
    Total Points           =          43851
    Total Blocks           =            451
    Max Points             =            256
    Max Functions          =             36
    Weights Tolerance      =       1.00E-15

  -Total Gradient:
     Atom            X                  Y                   Z
    ------   -----------------  -----------------  -----------------
       1        0.000000000000    -0.000000000000     0.000034089535
       2        0.000000000000     0.000000000000     0.000015217128

*** tstop() called on Joses-MacBook-Pro-2.local at Thu Jul 17 11:11:19 2025
Module time:
	user time   =       2.70 seconds =       0.05 minutes
	system time =       1.81 seconds =       0.03 minutes
	total time  =          1 seconds =       0.02 minutes
Total time:
	user time   =     232.68 seconds =       3.88 minutes
	system time =      62.31 seconds =       1.04 minutes
	total time  =         29 seconds =       0.48 minutes

    			-----------------------------------------

    			 OPTKING 3.0: for geometry optimizations

    			     By R.A. King, Bethel University

    			        with contributions from

    			    A.V. Copan, J. Cayton, A. Heide

    			-----------------------------------------

	                            ===> Fragment 1 <==

	 Z (Atomic Numbers)          Masses                          Geom
	      11.000000            22.989769          0.00000000  0.00000000  2.98736944
	      14.000000            27.976927          0.00000000  0.00000000 -2.45484200

	 - Coordinate -           - BOHR/RAD -       - ANG/DEG -
	 R(1,2)           =         5.442211           2.879894

	        --- Internal Coordinate Step in ANG or DEG, aJ/ANG or AJ/DEG ---
	-------------------------------------------------------------------------------
	           Coordinate      Previous         Force          Change          New
	           ----------      --------        ------          ------        ------
	               R(1,2)       2.87989       -0.00008       -0.00030       2.87960
	-------------------------------------------------------------------------------

	                                 ==> Convergence Check <==

	Measures of convergence in internal coordinates in au.

	Criteria marked as inactive (o), active & met (*), and active & unmet ( ).

	----------------------------------------------------------------------------------------------
	   Step    Total Energy     Delta E     Max Force     RMS Force      Max Disp      RMS Disp
	----------------------------------------------------------------------------------------------
	  Convergence Criteria     1.00e-06 *    3.00e-04 *             o    1.20e-03 *             o
	----------------------------------------------------------------------------------------------
	    15    -451.76095481   -1.19e-07 *    9.44e-06 *    9.44e-06 o    5.58e-04 *    5.58e-04 o  ~
	----------------------------------------------------------------------------------------------

Next Geometry in Ang
	Fragment 1 (Ang)

	   Na   0.0000000000   0.0000000000   1.5807002268
	   Si   0.0000000000   0.0000000000  -1.2988988397

    Final optimized geometry and variables:
    Molecular point group: c2v
    Full point group: C_inf_v

    Geometry (in Angstrom), charge = -1, multiplicity = 3:

    NA           0.000000000000     0.000000000000     1.580847826984
    SI           0.000000000000     0.000000000000    -1.299046439833

    Psi4 stopped on: Thursday, 17 July 2025 11:11AM
    Psi4 wall time for execution: 0:00:29.80

*** Psi4 exiting successfully. Buy a developer a beer!
