                               Psi4 1.9.1 release

  ==> Input File <==

--------------------------------------------------------------------------
molecule {
-1 3
Al   0.00000        0.60000        0.00000
S   0.00000       -0.60000        0.00000
}

set {
basis              cc-pvdz
reference          uks
maxiter            500
geom_maxiter       500
DAMPING_PERCENTAGE 1
guess              SAP
}

optimize('b3lyp')
--------------------------------------------------------------------------

    Molecular point group: c2v
  Charge       = -1
  Multiplicity = 3
  Basis Set: CC-PVDZ
    Blend: CC-PVDZ
  Basis Set: (CC-PVDZ AUX)
    Blend: CC-PVDZ-JKFIT
  @DF-UKS Final Energy:  -639.46262211770386
    Total Energy =                       -639.4626221177038587
 Dipole X            :          0.0000000            0.0000000            0.0000000
 Dipole Y            :          0.0000000            0.0000000            0.0000000
 Dipole Z            :         -0.5921786           -0.6180494           -1.2102280
 Magnitude           :                                                    1.2102280
    Molecular point group: c2v
  Basis Set: CC-PVDZ
    Blend: CC-PVDZ
  Basis Set: (CC-PVDZ AUX)
    Blend: CC-PVDZ-JKFIT
  Basis Set: CC-PVDZ
    Blend: CC-PVDZ
  Basis Set: (CC-PVDZ AUX)
    Blend: CC-PVDZ-JKFIT
  @DF-UKS Final Energy:  -639.48891593787584
    Total Energy =                       -639.4889159378758450
  Basis Set: CC-PVDZ
    Blend: CC-PVDZ
  Basis Set: (CC-PVDZ AUX)
    Blend: CC-PVDZ-JKFIT
  Basis Set: CC-PVDZ
    Blend: CC-PVDZ
  @DF-UKS Final Energy:  -639.53912514809565
    Total Energy =                       -639.5391251480957635
  @DF-UKS Final Energy:  -639.71529910719255
    Total Energy =                       -639.7152991071925499
  @DF-UKS Final Energy:  -640.30345876132355
    Total Energy =                       -640.3034587613235544
  @DF-UKS Final Energy:  -640.49679458863807
    Total Energy =                       -640.4967945886380676
  @DF-UKS Final Energy:  -640.58965152478947
    Total Energy =                       -640.5896515247893603
  @DF-UKS Final Energy:  -640.62799208171566
    Total Energy =                       -640.6279920817156608
  @DF-UKS Final Energy:  -640.64176786484518
    Total Energy =                       -640.6417678648454057
  @DF-UKS Final Energy:  -640.64488558499943
    Total Energy =                       -640.6448855849994288
  @DF-UKS Final Energy:  -640.64591698220966
    Total Energy =                       -640.6459169822095419
  @DF-UKS Final Energy:  -640.64608460537124
    Total Energy =                       -640.6460846053712430
  @DF-UKS Final Energy:  -640.64611485636181
    Total Energy =                       -640.6461148563616916
  Basis Set: (CC-PVDZ AUX)
    Blend: CC-PVDZ-JKFIT
  Basis Set: CC-PVDZ
    Blend: CC-PVDZ
  Basis Set: (CC-PVDZ AUX)
    Blend: CC-PVDZ-JKFIT
  @DF-UKS Final Energy:  -640.64612140654742
    Total Energy =                       -640.6461214065474223
  Basis Set: CC-PVDZ
    Blend: CC-PVDZ
  Basis Set: (CC-PVDZ AUX)
    Blend: CC-PVDZ-JKFIT
  Charge       = -1
  Multiplicity = 3
  Basis Set: CC-PVDZ
    Blend: CC-PVDZ
  Basis Set: (CC-PVDZ AUX)
    Blend: CC-PVDZ-JKFIT

    Orbital Energies [Eh]
    ---------------------

    Alpha Occupied:

       1A1   -88.625722     2A1   -55.865351     3A1    -7.686305
       4A1    -5.652694     1B2    -5.644744     1B1    -5.643370
       5A1    -3.946637     2B2    -2.500586     6A1    -2.499691
       2B1    -2.498036     7A1    -0.441914     8A1    -0.153850
       9A1    -0.049115     3B1    -0.039776     3B2    -0.037341
       4B1     0.078215

    Alpha Virtual:

       4B2     0.126037    10A1     0.206050    11A1     0.331299
       5B1     0.386528     5B2     0.390820    12A1     0.408848
       1A2     0.447551    13A1     0.450760     6B1     0.465080
       6B2     0.467839    14A1     0.518867     7B2     0.747795
       7B1     0.750291    15A1     0.813241     2A2     0.865886
      16A1     0.866061    17A1     0.883774     8B2     0.971171
       8B1     0.971824    18A1     1.278293

    Beta Occupied:

       1A1   -88.622915     2A1   -55.862064     3A1    -7.683474
       4A1    -5.645281     1B2    -5.643207     1B1    -5.639531
       5A1    -3.942160     2B2    -2.498065     6A1    -2.494086
       2B1    -2.491065     7A1    -0.419889     8A1    -0.111744
       3B2    -0.031882     3B1    -0.020993

    Beta Virtual:

       9A1     0.046829     4B2     0.146030     4B1     0.165768
      10A1     0.224521    11A1     0.353564     5B2     0.398196
       5B1     0.415004    12A1     0.436726     1A2     0.484553
      13A1     0.484625     6B2     0.493654     6B1     0.512064
      14A1     0.543709     7B2     0.752388     7B1     0.760319
      15A1     0.835961    16A1     0.875445     2A2     0.875678
      17A1     0.901275     8B2     0.988753     8B1     0.999438
      18A1     1.293181

    Final Occupation by Irrep:
             A1    A2    B1    B2
    DOCC [     8,    0,    3,    3 ]
    SOCC [     1,    0,    1,    0 ]
    NA   [     9,    0,    4,    3 ]
    NB   [     8,    0,    3,    3 ]

  @DF-UKS Final Energy:  -640.64612188599472

   => Energetics <=

    Nuclear Repulsion Energy =             50.5585221328109142
    One-Electron Energy =                -994.5532803208400310
    Two-Electron Energy =                 339.2209786321973866
    DFT Exchange-Correlation Energy =     -35.8723423301629794
    Empirical Dispersion Energy =           0.0000000000000000
    VV10 Nonlocal Energy =                  0.0000000000000000
    Total Energy =                       -640.6461218859946030

  UHF NO Occupations:
  HONO-2 :    8 A1 1.9983154
  HONO-1 :    4 B1 1.0000000
  HONO-0 :    9 A1 1.0000000
  LUNO+0 :   10 A1 0.0016846
  LUNO+1 :    5 B1 0.0003661
  LUNO+2 :    4 B2 0.0002437
  LUNO+3 :   11 A1 0.0001342

Computation Completed

Properties will be evaluated at   0.000000,   0.000000,   0.000000 [a0]

Properties computed using the SCF density matrix

 Multipole Moments:

 ------------------------------------------------------------------------------------
     Multipole            Electronic (a.u.)      Nuclear  (a.u.)        Total (a.u.)
 ------------------------------------------------------------------------------------

 L = 1.  Multiply by 2.5417464519 to convert [e a0] to [Debye]
 Dipole X            :          0.0000000            0.0000000            0.0000000
 Dipole Y            :          0.0000000            0.0000000            0.0000000
 Dipole Z            :          1.0864879           -1.1212747           -0.0347869
 Magnitude           :                                                    0.0347869

 ------------------------------------------------------------------------------------

*** tstop() called on Joses-MacBook-Pro-2.local at Thu Jul 17 11:40:12 2025
Module time:
	user time   =      12.03 seconds =       0.20 minutes
	system time =       2.41 seconds =       0.04 minutes
	total time  =          2 seconds =       0.03 minutes
Total time:
	user time   =     277.05 seconds =       4.62 minutes
	system time =      62.44 seconds =       1.04 minutes
	total time  =         35 seconds =       0.58 minutes

*** tstart() called on Joses-MacBook-Pro-2.local
*** at Thu Jul 17 11:40:12 2025

         ------------------------------------------------------------
                                   SCF GRAD
                          Rob Parrish, Justin Turney,
                       Andy Simmonett, and Alex Sokolov
         ------------------------------------------------------------

  ==> Geometry <==

    Molecular point group: c2v
    Full point group: C_inf_v

    Geometry (in Angstrom), charge = -1, multiplicity = 3:

       Center              X                  Y                   Z               Mass
    ------------   -----------------  -----------------  -----------------  -----------------
         AL           0.000000000000     0.000000000000     1.180675268606    26.981538530000
         S            0.000000000000     0.000000000000    -0.996383220766    31.972071174400

  Nuclear repulsion =   50.558522132810914

  ==> Basis Set <==

  Basis Set: CC-PVDZ
    Blend: CC-PVDZ
    Number of shells: 16
    Number of basis functions: 36
    Number of Cartesian functions: 38
    Spherical Harmonics?: true
    Max angular momentum: 2

  ==> DFJKGrad: Density-Fitted SCF Gradients <==

    Gradient:                    1
    J tasked:                  Yes
    K tasked:                  Yes
    wK tasked:                  No
    OpenMP threads:              1
    Integrals threads:           1
    Memory [MiB]:              375
    Schwarz Cutoff:          1E-12
    Fitting Condition:       1E-10

   => Auxiliary Basis Set <=

  Basis Set: (CC-PVDZ AUX)
    Blend: CC-PVDZ-JKFIT
    Number of shells: 72
    Number of basis functions: 224
    Number of Cartesian functions: 260
    Spherical Harmonics?: true
    Max angular momentum: 3

  ==> DFT Potential <==

   => LibXC <=

    Version 6.2.2
    S. Lehtola, C. Steigemann, M. J.T. Oliveira, and M. A.L. Marques.,  SoftwareX 7, 1â€“5 (2018) (10.1016/j.softx.2017.11.002)

   => Composite Functional: B3LYP <=

    B3LYP Hyb-GGA Exchange-Correlation Functional

    P. J. Stephens, F. J. Devlin, C. F. Chabalowski, and M. J. Frisch.,  J. Phys. Chem. 98, 11623 (1994) (10.1021/j100096a001)

    Deriv               =              1
    GGA                 =           TRUE
    Meta                =          FALSE

    Exchange Hybrid     =           TRUE
    MP2 Hybrid          =          FALSE

   => Exchange Functionals <=

    0.0800   Slater exchange
    0.7200         Becke 88

   => Exact (HF) Exchange <=

    0.2000               HF

   => Correlation Functionals <=

    0.1900   Vosko, Wilk & Nusair (VWN5_RPA)
    0.8100   Lee, Yang & Parr

   => LibXC Density Thresholds  <==

    XC_HYB_GGA_XC_B3LYP:  1.00E-15

   => Molecular Quadrature <=

    Radial Scheme          =       TREUTLER
    Pruning Scheme         =           NONE
    Nuclear Scheme         =       TREUTLER

    Blocking Scheme        =         OCTREE
    BS radius alpha        =              1
    Pruning alpha          =              1
    Radial Points          =             75
    Spherical Points       =            302
    Total Points           =          42655
    Total Blocks           =            400
    Max Points             =            256
    Max Functions          =             36
    Weights Tolerance      =       1.00E-15

  -Total Gradient:
     Atom            X                  Y                   Z
    ------   -----------------  -----------------  -----------------
       1        0.000000000000     0.000000000000    -0.000044596560
       2        0.000000000000    -0.000000000000     0.000072961773

*** tstop() called on Joses-MacBook-Pro-2.local at Thu Jul 17 11:40:12 2025
Module time:
	user time   =       2.79 seconds =       0.05 minutes
	system time =       1.51 seconds =       0.03 minutes
	total time  =          0 seconds =       0.00 minutes
Total time:
	user time   =     279.84 seconds =       4.66 minutes
	system time =      63.96 seconds =       1.07 minutes
	total time  =         35 seconds =       0.58 minutes

    			-----------------------------------------

    			 OPTKING 3.0: for geometry optimizations

    			     By R.A. King, Bethel University

    			        with contributions from

    			    A.V. Copan, J. Cayton, A. Heide

    			-----------------------------------------

	                            ===> Fragment 1 <==

	 Z (Atomic Numbers)          Masses                          Geom
	      13.000000            26.981539          0.00000000  0.00000000  2.23115290
	      16.000000            31.972071          0.00000000  0.00000000 -1.88289140

	 - Coordinate -           - BOHR/RAD -       - ANG/DEG -
	 R(1,2)           =         4.114044           2.177058

	        --- Internal Coordinate Step in ANG or DEG, aJ/ANG or AJ/DEG ---
	-------------------------------------------------------------------------------
	           Coordinate      Previous         Force          Change          New
	           ----------      --------        ------          ------        ------
	               R(1,2)       2.17706        0.00048        0.00024       2.17730
	-------------------------------------------------------------------------------

	                                 ==> Convergence Check <==

	Measures of convergence in internal coordinates in au.

	Criteria marked as inactive (o), active & met (*), and active & unmet ( ).

	----------------------------------------------------------------------------------------------
	   Step    Total Energy     Delta E     Max Force     RMS Force      Max Disp      RMS Disp
	----------------------------------------------------------------------------------------------
	  Convergence Criteria     1.00e-06 *    3.00e-04 *             o    1.20e-03 *             o
	----------------------------------------------------------------------------------------------
	    15    -640.64612189   -4.79e-07 *    5.88e-05 *    5.88e-05 o    4.47e-04 *    4.47e-04 o  ~
	----------------------------------------------------------------------------------------------

Next Geometry in Ang
	Fragment 1 (Ang)

	   Al   0.0000000000   0.0000000000   1.1807936640
	    S   0.0000000000   0.0000000000  -0.9965016162

    Final optimized geometry and variables:
    Molecular point group: c2v
    Full point group: C_inf_v

    Geometry (in Angstrom), charge = -1, multiplicity = 3:

    AL           0.000000000000     0.000000000000     1.180675268606
    S            0.000000000000     0.000000000000    -0.996383220766

    Psi4 stopped on: Thursday, 17 July 2025 11:40AM
    Psi4 wall time for execution: 0:00:35.83

*** Psi4 exiting successfully. Buy a developer a beer!
