                               Psi4 1.9.1 release

  ==> Input File <==

--------------------------------------------------------------------------
molecule {
-1 3
Si   0.00000        0.60000        0.00000
Cl   0.00000       -0.60000        0.00000
}

set {
basis              cc-pvdz
reference          uks
maxiter            500
geom_maxiter       500
DAMPING_PERCENTAGE 1
guess              SAP
}

optimize('b3lyp')
--------------------------------------------------------------------------

    Molecular point group: c2v
  Charge       = -1
  Multiplicity = 3
  Basis Set: CC-PVDZ
    Blend: CC-PVDZ
  Basis Set: (CC-PVDZ AUX)
    Blend: CC-PVDZ-JKFIT
  @DF-UKS Final Energy:  -748.39283514018075
    Total Energy =                       -748.3928351401808641
 Dipole X            :          0.0000000            0.0000000            0.0000000
 Dipole Y            :          0.0000000            0.0000000            0.0000000
 Dipole Z            :         -3.1015176            0.5027826           -2.5987350
 Magnitude           :                                                    2.5987350
    Molecular point group: c2v
  Basis Set: CC-PVDZ
    Blend: CC-PVDZ
  Basis Set: (CC-PVDZ AUX)
    Blend: CC-PVDZ-JKFIT
  Basis Set: CC-PVDZ
    Blend: CC-PVDZ
  Basis Set: (CC-PVDZ AUX)
    Blend: CC-PVDZ-JKFIT
  @DF-UKS Final Energy:  -748.43252121034027
    Total Energy =                       -748.4325212103402691
  Basis Set: CC-PVDZ
    Blend: CC-PVDZ
  Basis Set: (CC-PVDZ AUX)
    Blend: CC-PVDZ-JKFIT
  Basis Set: CC-PVDZ
    Blend: CC-PVDZ
  @DF-UKS Final Energy:  -748.50661526982424
    Total Energy =                       -748.5066152698243513
  @DF-UKS Final Energy:  -748.75138438174304
    Total Energy =                       -748.7513843817430370
  @DF-UKS Final Energy:  -749.31175598963057
    Total Energy =                       -749.3117559896305693
  @DF-UKS Final Energy:  -749.50762137741071
    Total Energy =                       -749.5076213774107146
  @DF-UKS Final Energy:  -749.62955106962772
    Total Energy =                       -749.6295510696276096
  @DF-UKS Final Energy:  -749.69234360748965
    Total Energy =                       -749.6923436074896472
  @DF-UKS Final Energy:  -749.72050966381562
    Total Energy =                       -749.7205096638156192
  @DF-UKS Final Energy:  -749.73195839876553
    Total Energy =                       -749.7319583987655278
  @DF-UKS Final Energy:  -749.73498944457072
    Total Energy =                       -749.7349894445707150
  @DF-UKS Final Energy:  -749.73616131832239
    Total Energy =                       -749.7361613183223881
  @DF-UKS Final Energy:  -749.73639305417043
    Total Energy =                       -749.7363930541703212
  @DF-UKS Final Energy:  -749.73645207029665
    Total Energy =                       -749.7364520702966502
  Basis Set: (CC-PVDZ AUX)
    Blend: CC-PVDZ-JKFIT
  Basis Set: CC-PVDZ
    Blend: CC-PVDZ
  Basis Set: (CC-PVDZ AUX)
    Blend: CC-PVDZ-JKFIT
  @DF-UKS Final Energy:  -749.73645768912684
    Total Energy =                       -749.7364576891268371
  Basis Set: CC-PVDZ
    Blend: CC-PVDZ
  Basis Set: (CC-PVDZ AUX)
    Blend: CC-PVDZ-JKFIT
  Charge       = -1
  Multiplicity = 3
  Basis Set: CC-PVDZ
    Blend: CC-PVDZ
  Basis Set: (CC-PVDZ AUX)
    Blend: CC-PVDZ-JKFIT

    Orbital Energies [Eh]
    ---------------------

    Alpha Occupied:

       1A1  -101.294943     2A1   -65.915383     3A1    -9.211470
       4A1    -6.970295     1B1    -6.966758     1B2    -6.966758
       5A1    -5.057110     6A1    -3.416102     2B2    -3.416050
       2B1    -3.416050     7A1    -0.567464     8A1    -0.236441
       3B2    -0.101283     3B1    -0.101283     9A1    -0.094872
       4B1     0.047091     4B2     0.047091

    Alpha Virtual:

      10A1     0.189062    11A1     0.448310    12A1     0.497276
       5B2     0.513681     5B1     0.513681     1A2     0.571296
      13A1     0.571297     6B2     0.571657     6B1     0.571657
      14A1     0.635776     7B2     0.796666     7B1     0.796666
      15A1     0.846355    16A1     0.968633    17A1     0.972692
       2A2     0.972699     8B2     1.037893     8B1     1.037893
      18A1     1.365941

    Beta Occupied:

       1A1  -101.294238     2A1   -65.910449     3A1    -9.210781
       4A1    -6.970094     1B1    -6.965323     1B2    -6.965323
       5A1    -5.051552     6A1    -3.413284     2B2    -3.405429
       2B1    -3.405429     7A1    -0.562859     8A1    -0.198720
       3B2    -0.093037     3B1    -0.093037     9A1    -0.069776

    Beta Virtual:

       4B1     0.152218     4B2     0.152218    10A1     0.207514
      11A1     0.472443    12A1     0.506805     5B2     0.553021
       5B1     0.553021     6B2     0.605983     6B1     0.605983
      13A1     0.644872     1A2     0.644873    14A1     0.649233
       7B2     0.798984     7B1     0.798984    15A1     0.856191
      16A1     0.972381    17A1     0.978658     2A2     0.978665
       8B2     1.046841     8B1     1.046841    18A1     1.372449

    Final Occupation by Irrep:
             A1    A2    B1    B2
    DOCC [     9,    0,    3,    3 ]
    SOCC [     0,    0,    1,    1 ]
    NA   [     9,    0,    4,    4 ]
    NB   [     9,    0,    3,    3 ]

  @DF-UKS Final Energy:  -749.73645825469896

   => Energetics <=

    Nuclear Repulsion Energy =             54.1807658391661136
    One-Electron Energy =               -1152.3039999980121593
    Two-Electron Energy =                 388.1440106083644537
    DFT Exchange-Correlation Energy =     -39.7572347042172183
    Empirical Dispersion Energy =           0.0000000000000000
    VV10 Nonlocal Energy =                  0.0000000000000000
    Total Energy =                       -749.7364582546989595

  UHF NO Occupations:
  HONO-2 :    9 A1 1.9976932
  HONO-1 :    4 B2 1.0000000
  HONO-0 :    4 B1 1.0000000
  LUNO+0 :   10 A1 0.0023068
  LUNO+1 :   11 A1 0.0000972
  LUNO+2 :    5 B2 0.0000539
  LUNO+3 :    5 B1 0.0000539

Computation Completed

Properties will be evaluated at   0.000000,   0.000000,   0.000000 [a0]

Properties computed using the SCF density matrix

 Multipole Moments:

 ------------------------------------------------------------------------------------
     Multipole            Electronic (a.u.)      Nuclear  (a.u.)        Total (a.u.)
 ------------------------------------------------------------------------------------

 L = 1.  Multiply by 2.5417464519 to convert [e a0] to [Debye]
 Dipole X            :          0.0000000            0.0000000            0.0000000
 Dipole Y            :          0.0000000            0.0000000            0.0000000
 Dipole Z            :         -1.7013307            0.9739395           -0.7273912
 Magnitude           :                                                    0.7273912

 ------------------------------------------------------------------------------------

*** tstop() called on Joses-MacBook-Pro-2.local at Thu Jul 17 11:51:16 2025
Module time:
	user time   =       8.19 seconds =       0.14 minutes
	system time =       1.39 seconds =       0.02 minutes
	total time  =          1 seconds =       0.02 minutes
Total time:
	user time   =     188.93 seconds =       3.15 minutes
	system time =      44.74 seconds =       0.75 minutes
	total time  =         22 seconds =       0.37 minutes

*** tstart() called on Joses-MacBook-Pro-2.local
*** at Thu Jul 17 11:51:16 2025

         ------------------------------------------------------------
                                   SCF GRAD
                          Rob Parrish, Justin Turney,
                       Andy Simmonett, and Alex Sokolov
         ------------------------------------------------------------

  ==> Geometry <==

    Molecular point group: c2v
    Full point group: C_inf_v

    Geometry (in Angstrom), charge = -1, multiplicity = 3:

       Center              X                  Y                   Z               Mass
    ------------   -----------------  -----------------  -----------------  -----------------
         SI           0.000000000000     0.000000000000     1.291361158942    27.976926534650
         CL           0.000000000000     0.000000000000    -1.033157038407    34.968852682000

  Nuclear repulsion =   54.180765839166114

  ==> Basis Set <==

  Basis Set: CC-PVDZ
    Blend: CC-PVDZ
    Number of shells: 16
    Number of basis functions: 36
    Number of Cartesian functions: 38
    Spherical Harmonics?: true
    Max angular momentum: 2

  ==> DFJKGrad: Density-Fitted SCF Gradients <==

    Gradient:                    1
    J tasked:                  Yes
    K tasked:                  Yes
    wK tasked:                  No
    OpenMP threads:              1
    Integrals threads:           1
    Memory [MiB]:              375
    Schwarz Cutoff:          1E-12
    Fitting Condition:       1E-10

   => Auxiliary Basis Set <=

  Basis Set: (CC-PVDZ AUX)
    Blend: CC-PVDZ-JKFIT
    Number of shells: 72
    Number of basis functions: 224
    Number of Cartesian functions: 260
    Spherical Harmonics?: true
    Max angular momentum: 3

  ==> DFT Potential <==

   => LibXC <=

    Version 6.2.2
    S. Lehtola, C. Steigemann, M. J.T. Oliveira, and M. A.L. Marques.,  SoftwareX 7, 1â€“5 (2018) (10.1016/j.softx.2017.11.002)

   => Composite Functional: B3LYP <=

    B3LYP Hyb-GGA Exchange-Correlation Functional

    P. J. Stephens, F. J. Devlin, C. F. Chabalowski, and M. J. Frisch.,  J. Phys. Chem. 98, 11623 (1994) (10.1021/j100096a001)

    Deriv               =              1
    GGA                 =           TRUE
    Meta                =          FALSE

    Exchange Hybrid     =           TRUE
    MP2 Hybrid          =          FALSE

   => Exchange Functionals <=

    0.0800   Slater exchange
    0.7200         Becke 88

   => Exact (HF) Exchange <=

    0.2000               HF

   => Correlation Functionals <=

    0.1900   Vosko, Wilk & Nusair (VWN5_RPA)
    0.8100   Lee, Yang & Parr

   => LibXC Density Thresholds  <==

    XC_HYB_GGA_XC_B3LYP:  1.00E-15

   => Molecular Quadrature <=

    Radial Scheme          =       TREUTLER
    Pruning Scheme         =           NONE
    Nuclear Scheme         =       TREUTLER

    Blocking Scheme        =         OCTREE
    BS radius alpha        =              1
    Pruning alpha          =              1
    Radial Points          =             75
    Spherical Points       =            302
    Total Points           =          41627
    Total Blocks           =            385
    Max Points             =            256
    Max Functions          =             36
    Weights Tolerance      =       1.00E-15

  -Total Gradient:
     Atom            X                  Y                   Z
    ------   -----------------  -----------------  -----------------
       1        0.000000000000     0.000000000000    -0.000049756044
       2        0.000000000000     0.000000000000     0.000071227337

*** tstop() called on Joses-MacBook-Pro-2.local at Thu Jul 17 11:51:17 2025
Module time:
	user time   =       2.93 seconds =       0.05 minutes
	system time =       0.93 seconds =       0.02 minutes
	total time  =          1 seconds =       0.02 minutes
Total time:
	user time   =     191.87 seconds =       3.20 minutes
	system time =      45.67 seconds =       0.76 minutes
	total time  =         23 seconds =       0.38 minutes

    			-----------------------------------------

    			 OPTKING 3.0: for geometry optimizations

    			     By R.A. King, Bethel University

    			        with contributions from

    			    A.V. Copan, J. Cayton, A. Heide

    			-----------------------------------------

	                            ===> Fragment 1 <==

	 Z (Atomic Numbers)          Masses                          Geom
	      14.000000            27.976927          0.00000000  0.00000000  2.44031892
	      17.000000            34.968853          0.00000000  0.00000000 -1.95238385

	 - Coordinate -           - BOHR/RAD -       - ANG/DEG -
	 R(1,2)           =         4.392703           2.324518

	        --- Internal Coordinate Step in ANG or DEG, aJ/ANG or AJ/DEG ---
	-------------------------------------------------------------------------------
	           Coordinate      Previous         Force          Change          New
	           ----------      --------        ------          ------        ------
	               R(1,2)       2.32452        0.00050        0.00043       2.32494
	-------------------------------------------------------------------------------

	                                 ==> Convergence Check <==

	Measures of convergence in internal coordinates in au.

	Criteria marked as inactive (o), active & met (*), and active & unmet ( ).

	----------------------------------------------------------------------------------------------
	   Step    Total Energy     Delta E     Max Force     RMS Force      Max Disp      RMS Disp
	----------------------------------------------------------------------------------------------
	  Convergence Criteria     1.00e-06 *    3.00e-04 *             o    1.20e-03 *             o
	----------------------------------------------------------------------------------------------
	    16    -749.73645825   -5.66e-07 *    6.05e-05 *    6.05e-05 o    8.04e-04 *    8.04e-04 o  ~
	----------------------------------------------------------------------------------------------

Next Geometry in Ang
	Fragment 1 (Ang)

	   Si   0.0000000000   0.0000000000   1.2915739235
	   Cl   0.0000000000   0.0000000000  -1.0333698030

    Final optimized geometry and variables:
    Molecular point group: c2v
    Full point group: C_inf_v

    Geometry (in Angstrom), charge = -1, multiplicity = 3:

    SI           0.000000000000     0.000000000000     1.291361158942
    CL           0.000000000000     0.000000000000    -1.033157038407

    Psi4 stopped on: Thursday, 17 July 2025 11:51AM
    Psi4 wall time for execution: 0:00:23.06

*** Psi4 exiting successfully. Buy a developer a beer!
