                               Psi4 1.9.1 release

  ==> Input File <==

--------------------------------------------------------------------------
molecule {
-1 3
P   0.00000        0.60000        0.00000
S   0.00000       -0.60000        0.00000
}

set {
basis              cc-pvdz
reference          uks
maxiter            500
geom_maxiter       500
DAMPING_PERCENTAGE 1
guess              SAP
}

optimize('b3lyp')
--------------------------------------------------------------------------

    Molecular point group: c2v
  Charge       = -1
  Multiplicity = 3
  Basis Set: CC-PVDZ
    Blend: CC-PVDZ
  Basis Set: (CC-PVDZ AUX)
    Blend: CC-PVDZ-JKFIT
  @DF-UKS Final Energy:  -738.31724168328685
    Total Energy =                       -738.3172416832868521
 Dipole X            :          0.0000000            0.0000000            0.0000000
 Dipole Y            :          0.0000000            0.0000000            0.0000000
 Dipole Z            :         -0.2109262           -0.5763806           -0.7873067
 Magnitude           :                                                    0.7873067
    Molecular point group: c2v
  Basis Set: CC-PVDZ
    Blend: CC-PVDZ
  Basis Set: (CC-PVDZ AUX)
    Blend: CC-PVDZ-JKFIT
  Basis Set: CC-PVDZ
    Blend: CC-PVDZ
  Basis Set: (CC-PVDZ AUX)
    Blend: CC-PVDZ-JKFIT
  @DF-UKS Final Energy:  -738.35912171291420
    Total Energy =                       -738.3591217129142024
  Basis Set: CC-PVDZ
    Blend: CC-PVDZ
  Basis Set: (CC-PVDZ AUX)
    Blend: CC-PVDZ-JKFIT
  Basis Set: CC-PVDZ
    Blend: CC-PVDZ
  @DF-UKS Final Energy:  -738.43714818266346
    Total Energy =                       -738.4371481826634636
  @DF-UKS Final Energy:  -738.69331259614057
    Total Energy =                       -738.6933125961405722
  @DF-UKS Final Energy:  -739.25328879060658
    Total Energy =                       -739.2532887906065753
  @DF-UKS Final Energy:  -739.43477516194991
    Total Energy =                       -739.4347751619500286
  @DF-UKS Final Energy:  -739.53933860623317
    Total Energy =                       -739.5393386062331729
  @DF-UKS Final Energy:  -739.57588550271089
    Total Energy =                       -739.5758855027107757
  @DF-UKS Final Energy:  -739.59329543056606
    Total Energy =                       -739.5932954305660587
  @DF-UKS Final Energy:  -739.60033043620376
    Total Energy =                       -739.6003304362037625
  @DF-UKS Final Energy:  -739.60190740159874
    Total Energy =                       -739.6019074015987371
  @DF-UKS Final Energy:  -739.60236879610306
    Total Energy =                       -739.6023687961031783
  @DF-UKS Final Energy:  -739.60244202803517
    Total Energy =                       -739.6024420280350569
  Basis Set: (CC-PVDZ AUX)
    Blend: CC-PVDZ-JKFIT
  Basis Set: CC-PVDZ
    Blend: CC-PVDZ
  Basis Set: (CC-PVDZ AUX)
    Blend: CC-PVDZ-JKFIT
  @DF-UKS Final Energy:  -739.60245558178042
    Total Energy =                       -739.6024555817804185
  Basis Set: CC-PVDZ
    Blend: CC-PVDZ
  Basis Set: (CC-PVDZ AUX)
    Blend: CC-PVDZ-JKFIT
  Charge       = -1
  Multiplicity = 3
  Basis Set: CC-PVDZ
    Blend: CC-PVDZ
  Basis Set: (CC-PVDZ AUX)
    Blend: CC-PVDZ-JKFIT

    Orbital Energies [Eh]
    ---------------------

    Alpha Occupied:

       1A1   -88.617448     2A1   -76.846775     3A1    -7.678401
       4A1    -6.314854     5A1    -5.640402     1B1    -5.638394
       1B2    -5.638394     2B2    -4.477523     2B1    -4.477523
       6A1    -4.475156     7A1    -0.476199     8A1    -0.289756
       9A1    -0.080608     3B2    -0.064918     3B1    -0.064918
       4B2     0.046867     4B1     0.046867

    Alpha Virtual:

      10A1     0.251489    11A1     0.529414    12A1     0.597560
       5B1     0.618062     5B2     0.618062     6B2     0.662997
       6B1     0.662997    13A1     0.665229     1A2     0.687106
      14A1     0.687107     7B2     0.741729     7B1     0.741729
       2A2     0.864430    15A1     0.864431    16A1     0.879205
      17A1     0.991815     8B2     1.046275     8B1     1.046275
      18A1     1.391684

    Beta Occupied:

       1A1   -88.614313     2A1   -76.841060     3A1    -7.675232
       4A1    -6.308772     5A1    -5.638795     1B1    -5.632126
       1B2    -5.632126     6A1    -4.471806     2B2    -4.465809
       2B1    -4.465809     7A1    -0.454793     8A1    -0.239986
       9A1    -0.061158     3B2    -0.027419     3B1    -0.027419

    Beta Virtual:

       4B1     0.147399     4B2     0.147399    10A1     0.269332
      11A1     0.541373    12A1     0.615928     5B1     0.644813
       5B2     0.644813    13A1     0.675319     6B1     0.698149
       6B2     0.698149    14A1     0.749398     1A2     0.749398
       7B2     0.758516     7B1     0.758516    15A1     0.894954
       2A2     0.898711    16A1     0.898712    17A1     1.007678
       8B2     1.070918     8B1     1.070918    18A1     1.407426

    Final Occupation by Irrep:
             A1    A2    B1    B2
    DOCC [     9,    0,    3,    3 ]
    SOCC [     0,    0,    1,    1 ]
    NA   [     9,    0,    4,    4 ]
    NB   [     9,    0,    3,    3 ]

  @DF-UKS Final Energy:  -739.60245671060557

   => Energetics <=

    Nuclear Repulsion Energy =             62.0733952423138433
    One-Electron Energy =               -1153.9270049029591974
    Two-Electron Energy =                 391.8620813011590940
    DFT Exchange-Correlation Energy =     -39.6109283511193127
    Empirical Dispersion Energy =           0.0000000000000000
    VV10 Nonlocal Energy =                  0.0000000000000000
    Total Energy =                       -739.6024567106055656

  UHF NO Occupations:
  HONO-2 :    9 A1 1.9990201
  HONO-1 :    4 B2 1.0000000
  HONO-0 :    4 B1 1.0000000
  LUNO+0 :   10 A1 0.0009799
  LUNO+1 :    5 B2 0.0005730
  LUNO+2 :    5 B1 0.0005730
  LUNO+3 :   11 A1 0.0001293

Computation Completed

Properties will be evaluated at   0.000000,   0.000000,   0.000000 [a0]

Properties computed using the SCF density matrix

 Multipole Moments:

 ------------------------------------------------------------------------------------
     Multipole            Electronic (a.u.)      Nuclear  (a.u.)        Total (a.u.)
 ------------------------------------------------------------------------------------

 L = 1.  Multiply by 2.5417464519 to convert [e a0] to [Debye]
 Dipole X            :          0.0000000            0.0000000            0.0000000
 Dipole Y            :          0.0000000            0.0000000            0.0000000
 Dipole Z            :          1.0284435           -0.9827317            0.0457118
 Magnitude           :                                                    0.0457118

 ------------------------------------------------------------------------------------

*** tstop() called on Joses-MacBook-Pro-2.local at Thu Jul 17 12:01:20 2025
Module time:
	user time   =       6.97 seconds =       0.12 minutes
	system time =       2.01 seconds =       0.03 minutes
	total time  =          1 seconds =       0.02 minutes
Total time:
	user time   =     177.20 seconds =       2.95 minutes
	system time =      41.10 seconds =       0.69 minutes
	total time  =         21 seconds =       0.35 minutes

*** tstart() called on Joses-MacBook-Pro-2.local
*** at Thu Jul 17 12:01:20 2025

         ------------------------------------------------------------
                                   SCF GRAD
                          Rob Parrish, Justin Turney,
                       Andy Simmonett, and Alex Sokolov
         ------------------------------------------------------------

  ==> Geometry <==

    Molecular point group: c2v
    Full point group: C_inf_v

    Geometry (in Angstrom), charge = -1, multiplicity = 3:

       Center              X                  Y                   Z               Mass
    ------------   -----------------  -----------------  -----------------  -----------------
         P            0.000000000000     0.000000000000     1.039227566886    30.973761998420
         S            0.000000000000     0.000000000000    -1.006778295449    31.972071174400

  Nuclear repulsion =   62.073395242313843

  ==> Basis Set <==

  Basis Set: CC-PVDZ
    Blend: CC-PVDZ
    Number of shells: 16
    Number of basis functions: 36
    Number of Cartesian functions: 38
    Spherical Harmonics?: true
    Max angular momentum: 2

  ==> DFJKGrad: Density-Fitted SCF Gradients <==

    Gradient:                    1
    J tasked:                  Yes
    K tasked:                  Yes
    wK tasked:                  No
    OpenMP threads:              1
    Integrals threads:           1
    Memory [MiB]:              375
    Schwarz Cutoff:          1E-12
    Fitting Condition:       1E-10

   => Auxiliary Basis Set <=

  Basis Set: (CC-PVDZ AUX)
    Blend: CC-PVDZ-JKFIT
    Number of shells: 72
    Number of basis functions: 224
    Number of Cartesian functions: 260
    Spherical Harmonics?: true
    Max angular momentum: 3

  ==> DFT Potential <==

   => LibXC <=

    Version 6.2.2
    S. Lehtola, C. Steigemann, M. J.T. Oliveira, and M. A.L. Marques.,  SoftwareX 7, 1â€“5 (2018) (10.1016/j.softx.2017.11.002)

   => Composite Functional: B3LYP <=

    B3LYP Hyb-GGA Exchange-Correlation Functional

    P. J. Stephens, F. J. Devlin, C. F. Chabalowski, and M. J. Frisch.,  J. Phys. Chem. 98, 11623 (1994) (10.1021/j100096a001)

    Deriv               =              1
    GGA                 =           TRUE
    Meta                =          FALSE

    Exchange Hybrid     =           TRUE
    MP2 Hybrid          =          FALSE

   => Exchange Functionals <=

    0.0800   Slater exchange
    0.7200         Becke 88

   => Exact (HF) Exchange <=

    0.2000               HF

   => Correlation Functionals <=

    0.1900   Vosko, Wilk & Nusair (VWN5_RPA)
    0.8100   Lee, Yang & Parr

   => LibXC Density Thresholds  <==

    XC_HYB_GGA_XC_B3LYP:  1.00E-15

   => Molecular Quadrature <=

    Radial Scheme          =       TREUTLER
    Pruning Scheme         =           NONE
    Nuclear Scheme         =       TREUTLER

    Blocking Scheme        =         OCTREE
    BS radius alpha        =              1
    Pruning alpha          =              1
    Radial Points          =             75
    Spherical Points       =            302
    Total Points           =          40834
    Total Blocks           =            364
    Max Points             =            256
    Max Functions          =             36
    Weights Tolerance      =       1.00E-15

  -Total Gradient:
     Atom            X                  Y                   Z
    ------   -----------------  -----------------  -----------------
       1        0.000000000000     0.000000000000    -0.000102917091
       2        0.000000000000     0.000000000000     0.000110619046

*** tstop() called on Joses-MacBook-Pro-2.local at Thu Jul 17 12:01:20 2025
Module time:
	user time   =       2.24 seconds =       0.04 minutes
	system time =       1.49 seconds =       0.02 minutes
	total time  =          0 seconds =       0.00 minutes
Total time:
	user time   =     179.44 seconds =       2.99 minutes
	system time =      42.59 seconds =       0.71 minutes
	total time  =         21 seconds =       0.35 minutes

    			-----------------------------------------

    			 OPTKING 3.0: for geometry optimizations

    			     By R.A. King, Bethel University

    			        with contributions from

    			    A.V. Copan, J. Cayton, A. Heide

    			-----------------------------------------

	                            ===> Fragment 1 <==

	 Z (Atomic Numbers)          Masses                          Geom
	      15.000000            30.973762          0.00000000  0.00000000  1.96385548
	      16.000000            31.972071          0.00000000  0.00000000 -1.90253525

	 - Coordinate -           - BOHR/RAD -       - ANG/DEG -
	 R(1,2)           =         3.866391           2.046006

	        --- Internal Coordinate Step in ANG or DEG, aJ/ANG or AJ/DEG ---
	-------------------------------------------------------------------------------
	           Coordinate      Previous         Force          Change          New
	           ----------      --------        ------          ------        ------
	               R(1,2)       2.04601        0.00088        0.00025       2.04626
	-------------------------------------------------------------------------------

	                                 ==> Convergence Check <==

	Measures of convergence in internal coordinates in au.

	Criteria marked as inactive (o), active & met (*), and active & unmet ( ).

	----------------------------------------------------------------------------------------------
	   Step    Total Energy     Delta E     Max Force     RMS Force      Max Disp      RMS Disp
	----------------------------------------------------------------------------------------------
	  Convergence Criteria     1.00e-06 *    3.00e-04 *             o    1.20e-03 *             o
	----------------------------------------------------------------------------------------------
	    15    -739.60245671   -1.13e-06      1.07e-04 *    1.07e-04 o    4.72e-04 *    4.72e-04 o  ~
	----------------------------------------------------------------------------------------------

Next Geometry in Ang
	Fragment 1 (Ang)

	    P   0.0000000000   0.0000000000   1.0393523629
	    S   0.0000000000   0.0000000000  -1.0069030915

    Final optimized geometry and variables:
    Molecular point group: c2v
    Full point group: C_inf_v

    Geometry (in Angstrom), charge = -1, multiplicity = 3:

    P            0.000000000000     0.000000000000     1.039227566886
    S            0.000000000000     0.000000000000    -1.006778295449

    Psi4 stopped on: Thursday, 17 July 2025 12:01PM
    Psi4 wall time for execution: 0:00:21.51

*** Psi4 exiting successfully. Buy a developer a beer!
