                               Psi4 1.9.1 release

  ==> Input File <==

--------------------------------------------------------------------------
molecule {
-1 3
He   0.00000        0.60000        0.00000
P   0.00000       -0.60000        0.00000
}

set {
basis              cc-pvdz
reference          uks
maxiter            500
geom_maxiter       500
DAMPING_PERCENTAGE 1
guess              SAP
}

optimize('b3lyp')
--------------------------------------------------------------------------

    Molecular point group: c2v
  Charge       = -1
  Multiplicity = 3
  Basis Set: CC-PVDZ
    Blend: CC-PVDZ
  Basis Set: (CC-PVDZ AUX)
    Blend: CC-PVDZ-JKFIT + DEF2-UNIVERSAL-JKFIT
  @DF-UKS Final Energy:  -343.88595291117798
    Total Energy =                       -343.8859529111779807
 Dipole X            :          0.0000000            0.0000000            0.0000000
 Dipole Y            :          0.0000000            0.0000000            0.0000000
 Dipole Z            :          1.1652780            0.1237348            1.2890128
 Magnitude           :                                                    1.2890128
    Molecular point group: c2v
  Basis Set: CC-PVDZ
    Blend: CC-PVDZ
  Basis Set: (CC-PVDZ AUX)
    Blend: CC-PVDZ-JKFIT + DEF2-UNIVERSAL-JKFIT
  Basis Set: CC-PVDZ
    Blend: CC-PVDZ
  Basis Set: (CC-PVDZ AUX)
    Blend: CC-PVDZ-JKFIT + DEF2-UNIVERSAL-JKFIT
  @DF-UKS Final Energy:  -344.02928247866430
    Total Energy =                       -344.0292824786642996
  Basis Set: CC-PVDZ
    Blend: CC-PVDZ
  Basis Set: (CC-PVDZ AUX)
    Blend: CC-PVDZ-JKFIT + DEF2-UNIVERSAL-JKFIT
  Basis Set: CC-PVDZ
    Blend: CC-PVDZ
  @DF-UKS Final Energy:  -344.10450110880367
    Total Energy =                       -344.1045011088036745
  @DF-UKS Final Energy:  -344.14302352622070
    Total Energy =                       -344.1430235262207020
  @DF-UKS Final Energy:  -344.16271387139858
    Total Energy =                       -344.1627138713986369
  @DF-UKS Final Energy:  -344.17309198802593
    Total Energy =                       -344.1730919880259307
  @DF-UKS Final Energy:  -344.17863834583113
    Total Energy =                       -344.1786383458310752
  @DF-UKS Final Energy:  -344.18160258428151
    Total Energy =                       -344.1816025842815066
  @DF-UKS Final Energy:  -344.18315645284736
    Total Energy =                       -344.1831564528473564
  @DF-UKS Final Energy:  -344.18394199450080
    Total Energy =                       -344.1839419945007990
  @DF-UKS Final Energy:  -344.18432112158604
    Total Energy =                       -344.1843211215859810
  @DF-UKS Final Energy:  -344.18449591631173
    Total Energy =                       -344.1844959163117892
  @DF-UKS Final Energy:  -344.18457327975381
    Total Energy =                       -344.1845732797538062
  @DF-UKS Final Energy:  -344.18460693128566
    Total Energy =                       -344.1846069312856571
  @DF-UKS Final Energy:  -344.18462147363851
    Total Energy =                       -344.1846214736385150
  @DF-UKS Final Energy:  -344.18462827573228
    Total Energy =                       -344.1846282757322797
  @DF-UKS Final Energy:  -344.18463104169177
    Total Energy =                       -344.1846310416917731
  @DF-UKS Final Energy:  -344.18463247329532
    Total Energy =                       -344.1846324732953235
  Basis Set: (CC-PVDZ AUX)
    Blend: CC-PVDZ-JKFIT + DEF2-UNIVERSAL-JKFIT
  Basis Set: CC-PVDZ
    Blend: CC-PVDZ
  Basis Set: (CC-PVDZ AUX)
    Blend: CC-PVDZ-JKFIT + DEF2-UNIVERSAL-JKFIT
  @DF-UKS Final Energy:  -344.18463571784844
    Total Energy =                       -344.1846357178484368
  Basis Set: CC-PVDZ
    Blend: CC-PVDZ
  Basis Set: (CC-PVDZ AUX)
    Blend: CC-PVDZ-JKFIT + DEF2-UNIVERSAL-JKFIT
  Charge       = -1
  Multiplicity = 3
  Basis Set: CC-PVDZ
    Blend: CC-PVDZ
  Basis Set: (CC-PVDZ AUX)
    Blend: CC-PVDZ-JKFIT + DEF2-UNIVERSAL-JKFIT

    Orbital Energies [Eh]
    ---------------------

    Alpha Occupied:

       1A1   -76.772667     2A1    -6.238501     3A1    -4.405486
       1B2    -4.405486     1B1    -4.391836     4A1    -0.543937
       5A1    -0.255569     6A1     0.048987     2B2     0.048988
       2B1     0.088388

    Alpha Virtual:

       7A1     0.617301     8A1     0.680415     3B2     0.680442
       3B1     0.710000     9A1     0.746197     4B2     0.746198
       4B1     0.778559     1A2     0.778562    10A1     0.790436
      11A1     1.224425     5B2     2.294955     5B1     2.294979
      12A1     2.295663

    Beta Occupied:

       1A1   -76.766007     2A1    -6.231401     1B2    -4.391703
       3A1    -4.391703     1B1    -4.387812     4A1    -0.543939
       5A1    -0.182219     2B1     0.108655

    Beta Virtual:

       2B2     0.176247     6A1     0.176262     7A1     0.648318
       3B1     0.721421     3B2     0.727046     8A1     0.727053
       4B1     0.824561     1A2     0.824564     9A1     0.827233
      10A1     0.834633     4B2     0.834634    11A1     1.224401
       5B2     2.294956     5B1     2.294980    12A1     2.295664

    Final Occupation by Irrep:
             A1    A2    B1    B2
    DOCC [     5,    0,    2,    1 ]
    SOCC [     1,    0,    0,    1 ]
    NA   [     6,    0,    2,    2 ]
    NB   [     5,    0,    2,    1 ]

  @DF-UKS Final Energy:  -344.18464021265146

   => Energetics <=

    Nuclear Repulsion Energy =              3.2324245149846553
    One-Electron Energy =                -487.1496886750994122
    Two-Electron Energy =                 159.4820690743340492
    DFT Exchange-Correlation Energy =     -19.7494451268707465
    Empirical Dispersion Energy =           0.0000000000000000
    VV10 Nonlocal Energy =                  0.0000000000000000
    Total Energy =                       -344.1846402126514590

  UHF NO Occupations:
  HONO-2 :    5 A1 1.9989775
  HONO-1 :    2 B2 1.0000000
  HONO-0 :    6 A1 1.0000000
  LUNO+0 :    7 A1 0.0010225
  LUNO+1 :    3 B1 0.0000522
  LUNO+2 :    8 A1 0.0000000
  LUNO+3 :    9 A1 0.0000000

Computation Completed

Properties will be evaluated at   0.000000,   0.000000,   0.000000 [a0]

Properties computed using the SCF density matrix

 Multipole Moments:

 ------------------------------------------------------------------------------------
     Multipole            Electronic (a.u.)      Nuclear  (a.u.)        Total (a.u.)
 ------------------------------------------------------------------------------------

 L = 1.  Multiply by 2.5417464519 to convert [e a0] to [Debye]
 Dipole X            :          0.0000000            0.0000000            0.0000000
 Dipole Y            :          0.0000000            0.0000000            0.0000000
 Dipole Z            :          0.5521676            0.5064128            1.0585804
 Magnitude           :                                                    1.0585804

 ------------------------------------------------------------------------------------

*** tstop() called on Joses-MacBook-Pro-2.local at Thu Jul 17 09:24:29 2025
Module time:
	user time   =       2.05 seconds =       0.03 minutes
	system time =       2.21 seconds =       0.04 minutes
	total time  =          0 seconds =       0.00 minutes
Total time:
	user time   =      77.52 seconds =       1.29 minutes
	system time =      82.29 seconds =       1.37 minutes
	total time  =         15 seconds =       0.25 minutes

*** tstart() called on Joses-MacBook-Pro-2.local
*** at Thu Jul 17 09:24:29 2025

         ------------------------------------------------------------
                                   SCF GRAD
                          Rob Parrish, Justin Turney,
                       Andy Simmonett, and Alex Sokolov
         ------------------------------------------------------------

  ==> Geometry <==

    Molecular point group: c2v
    Full point group: C_inf_v

    Geometry (in Angstrom), charge = -1, multiplicity = 3:

       Center              X                  Y                   Z               Mass
    ------------   -----------------  -----------------  -----------------  -----------------
         HE           0.000000000000     0.000000000000     4.349239032874     4.002603254130
         P            0.000000000000     0.000000000000    -0.562033062269    30.973761998420

  Nuclear repulsion =    3.232424514984655

  ==> Basis Set <==

  Basis Set: CC-PVDZ
    Blend: CC-PVDZ
    Number of shells: 11
    Number of basis functions: 23
    Number of Cartesian functions: 24
    Spherical Harmonics?: true
    Max angular momentum: 2

  ==> DFJKGrad: Density-Fitted SCF Gradients <==

    Gradient:                    1
    J tasked:                  Yes
    K tasked:                  Yes
    wK tasked:                  No
    OpenMP threads:              1
    Integrals threads:           1
    Memory [MiB]:              375
    Schwarz Cutoff:          1E-12
    Fitting Condition:       1E-10

   => Auxiliary Basis Set <=

  Basis Set: (CC-PVDZ AUX)
    Blend: CC-PVDZ-JKFIT + DEF2-UNIVERSAL-JKFIT
    Number of shells: 45
    Number of basis functions: 135
    Number of Cartesian functions: 155
    Spherical Harmonics?: true
    Max angular momentum: 3

  ==> DFT Potential <==

   => LibXC <=

    Version 6.2.2
    S. Lehtola, C. Steigemann, M. J.T. Oliveira, and M. A.L. Marques.,  SoftwareX 7, 1â€“5 (2018) (10.1016/j.softx.2017.11.002)

   => Composite Functional: B3LYP <=

    B3LYP Hyb-GGA Exchange-Correlation Functional

    P. J. Stephens, F. J. Devlin, C. F. Chabalowski, and M. J. Frisch.,  J. Phys. Chem. 98, 11623 (1994) (10.1021/j100096a001)

    Deriv               =              1
    GGA                 =           TRUE
    Meta                =          FALSE

    Exchange Hybrid     =           TRUE
    MP2 Hybrid          =          FALSE

   => Exchange Functionals <=

    0.0800   Slater exchange
    0.7200         Becke 88

   => Exact (HF) Exchange <=

    0.2000               HF

   => Correlation Functionals <=

    0.1900   Vosko, Wilk & Nusair (VWN5_RPA)
    0.8100   Lee, Yang & Parr

   => LibXC Density Thresholds  <==

    XC_HYB_GGA_XC_B3LYP:  1.00E-15

   => Molecular Quadrature <=

    Radial Scheme          =       TREUTLER
    Pruning Scheme         =           NONE
    Nuclear Scheme         =       TREUTLER

    Blocking Scheme        =         OCTREE
    BS radius alpha        =              1
    Pruning alpha          =              1
    Radial Points          =             75
    Spherical Points       =            302
    Total Points           =          42876
    Total Blocks           =            432
    Max Points             =            255
    Max Functions          =             23
    Weights Tolerance      =       1.00E-15

  -Total Gradient:
     Atom            X                  Y                   Z
    ------   -----------------  -----------------  -----------------
       1        0.000000000000     0.000000000000    -0.000013665354
       2        0.000000000000     0.000000000000     0.000005384848

*** tstop() called on Joses-MacBook-Pro-2.local at Thu Jul 17 09:24:29 2025
Module time:
	user time   =       0.61 seconds =       0.01 minutes
	system time =       0.87 seconds =       0.01 minutes
	total time  =          0 seconds =       0.00 minutes
Total time:
	user time   =      78.13 seconds =       1.30 minutes
	system time =      83.16 seconds =       1.39 minutes
	total time  =         15 seconds =       0.25 minutes

    			-----------------------------------------

    			 OPTKING 3.0: for geometry optimizations

    			     By R.A. King, Bethel University

    			        with contributions from

    			    A.V. Copan, J. Cayton, A. Heide

    			-----------------------------------------

	                            ===> Fragment 1 <==

	 Z (Atomic Numbers)          Masses                          Geom
	       2.000000             4.002603          0.00000000  0.00000000  8.21887063
	      15.000000            30.973762          0.00000000  0.00000000 -1.06208856

	 - Coordinate -           - BOHR/RAD -       - ANG/DEG -
	 R(1,2)           =         9.280959           4.911272

	        --- Internal Coordinate Step in ANG or DEG, aJ/ANG or AJ/DEG ---
	-------------------------------------------------------------------------------
	           Coordinate      Previous         Force          Change          New
	           ----------      --------        ------          ------        ------
	               R(1,2)       4.91127        0.00008        0.00009       4.91136
	-------------------------------------------------------------------------------

	                                 ==> Convergence Check <==

	Measures of convergence in internal coordinates in au.

	Criteria marked as inactive (o), active & met (*), and active & unmet ( ).

	----------------------------------------------------------------------------------------------
	   Step    Total Energy     Delta E     Max Force     RMS Force      Max Disp      RMS Disp
	----------------------------------------------------------------------------------------------
	  Convergence Criteria     1.00e-06 *    3.00e-04 *             o    1.20e-03 *             o
	----------------------------------------------------------------------------------------------
	    20    -344.18464021   -4.49e-06      9.53e-06 *    9.53e-06 o    1.76e-04 *    1.76e-04 o  ~
	----------------------------------------------------------------------------------------------

Next Geometry in Ang
	Fragment 1 (Ang)

	   He   0.0000000000   0.0000000000   4.3492854783
	    P   0.0000000000   0.0000000000  -0.5620795077

    Final optimized geometry and variables:
    Molecular point group: c2v
    Full point group: C_inf_v

    Geometry (in Angstrom), charge = -1, multiplicity = 3:

    HE           0.000000000000     0.000000000000     4.349239032874
    P            0.000000000000     0.000000000000    -0.562033062269

    Psi4 stopped on: Thursday, 17 July 2025 09:24AM
    Psi4 wall time for execution: 0:00:16.05

*** Psi4 exiting successfully. Buy a developer a beer!
