                               Psi4 1.9.1 release

  ==> Input File <==

--------------------------------------------------------------------------
molecule {
-1 3
Mg   0.00000        0.60000        0.00000
P   0.00000       -0.60000        0.00000
}

set {
basis              cc-pvdz
reference          uks
maxiter            500
geom_maxiter       500
DAMPING_PERCENTAGE 1
guess              SAP
}

optimize('b3lyp')
--------------------------------------------------------------------------

    Molecular point group: c2v
  Charge       = -1
  Multiplicity = 3
  Basis Set: CC-PVDZ
    Blend: CC-PVDZ
  Basis Set: (CC-PVDZ AUX)
    Blend: CC-PVDZ-JKFIT + DEF2-UNIVERSAL-JKFIT
  @DF-UKS Final Energy:  -540.38941597866256
    Total Energy =                       -540.3894159786625551
 Dipole X            :          0.0000000            0.0000000            0.0000000
 Dipole Y            :          0.0000000            0.0000000            0.0000000
 Dipole Z            :         -1.3511042            0.4914021           -0.8597020
 Magnitude           :                                                    0.8597020
    Molecular point group: c2v
  Basis Set: CC-PVDZ
    Blend: CC-PVDZ
  Basis Set: (CC-PVDZ AUX)
    Blend: CC-PVDZ-JKFIT + DEF2-UNIVERSAL-JKFIT
  Basis Set: CC-PVDZ
    Blend: CC-PVDZ
  Basis Set: (CC-PVDZ AUX)
    Blend: CC-PVDZ-JKFIT + DEF2-UNIVERSAL-JKFIT
  @DF-UKS Final Energy:  -540.40385911486021
    Total Energy =                       -540.4038591148602109
  Basis Set: CC-PVDZ
    Blend: CC-PVDZ
  Basis Set: (CC-PVDZ AUX)
    Blend: CC-PVDZ-JKFIT + DEF2-UNIVERSAL-JKFIT
  Basis Set: CC-PVDZ
    Blend: CC-PVDZ
  @DF-UKS Final Energy:  -540.43175077152773
    Total Energy =                       -540.4317507715277316
  @DF-UKS Final Energy:  -540.53299914775471
    Total Energy =                       -540.5329991477547082
  @DF-UKS Final Energy:  -540.97449271418964
    Total Energy =                       -540.9744927141896369
  @DF-UKS Final Energy:  -541.19660078039362
    Total Energy =                       -541.1966007803936236
  @DF-UKS Final Energy:  -541.30940744114514
    Total Energy =                       -541.3094074411451402
  @DF-UKS Final Energy:  -541.35488988243947
    Total Energy =                       -541.3548898824394655
  @DF-UKS Final Energy:  -541.41930777786399
    Total Energy =                       -541.4193077778639918
  @DF-UKS Final Energy:  -541.43547811644828
    Total Energy =                       -541.4354781164482802
  @DF-UKS Final Energy:  -541.43586754191949
    Total Energy =                       -541.4358675419194924
  Basis Set: (CC-PVDZ AUX)
    Blend: CC-PVDZ-JKFIT + DEF2-UNIVERSAL-JKFIT
  Basis Set: CC-PVDZ
    Blend: CC-PVDZ
  Basis Set: (CC-PVDZ AUX)
    Blend: CC-PVDZ-JKFIT + DEF2-UNIVERSAL-JKFIT
  @DF-UKS Final Energy:  -541.43596961324783
    Total Energy =                       -541.4359696132478348
  Basis Set: CC-PVDZ
    Blend: CC-PVDZ
  Basis Set: (CC-PVDZ AUX)
    Blend: CC-PVDZ-JKFIT + DEF2-UNIVERSAL-JKFIT
  Charge       = -1
  Multiplicity = 3
  Basis Set: CC-PVDZ
    Blend: CC-PVDZ
  Basis Set: (CC-PVDZ AUX)
    Blend: CC-PVDZ-JKFIT + DEF2-UNIVERSAL-JKFIT

    Orbital Energies [Eh]
    ---------------------

    Alpha Occupied:

       1A1   -76.849450     2A1   -46.631710     3A1    -6.317216
       1B1    -4.484453     4A1    -4.479562     1B2    -4.473247
       5A1    -2.915645     2B1    -1.660426     2B2    -1.658996
       6A1    -1.658509     7A1    -0.336811     8A1    -0.063383
       3B1    -0.025650     3B2     0.006612     9A1     0.013178

    Alpha Virtual:

       4B1     0.131408     4B2     0.139080    10A1     0.178371
      11A1     0.247709     5B1     0.312250     5B2     0.317571
      12A1     0.364769     6B1     0.472544     6B2     0.484671
      13A1     0.491241     1A2     0.491978    14A1     0.502582
       7B1     0.640118     7B2     0.665147    15A1     0.683008
       2A2     0.710103    16A1     0.713348    17A1     0.766706
       8B1     0.817684     8B2     0.840432    18A1     1.111079

    Beta Occupied:

       1A1   -76.844103     2A1   -46.630883     3A1    -6.311524
       1B1    -4.471820     4A1    -4.470703     1B2    -4.469431
       5A1    -2.914449     2B1    -1.659508     2B2    -1.658591
       6A1    -1.655657     7A1    -0.282362     8A1    -0.028807
       3B2     0.022579

    Beta Virtual:

       3B1     0.080145     9A1     0.083755     4B2     0.147782
       4B1     0.155828    10A1     0.189165    11A1     0.258631
       5B2     0.319240     5B1     0.319381    12A1     0.386662
       1A2     0.497425    13A1     0.497785     6B2     0.502606
       6B1     0.504735    14A1     0.526854     7B2     0.676961
       7B1     0.682903    15A1     0.711618     2A2     0.753403
      16A1     0.756875    17A1     0.791358     8B2     0.861174
       8B1     0.865733    18A1     1.138232

    Final Occupation by Irrep:
             A1    A2    B1    B2
    DOCC [     8,    0,    2,    3 ]
    SOCC [     1,    0,    1,    0 ]
    NA   [     9,    0,    3,    3 ]
    NB   [     8,    0,    2,    3 ]

  @DF-UKS Final Energy:  -541.43597115028933

   => Energetics <=

    Nuclear Repulsion Energy =             39.2016883216305914
    One-Electron Energy =                -835.4550316050958827
    Two-Electron Energy =                 286.9570939547538160
    DFT Exchange-Correlation Energy =     -32.1397218215778437
    Empirical Dispersion Energy =           0.0000000000000000
    VV10 Nonlocal Energy =                  0.0000000000000000
    Total Energy =                       -541.4359711502893333

  UHF NO Occupations:
  HONO-2 :    8 A1 1.9962305
  HONO-1 :    3 B1 1.0000000
  HONO-0 :    9 A1 1.0000000
  LUNO+0 :   10 A1 0.0037695
  LUNO+1 :    4 B2 0.0022619
  LUNO+2 :   11 A1 0.0006200
  LUNO+3 :    5 B2 0.0000002

Computation Completed

Properties will be evaluated at   0.000000,   0.000000,   0.000000 [a0]

Properties computed using the SCF density matrix

 Multipole Moments:

 ------------------------------------------------------------------------------------
     Multipole            Electronic (a.u.)      Nuclear  (a.u.)        Total (a.u.)
 ------------------------------------------------------------------------------------

 L = 1.  Multiply by 2.5417464519 to convert [e a0] to [Debye]
 Dipole X            :          0.0000000            0.0000000            0.0000000
 Dipole Y            :          0.0000000            0.0000000            0.0000000
 Dipole Z            :         -1.3935257            0.9950036           -0.3985221
 Magnitude           :                                                    0.3985221

 ------------------------------------------------------------------------------------

*** tstop() called on Joses-MacBook-Pro-2.local at Thu Jul 17 11:27:14 2025
Module time:
	user time   =       9.93 seconds =       0.17 minutes
	system time =       2.35 seconds =       0.04 minutes
	total time  =          1 seconds =       0.02 minutes
Total time:
	user time   =     301.78 seconds =       5.03 minutes
	system time =      70.51 seconds =       1.18 minutes
	total time  =         38 seconds =       0.63 minutes

*** tstart() called on Joses-MacBook-Pro-2.local
*** at Thu Jul 17 11:27:14 2025

         ------------------------------------------------------------
                                   SCF GRAD
                          Rob Parrish, Justin Turney,
                       Andy Simmonett, and Alex Sokolov
         ------------------------------------------------------------

  ==> Geometry <==

    Molecular point group: c2v
    Full point group: C_inf_v

    Geometry (in Angstrom), charge = -1, multiplicity = 3:

       Center              X                  Y                   Z               Mass
    ------------   -----------------  -----------------  -----------------  -----------------
         MG           0.000000000000     0.000000000000     1.369384956643    23.985041697000
         P            0.000000000000     0.000000000000    -1.060405748775    30.973761998420

  Nuclear repulsion =   39.201688321630591

  ==> Basis Set <==

  Basis Set: CC-PVDZ
    Blend: CC-PVDZ
    Number of shells: 16
    Number of basis functions: 36
    Number of Cartesian functions: 38
    Spherical Harmonics?: true
    Max angular momentum: 2

  ==> DFJKGrad: Density-Fitted SCF Gradients <==

    Gradient:                    1
    J tasked:                  Yes
    K tasked:                  Yes
    wK tasked:                  No
    OpenMP threads:              1
    Integrals threads:           1
    Memory [MiB]:              375
    Schwarz Cutoff:          1E-12
    Fitting Condition:       1E-10

   => Auxiliary Basis Set <=

  Basis Set: (CC-PVDZ AUX)
    Blend: CC-PVDZ-JKFIT + DEF2-UNIVERSAL-JKFIT
    Number of shells: 70
    Number of basis functions: 224
    Number of Cartesian functions: 267
    Spherical Harmonics?: true
    Max angular momentum: 4

  ==> DFT Potential <==

   => LibXC <=

    Version 6.2.2
    S. Lehtola, C. Steigemann, M. J.T. Oliveira, and M. A.L. Marques.,  SoftwareX 7, 1â€“5 (2018) (10.1016/j.softx.2017.11.002)

   => Composite Functional: B3LYP <=

    B3LYP Hyb-GGA Exchange-Correlation Functional

    P. J. Stephens, F. J. Devlin, C. F. Chabalowski, and M. J. Frisch.,  J. Phys. Chem. 98, 11623 (1994) (10.1021/j100096a001)

    Deriv               =              1
    GGA                 =           TRUE
    Meta                =          FALSE

    Exchange Hybrid     =           TRUE
    MP2 Hybrid          =          FALSE

   => Exchange Functionals <=

    0.0800   Slater exchange
    0.7200         Becke 88

   => Exact (HF) Exchange <=

    0.2000               HF

   => Correlation Functionals <=

    0.1900   Vosko, Wilk & Nusair (VWN5_RPA)
    0.8100   Lee, Yang & Parr

   => LibXC Density Thresholds  <==

    XC_HYB_GGA_XC_B3LYP:  1.00E-15

   => Molecular Quadrature <=

    Radial Scheme          =       TREUTLER
    Pruning Scheme         =           NONE
    Nuclear Scheme         =       TREUTLER

    Blocking Scheme        =         OCTREE
    BS radius alpha        =              1
    Pruning alpha          =              1
    Radial Points          =             75
    Spherical Points       =            302
    Total Points           =          43012
    Total Blocks           =            419
    Max Points             =            256
    Max Functions          =             36
    Weights Tolerance      =       1.00E-15

  -Total Gradient:
     Atom            X                  Y                   Z
    ------   -----------------  -----------------  -----------------
       1        0.000000000000     0.000000000000    -0.000038646669
       2        0.000000000000     0.000000000000     0.000081841517

*** tstop() called on Joses-MacBook-Pro-2.local at Thu Jul 17 11:27:14 2025
Module time:
	user time   =       2.34 seconds =       0.04 minutes
	system time =       1.60 seconds =       0.03 minutes
	total time  =          0 seconds =       0.00 minutes
Total time:
	user time   =     304.12 seconds =       5.07 minutes
	system time =      72.11 seconds =       1.20 minutes
	total time  =         38 seconds =       0.63 minutes

    			-----------------------------------------

    			 OPTKING 3.0: for geometry optimizations

    			     By R.A. King, Bethel University

    			        with contributions from

    			    A.V. Copan, J. Cayton, A. Heide

    			-----------------------------------------

	                            ===> Fragment 1 <==

	 Z (Atomic Numbers)          Masses                          Geom
	      12.000000            23.985042          0.00000000  0.00000000  2.58776253
	      15.000000            30.973762          0.00000000  0.00000000 -2.00387645

	 - Coordinate -           - BOHR/RAD -       - ANG/DEG -
	 R(1,2)           =         4.591639           2.429791

	        --- Internal Coordinate Step in ANG or DEG, aJ/ANG or AJ/DEG ---
	-------------------------------------------------------------------------------
	           Coordinate      Previous         Force          Change          New
	           ----------      --------        ------          ------        ------
	               R(1,2)       2.42979        0.00050        0.00045       2.43024
	-------------------------------------------------------------------------------

	                                 ==> Convergence Check <==

	Measures of convergence in internal coordinates in au.

	Criteria marked as inactive (o), active & met (*), and active & unmet ( ).

	----------------------------------------------------------------------------------------------
	   Step    Total Energy     Delta E     Max Force     RMS Force      Max Disp      RMS Disp
	----------------------------------------------------------------------------------------------
	  Convergence Criteria     1.00e-06 *    3.00e-04 *             o    1.20e-03 *             o
	----------------------------------------------------------------------------------------------
	    13    -541.43597115   -1.54e-06      6.02e-05 *    6.02e-05 o    8.50e-04 *    8.50e-04 o  ~
	----------------------------------------------------------------------------------------------

Next Geometry in Ang
	Fragment 1 (Ang)

	   Mg   0.0000000000   0.0000000000   1.3696098065
	    P   0.0000000000   0.0000000000  -1.0606305987

    Final optimized geometry and variables:
    Molecular point group: c2v
    Full point group: C_inf_v

    Geometry (in Angstrom), charge = -1, multiplicity = 3:

    MG           0.000000000000     0.000000000000     1.369384956643
    P            0.000000000000     0.000000000000    -1.060405748775

    Psi4 stopped on: Thursday, 17 July 2025 11:27AM
    Psi4 wall time for execution: 0:00:38.83

*** Psi4 exiting successfully. Buy a developer a beer!
