                               Psi4 1.9.1 release

  ==> Input File <==

--------------------------------------------------------------------------
molecule {
-1 3
C   0.00000        0.60000        0.00000
Na   0.00000       -0.60000        0.00000
}

set {
basis              cc-pvdz
reference          uks
maxiter            500
geom_maxiter       500
DAMPING_PERCENTAGE 1
guess              SAP
}

optimize('b3lyp')
--------------------------------------------------------------------------

    Molecular point group: c2v
  Charge       = -1
  Multiplicity = 3
  Basis Set: CC-PVDZ
    Blend: CC-PVDZ
  Basis Set: (CC-PVDZ AUX)
    Blend: CC-PVDZ-JKFIT + DEF2-UNIVERSAL-JKFIT
  @DF-UKS Final Energy:  -199.79958160041747
    Total Energy =                       -199.7995816004174685
 Dipole X            :          0.0000000            0.0000000            0.0000000
 Dipole Y            :          0.0000000            0.0000000            0.0000000
 Dipole Z            :          0.6722042            0.3848790            1.0570832
 Magnitude           :                                                    1.0570832
    Molecular point group: c2v
  Basis Set: CC-PVDZ
    Blend: CC-PVDZ
  Basis Set: (CC-PVDZ AUX)
    Blend: CC-PVDZ-JKFIT + DEF2-UNIVERSAL-JKFIT
  Basis Set: CC-PVDZ
    Blend: CC-PVDZ
  Basis Set: (CC-PVDZ AUX)
    Blend: CC-PVDZ-JKFIT + DEF2-UNIVERSAL-JKFIT
  @DF-UKS Final Energy:  -199.89758891917668
    Total Energy =                       -199.8975889191767124
  Basis Set: CC-PVDZ
    Blend: CC-PVDZ
  Basis Set: (CC-PVDZ AUX)
    Blend: CC-PVDZ-JKFIT + DEF2-UNIVERSAL-JKFIT
  Basis Set: CC-PVDZ
    Blend: CC-PVDZ
  @DF-UKS Final Energy:  -200.00051301186821
    Total Energy =                       -200.0005130118682075
  @DF-UKS Final Energy:  -200.09759121083263
    Total Energy =                       -200.0975912108326042
  @DF-UKS Final Energy:  -200.16056493913470
    Total Energy =                       -200.1605649391347015
  @DF-UKS Final Energy:  -200.22170301005079
    Total Energy =                       -200.2217030100507884
  @DF-UKS Final Energy:  -200.23151314381494
    Total Energy =                       -200.2315131438149365
  @DF-UKS Final Energy:  -200.23411095746826
    Total Energy =                       -200.2341109574682321
  @DF-UKS Final Energy:  -200.23466770453783
    Total Energy =                       -200.2346677045378271
  @DF-UKS Final Energy:  -200.23482993189569
    Total Energy =                       -200.2348299318956890
  @DF-UKS Final Energy:  -200.23484682172500
    Total Energy =                       -200.2348468217249433
  Basis Set: (CC-PVDZ AUX)
    Blend: CC-PVDZ-JKFIT + DEF2-UNIVERSAL-JKFIT
  Basis Set: CC-PVDZ
    Blend: CC-PVDZ
  Basis Set: (CC-PVDZ AUX)
    Blend: CC-PVDZ-JKFIT + DEF2-UNIVERSAL-JKFIT
  @DF-UKS Final Energy:  -200.23484855611576
    Total Energy =                       -200.2348485561157645
  Basis Set: CC-PVDZ
    Blend: CC-PVDZ
  Basis Set: (CC-PVDZ AUX)
    Blend: CC-PVDZ-JKFIT + DEF2-UNIVERSAL-JKFIT
  Charge       = -1
  Multiplicity = 3
  Basis Set: CC-PVDZ
    Blend: CC-PVDZ
  Basis Set: (CC-PVDZ AUX)
    Blend: CC-PVDZ-JKFIT + DEF2-UNIVERSAL-JKFIT

    Orbital Energies [Eh]
    ---------------------

    Alpha Occupied:

       1A1   -38.285815     2A1   -10.001934     3A1    -2.034319
       1B1    -0.966660     1B2    -0.966660     4A1    -0.964471
       5A1    -0.337658     6A1    -0.015445     2B1    -0.005036
       2B2    -0.005036

    Alpha Virtual:

       7A1     0.087846     3B1     0.117012     3B2     0.117012
       8A1     0.133968     9A1     0.198443     4B1     0.231339
       4B2     0.231339    10A1     0.287283    11A1     0.328405
       1A2     0.328405     5B2     0.365726     5B1     0.365726
      12A1     0.429590     6B2     0.750033     6B1     0.750033
      13A1     0.750260    14A1     1.180458    15A1     1.377038
       2A2     1.377070    16A1     1.391623     7B2     1.412378
       7B1     1.412378

    Beta Occupied:

       1A1   -38.285968     2A1    -9.970435     3A1    -2.034773
       1B1    -0.966840     1B2    -0.966840     4A1    -0.964340
       5A1    -0.203397     6A1     0.029733

    Beta Virtual:

       2B1     0.099323     2B2     0.099323     7A1     0.135231
       8A1     0.142845     3B1     0.174619     3B2     0.174619
       9A1     0.192712     4B1     0.224073     4B2     0.224073
      10A1     0.292486    11A1     0.322869     1A2     0.322869
       5B2     0.377226     5B1     0.377226    12A1     0.442066
      13A1     0.824193     6B2     0.824470     6B1     0.824470
      14A1     1.244485    15A1     1.482684     2A2     1.482734
      16A1     1.489417     7B2     1.512500     7B1     1.512500

    Final Occupation by Irrep:
             A1    A2    B1    B2
    DOCC [     6,    0,    1,    1 ]
    SOCC [     0,    0,    1,    1 ]
    NA   [     6,    0,    2,    2 ]
    NB   [     6,    0,    1,    1 ]

  @DF-UKS Final Energy:  -200.23484868716716

   => Energetics <=

    Nuclear Repulsion Energy =             14.7034950636198225
    One-Electron Energy =                -311.4213347006476624
    Two-Electron Energy =                 112.5481095109509226
    DFT Exchange-Correlation Energy =     -16.0651185610902267
    Empirical Dispersion Energy =           0.0000000000000000
    VV10 Nonlocal Energy =                  0.0000000000000000
    Total Energy =                       -200.2348486871671582

  UHF NO Occupations:
  HONO-2 :    6 A1 1.4196996
  HONO-1 :    2 B1 1.0000000
  HONO-0 :    2 B2 1.0000000
  LUNO+0 :    7 A1 0.5803004
  LUNO+1 :    8 A1 0.0016775
  LUNO+2 :    9 A1 0.0000012
  LUNO+3 :    3 B1 0.0000005

Computation Completed

Properties will be evaluated at   0.000000,   0.000000,   0.000000 [a0]

Properties computed using the SCF density matrix

 Multipole Moments:

 ------------------------------------------------------------------------------------
     Multipole            Electronic (a.u.)      Nuclear  (a.u.)        Total (a.u.)
 ------------------------------------------------------------------------------------

 L = 1.  Multiply by 2.5417464519 to convert [e a0] to [Debye]
 Dipole X            :          0.0000000            0.0000000            0.0000000
 Dipole Y            :          0.0000000            0.0000000            0.0000000
 Dipole Z            :         -0.1806941            0.7618465            0.5811524
 Magnitude           :                                                    0.5811524

 ------------------------------------------------------------------------------------

*** tstop() called on Joses-MacBook-Pro-2.local at Thu Jul 17 10:17:52 2025
Module time:
	user time   =       2.71 seconds =       0.05 minutes
	system time =       4.01 seconds =       0.07 minutes
	total time  =          0 seconds =       0.00 minutes
Total time:
	user time   =     102.07 seconds =       1.70 minutes
	system time =     104.60 seconds =       1.74 minutes
	total time  =       1047 seconds =      17.45 minutes

*** tstart() called on Joses-MacBook-Pro-2.local
*** at Thu Jul 17 10:17:52 2025

         ------------------------------------------------------------
                                   SCF GRAD
                          Rob Parrish, Justin Turney,
                       Andy Simmonett, and Alex Sokolov
         ------------------------------------------------------------

  ==> Geometry <==

    Molecular point group: c2v
    Full point group: C_inf_v

    Geometry (in Angstrom), charge = -1, multiplicity = 3:

       Center              X                  Y                   Z               Mass
    ------------   -----------------  -----------------  -----------------  -----------------
         C            0.000000000000     0.000000000000     1.560694939770    12.000000000000
         NA           0.000000000000     0.000000000000    -0.814637982988    22.989769282000

  Nuclear repulsion =   14.703495063619823

  ==> Basis Set <==

  Basis Set: CC-PVDZ
    Blend: CC-PVDZ
    Number of shells: 14
    Number of basis functions: 32
    Number of Cartesian functions: 34
    Spherical Harmonics?: true
    Max angular momentum: 2

  ==> DFJKGrad: Density-Fitted SCF Gradients <==

    Gradient:                    1
    J tasked:                  Yes
    K tasked:                  Yes
    wK tasked:                  No
    OpenMP threads:              1
    Integrals threads:           1
    Memory [MiB]:              375
    Schwarz Cutoff:          1E-12
    Fitting Condition:       1E-10

   => Auxiliary Basis Set <=

  Basis Set: (CC-PVDZ AUX)
    Blend: CC-PVDZ-JKFIT + DEF2-UNIVERSAL-JKFIT
    Number of shells: 58
    Number of basis functions: 182
    Number of Cartesian functions: 218
    Spherical Harmonics?: true
    Max angular momentum: 4

  ==> DFT Potential <==

   => LibXC <=

    Version 6.2.2
    S. Lehtola, C. Steigemann, M. J.T. Oliveira, and M. A.L. Marques.,  SoftwareX 7, 1â€“5 (2018) (10.1016/j.softx.2017.11.002)

   => Composite Functional: B3LYP <=

    B3LYP Hyb-GGA Exchange-Correlation Functional

    P. J. Stephens, F. J. Devlin, C. F. Chabalowski, and M. J. Frisch.,  J. Phys. Chem. 98, 11623 (1994) (10.1021/j100096a001)

    Deriv               =              1
    GGA                 =           TRUE
    Meta                =          FALSE

    Exchange Hybrid     =           TRUE
    MP2 Hybrid          =          FALSE

   => Exchange Functionals <=

    0.0800   Slater exchange
    0.7200         Becke 88

   => Exact (HF) Exchange <=

    0.2000               HF

   => Correlation Functionals <=

    0.1900   Vosko, Wilk & Nusair (VWN5_RPA)
    0.8100   Lee, Yang & Parr

   => LibXC Density Thresholds  <==

    XC_HYB_GGA_XC_B3LYP:  1.00E-15

   => Molecular Quadrature <=

    Radial Scheme          =       TREUTLER
    Pruning Scheme         =           NONE
    Nuclear Scheme         =       TREUTLER

    Blocking Scheme        =         OCTREE
    BS radius alpha        =              1
    Pruning alpha          =              1
    Radial Points          =             75
    Spherical Points       =            302
    Total Points           =          43801
    Total Blocks           =            427
    Max Points             =            256
    Max Functions          =             32
    Weights Tolerance      =       1.00E-15

  -Total Gradient:
     Atom            X                  Y                   Z
    ------   -----------------  -----------------  -----------------
       1       -0.000000000000     0.000000000000    -0.000031607415
       2        0.000000000000    -0.000000000000     0.000019336649

*** tstop() called on Joses-MacBook-Pro-2.local at Thu Jul 17 10:17:53 2025
Module time:
	user time   =       0.65 seconds =       0.01 minutes
	system time =       2.23 seconds =       0.04 minutes
	total time  =          1 seconds =       0.02 minutes
Total time:
	user time   =     102.72 seconds =       1.71 minutes
	system time =     106.83 seconds =       1.78 minutes
	total time  =       1048 seconds =      17.47 minutes

    			-----------------------------------------

    			 OPTKING 3.0: for geometry optimizations

    			     By R.A. King, Bethel University

    			        with contributions from

    			    A.V. Copan, J. Cayton, A. Heide

    			-----------------------------------------

	                            ===> Fragment 1 <==

	 Z (Atomic Numbers)          Masses                          Geom
	       6.000000            12.000000          0.00000000  0.00000000  2.94928600
	      11.000000            22.989769          0.00000000  0.00000000 -1.53944268

	 - Coordinate -           - BOHR/RAD -       - ANG/DEG -
	 R(1,2)           =         4.488729           2.375333

	        --- Internal Coordinate Step in ANG or DEG, aJ/ANG or AJ/DEG ---
	-------------------------------------------------------------------------------
	           Coordinate      Previous         Force          Change          New
	           ----------      --------        ------          ------        ------
	               R(1,2)       2.37533        0.00021        0.00037       2.37570
	-------------------------------------------------------------------------------

	                                 ==> Convergence Check <==

	Measures of convergence in internal coordinates in au.

	Criteria marked as inactive (o), active & met (*), and active & unmet ( ).

	----------------------------------------------------------------------------------------------
	   Step    Total Energy     Delta E     Max Force     RMS Force      Max Disp      RMS Disp
	----------------------------------------------------------------------------------------------
	  Convergence Criteria     1.00e-06 *    3.00e-04 *             o    1.20e-03 *             o
	----------------------------------------------------------------------------------------------
	    13    -200.23484869   -1.31e-07 *    2.55e-05 *    2.55e-05 o    6.93e-04 *    6.93e-04 o  ~
	----------------------------------------------------------------------------------------------

Next Geometry in Ang
	Fragment 1 (Ang)

	    C   0.0000000000   0.0000000000   1.5608782565
	   Na   0.0000000000   0.0000000000  -0.8148212997

    Final optimized geometry and variables:
    Molecular point group: c2v
    Full point group: C_inf_v

    Geometry (in Angstrom), charge = -1, multiplicity = 3:

    C            0.000000000000     0.000000000000     1.560694939770
    NA           0.000000000000     0.000000000000    -0.814637982988

    Psi4 stopped on: Thursday, 17 July 2025 10:17AM
    Psi4 wall time for execution: 0:17:28.31

*** Psi4 exiting successfully. Buy a developer a beer!
