                               Psi4 1.9.1 release

  ==> Input File <==

--------------------------------------------------------------------------
molecule {
-1 3
Be   0.00000        0.60000        0.00000
P   0.00000       -0.60000        0.00000
}

set {
basis              cc-pvdz
reference          uks
maxiter            500
geom_maxiter       500
DAMPING_PERCENTAGE 1
guess              SAP
}

optimize('b3lyp')
--------------------------------------------------------------------------

    Molecular point group: c2v
  Charge       = -1
  Multiplicity = 3
  Basis Set: CC-PVDZ
    Blend: CC-PVDZ
  Basis Set: (CC-PVDZ AUX)
    Blend: CC-PVDZ-JKFIT + DEF2-UNIVERSAL-JKFIT
  @DF-UKS Final Energy:  -355.57948730800894
    Total Energy =                       -355.5794873080089360
 Dipole X            :          0.0000000            0.0000000            0.0000000
 Dipole Y            :          0.0000000            0.0000000            0.0000000
 Dipole Z            :         -1.1297261           -0.6401447           -1.7698708
 Magnitude           :                                                    1.7698708
    Molecular point group: c2v
  Basis Set: CC-PVDZ
    Blend: CC-PVDZ
  Basis Set: (CC-PVDZ AUX)
    Blend: CC-PVDZ-JKFIT + DEF2-UNIVERSAL-JKFIT
  Basis Set: CC-PVDZ
    Blend: CC-PVDZ
  Basis Set: (CC-PVDZ AUX)
    Blend: CC-PVDZ-JKFIT + DEF2-UNIVERSAL-JKFIT
  @DF-UKS Final Energy:  -355.76661626484287
    Total Energy =                       -355.7666162648428667
  Basis Set: CC-PVDZ
    Blend: CC-PVDZ
  Basis Set: (CC-PVDZ AUX)
    Blend: CC-PVDZ-JKFIT + DEF2-UNIVERSAL-JKFIT
  Basis Set: CC-PVDZ
    Blend: CC-PVDZ
  @DF-UKS Final Energy:  -355.90128606141667
    Total Energy =                       -355.9012860614166698
  @DF-UKS Final Energy:  -355.97008575827829
    Total Energy =                       -355.9700857582782874
  @DF-UKS Final Energy:  -355.99425735118490
    Total Energy =                       -355.9942573511848423
  @DF-UKS Final Energy:  -356.00142027069205
    Total Energy =                       -356.0014202706920514
  @DF-UKS Final Energy:  -356.00252507936398
    Total Energy =                       -356.0025250793639771
  @DF-UKS Final Energy:  -356.00271786205275
    Total Energy =                       -356.0027178620527479
  @DF-UKS Final Energy:  -356.00275393660644
    Total Energy =                       -356.0027539366064957
  Basis Set: (CC-PVDZ AUX)
    Blend: CC-PVDZ-JKFIT + DEF2-UNIVERSAL-JKFIT
  Basis Set: CC-PVDZ
    Blend: CC-PVDZ
  Basis Set: (CC-PVDZ AUX)
    Blend: CC-PVDZ-JKFIT + DEF2-UNIVERSAL-JKFIT
  @DF-UKS Final Energy:  -356.00276196834795
    Total Energy =                       -356.0027619683479543
  Basis Set: CC-PVDZ
    Blend: CC-PVDZ
  Basis Set: (CC-PVDZ AUX)
    Blend: CC-PVDZ-JKFIT + DEF2-UNIVERSAL-JKFIT
  Charge       = -1
  Multiplicity = 3
  Basis Set: CC-PVDZ
    Blend: CC-PVDZ
  Basis Set: (CC-PVDZ AUX)
    Blend: CC-PVDZ-JKFIT + DEF2-UNIVERSAL-JKFIT

    Orbital Energies [Eh]
    ---------------------

    Alpha Occupied:

       1A1   -76.832441     2A1    -6.302805     3A1    -4.471985
       1B2    -4.459906     1B1    -4.459906     4A1    -3.862195
       5A1    -0.337186     6A1    -0.093273     2B2     0.006517
       2B1     0.006517     7A1     0.007598

    Alpha Virtual:

       3B1     0.179532     3B2     0.179532     8A1     0.250051
       9A1     0.358777     4B1     0.367288     4B2     0.367288
      10A1     0.423964    11A1     0.582099     5B2     0.609491
       5B1     0.609491    12A1     0.635570     1A2     0.635570
       6B2     0.702634     6B1     0.702634    13A1     0.755192
      14A1     0.802615     2A2     0.802616    15A1     1.007231
       7B2     1.012272     7B1     1.012272    16A1     1.281735

    Beta Occupied:

       1A1   -76.829114     2A1    -6.299071     3A1    -4.460018
       1B2    -4.458314     1B1    -4.458314     4A1    -3.848714
       5A1    -0.297437     2B2     0.017615     2B1     0.017615

    Beta Virtual:

       6A1     0.027117     7A1     0.133606     3B1     0.206205
       3B2     0.206205     8A1     0.263413     4B1     0.388849
       4B2     0.388849     9A1     0.410024    10A1     0.466251
      11A1     0.638135     5B2     0.648922     5B1     0.648922
      12A1     0.654964     1A2     0.654965     6B2     0.719750
       6B1     0.719750    13A1     0.785617    14A1     0.815528
       2A2     0.815529    15A1     1.047873     7B2     1.055257
       7B1     1.055257    16A1     1.323588

    Final Occupation by Irrep:
             A1    A2    B1    B2
    DOCC [     5,    0,    2,    2 ]
    SOCC [     2,    0,    0,    0 ]
    NA   [     7,    0,    2,    2 ]
    NB   [     5,    0,    2,    2 ]

  @DF-UKS Final Energy:  -356.00276262281841

   => Energetics <=

    Nuclear Repulsion Energy =             16.7437551460154843
    One-Electron Energy =                -528.9933215427342930
    Two-Electron Energy =                 177.4022785921170282
    DFT Exchange-Correlation Energy =     -21.1554748182165682
    Empirical Dispersion Energy =           0.0000000000000000
    VV10 Nonlocal Energy =                  0.0000000000000000
    Total Energy =                       -356.0027626228184090

  UHF NO Occupations:
  HONO-2 :    2 B1 1.9976838
  HONO-1 :    6 A1 1.0000000
  HONO-0 :    7 A1 1.0000000
  LUNO+0 :    3 B2 0.0023162
  LUNO+1 :    3 B1 0.0023162
  LUNO+2 :    8 A1 0.0017066
  LUNO+3 :    9 A1 0.0000003

Computation Completed

Properties will be evaluated at   0.000000,   0.000000,   0.000000 [a0]

Properties computed using the SCF density matrix

 Multipole Moments:

 ------------------------------------------------------------------------------------
     Multipole            Electronic (a.u.)      Nuclear  (a.u.)        Total (a.u.)
 ------------------------------------------------------------------------------------

 L = 1.  Multiply by 2.5417464519 to convert [e a0] to [Debye]
 Dipole X            :          0.0000000            0.0000000            0.0000000
 Dipole Y            :          0.0000000            0.0000000            0.0000000
 Dipole Z            :         -0.1851808           -1.0115711           -1.1967519
 Magnitude           :                                                    1.1967519

 ------------------------------------------------------------------------------------

*** tstop() called on Joses-MacBook-Pro-2.local at Thu Jul 17 09:45:37 2025
Module time:
	user time   =       2.88 seconds =       0.05 minutes
	system time =       4.82 seconds =       0.08 minutes
	total time  =          1 seconds =       0.02 minutes
Total time:
	user time   =      45.04 seconds =       0.75 minutes
	system time =      89.50 seconds =       1.49 minutes
	total time  =         14 seconds =       0.23 minutes

*** tstart() called on Joses-MacBook-Pro-2.local
*** at Thu Jul 17 09:45:37 2025

         ------------------------------------------------------------
                                   SCF GRAD
                          Rob Parrish, Justin Turney,
                       Andy Simmonett, and Alex Sokolov
         ------------------------------------------------------------

  ==> Geometry <==

    Molecular point group: c2v
    Full point group: C_inf_v

    Geometry (in Angstrom), charge = -1, multiplicity = 3:

       Center              X                  Y                   Z               Mass
    ------------   -----------------  -----------------  -----------------  -----------------
         BE           0.000000000000     0.000000000000     1.468879300123     9.012183065000
         P            0.000000000000     0.000000000000    -0.427387837285    30.973761998420

  Nuclear repulsion =   16.743755146015484

  ==> Basis Set <==

  Basis Set: CC-PVDZ
    Blend: CC-PVDZ
    Number of shells: 14
    Number of basis functions: 32
    Number of Cartesian functions: 34
    Spherical Harmonics?: true
    Max angular momentum: 2

  ==> DFJKGrad: Density-Fitted SCF Gradients <==

    Gradient:                    1
    J tasked:                  Yes
    K tasked:                  Yes
    wK tasked:                  No
    OpenMP threads:              1
    Integrals threads:           1
    Memory [MiB]:              375
    Schwarz Cutoff:          1E-12
    Fitting Condition:       1E-10

   => Auxiliary Basis Set <=

  Basis Set: (CC-PVDZ AUX)
    Blend: CC-PVDZ-JKFIT + DEF2-UNIVERSAL-JKFIT
    Number of shells: 53
    Number of basis functions: 163
    Number of Cartesian functions: 190
    Spherical Harmonics?: true
    Max angular momentum: 3

  ==> DFT Potential <==

   => LibXC <=

    Version 6.2.2
    S. Lehtola, C. Steigemann, M. J.T. Oliveira, and M. A.L. Marques.,  SoftwareX 7, 1â€“5 (2018) (10.1016/j.softx.2017.11.002)

   => Composite Functional: B3LYP <=

    B3LYP Hyb-GGA Exchange-Correlation Functional

    P. J. Stephens, F. J. Devlin, C. F. Chabalowski, and M. J. Frisch.,  J. Phys. Chem. 98, 11623 (1994) (10.1021/j100096a001)

    Deriv               =              1
    GGA                 =           TRUE
    Meta                =          FALSE

    Exchange Hybrid     =           TRUE
    MP2 Hybrid          =          FALSE

   => Exchange Functionals <=

    0.0800   Slater exchange
    0.7200         Becke 88

   => Exact (HF) Exchange <=

    0.2000               HF

   => Correlation Functionals <=

    0.1900   Vosko, Wilk & Nusair (VWN5_RPA)
    0.8100   Lee, Yang & Parr

   => LibXC Density Thresholds  <==

    XC_HYB_GGA_XC_B3LYP:  1.00E-15

   => Molecular Quadrature <=

    Radial Scheme          =       TREUTLER
    Pruning Scheme         =           NONE
    Nuclear Scheme         =       TREUTLER

    Blocking Scheme        =         OCTREE
    BS radius alpha        =              1
    Pruning alpha          =              1
    Radial Points          =             75
    Spherical Points       =            302
    Total Points           =          42762
    Total Blocks           =            401
    Max Points             =            255
    Max Functions          =             32
    Weights Tolerance      =       1.00E-15

  -Total Gradient:
     Atom            X                  Y                   Z
    ------   -----------------  -----------------  -----------------
       1        0.000000000000     0.000000000000    -0.000064925035
       2        0.000000000000    -0.000000000000     0.000053028434

*** tstop() called on Joses-MacBook-Pro-2.local at Thu Jul 17 09:45:37 2025
Module time:
	user time   =       0.66 seconds =       0.01 minutes
	system time =       2.14 seconds =       0.04 minutes
	total time  =          0 seconds =       0.00 minutes
Total time:
	user time   =      45.71 seconds =       0.76 minutes
	system time =      91.64 seconds =       1.53 minutes
	total time  =         14 seconds =       0.23 minutes

    			-----------------------------------------

    			 OPTKING 3.0: for geometry optimizations

    			     By R.A. King, Bethel University

    			        with contributions from

    			    A.V. Copan, J. Cayton, A. Heide

    			-----------------------------------------

	                            ===> Fragment 1 <==

	 Z (Atomic Numbers)          Masses                          Geom
	       4.000000             9.012183          0.00000000  0.00000000  2.77577959
	      15.000000            30.973762          0.00000000  0.00000000 -0.80764596

	 - Coordinate -           - BOHR/RAD -       - ANG/DEG -
	 R(1,2)           =         3.583426           1.896267

	        --- Internal Coordinate Step in ANG or DEG, aJ/ANG or AJ/DEG ---
	-------------------------------------------------------------------------------
	           Coordinate      Previous         Force          Change          New
	           ----------      --------        ------          ------        ------
	               R(1,2)       1.89627        0.00049        0.00018       1.89645
	-------------------------------------------------------------------------------

	                                 ==> Convergence Check <==

	Measures of convergence in internal coordinates in au.

	Criteria marked as inactive (o), active & met (*), and active & unmet ( ).

	----------------------------------------------------------------------------------------------
	   Step    Total Energy     Delta E     Max Force     RMS Force      Max Disp      RMS Disp
	----------------------------------------------------------------------------------------------
	  Convergence Criteria     1.00e-06 *    3.00e-04 *             o    1.20e-03 *             o
	----------------------------------------------------------------------------------------------
	    11    -356.00276262   -6.54e-07 *    5.90e-05 *    5.90e-05 o    3.37e-04 *    3.37e-04 o  ~
	----------------------------------------------------------------------------------------------

Next Geometry in Ang
	Fragment 1 (Ang)

	   Be   0.0000000000   0.0000000000   1.4689683507
	    P   0.0000000000   0.0000000000  -0.4274768878

    Final optimized geometry and variables:
    Molecular point group: c2v
    Full point group: C_inf_v

    Geometry (in Angstrom), charge = -1, multiplicity = 3:

    BE           0.000000000000     0.000000000000     1.468879300123
    P            0.000000000000     0.000000000000    -0.427387837285

    Psi4 stopped on: Thursday, 17 July 2025 09:45AM
    Psi4 wall time for execution: 0:00:14.96

*** Psi4 exiting successfully. Buy a developer a beer!
