                               Psi4 1.9.1 release

  ==> Input File <==

--------------------------------------------------------------------------
molecule {
-1 3
O   0.00000        0.60000        0.00000
F   0.00000       -0.60000        0.00000
}

set {
basis              cc-pvdz
reference          uks
maxiter            500
geom_maxiter       500
DAMPING_PERCENTAGE 1
guess              SAP
}

optimize('b3lyp')
--------------------------------------------------------------------------

    Molecular point group: c2v
  Charge       = -1
  Multiplicity = 3
  Basis Set: CC-PVDZ
    Blend: CC-PVDZ
  Basis Set: (CC-PVDZ AUX)
    Blend: CC-PVDZ-JKFIT
  @DF-UKS Final Energy:  -174.55598621861685
    Total Energy =                       -174.5559862186168516
 Dipole X            :          0.0000000            0.0000000            0.0000000
 Dipole Y            :          0.0000000            0.0000000            0.0000000
 Dipole Z            :         -1.1275255            0.5205619           -0.6069635
 Magnitude           :                                                    0.6069635
    Molecular point group: c2v
  Basis Set: CC-PVDZ
    Blend: CC-PVDZ
  Basis Set: (CC-PVDZ AUX)
    Blend: CC-PVDZ-JKFIT
  Basis Set: CC-PVDZ
    Blend: CC-PVDZ
  Basis Set: (CC-PVDZ AUX)
    Blend: CC-PVDZ-JKFIT
  @DF-UKS Final Energy:  -174.81407379572019
    Total Energy =                       -174.8140737957202191
  Basis Set: CC-PVDZ
    Blend: CC-PVDZ
  Basis Set: (CC-PVDZ AUX)
    Blend: CC-PVDZ-JKFIT
  Basis Set: CC-PVDZ
    Blend: CC-PVDZ
  @DF-UKS Final Energy:  -174.85984589684460
    Total Energy =                       -174.8598458968445755
  @DF-UKS Final Energy:  -174.88828549055037
    Total Energy =                       -174.8882854905503450
  @DF-UKS Final Energy:  -174.89730395496400
    Total Energy =                       -174.8973039549640021
  @DF-UKS Final Energy:  -174.90177532740668
    Total Energy =                       -174.9017753274067104
  @DF-UKS Final Energy:  -174.90380112787298
    Total Energy =                       -174.9038011278729527
  @DF-UKS Final Energy:  -174.90432879273237
    Total Energy =                       -174.9043287927324002
  @DF-UKS Final Energy:  -174.90452038797196
    Total Energy =                       -174.9045203879719850
  @DF-UKS Final Energy:  -174.90456257564767
    Total Energy =                       -174.9045625756476454
  @DF-UKS Final Energy:  -174.90457411042846
    Total Energy =                       -174.9045741104284559
  Basis Set: (CC-PVDZ AUX)
    Blend: CC-PVDZ-JKFIT
  Basis Set: CC-PVDZ
    Blend: CC-PVDZ
  Basis Set: (CC-PVDZ AUX)
    Blend: CC-PVDZ-JKFIT
  @DF-UKS Final Energy:  -174.90457587133750
    Total Energy =                       -174.9045758713375278
  Basis Set: CC-PVDZ
    Blend: CC-PVDZ
  Basis Set: (CC-PVDZ AUX)
    Blend: CC-PVDZ-JKFIT
  Charge       = -1
  Multiplicity = 3
  Basis Set: CC-PVDZ
    Blend: CC-PVDZ
  Basis Set: (CC-PVDZ AUX)
    Blend: CC-PVDZ-JKFIT

    Orbital Energies [Eh]
    ---------------------

    Alpha Occupied:

       1A1   -24.266433     2A1   -18.878971     3A1    -0.726104
       4A1    -0.620488     5A1    -0.083379     1B1    -0.078574
       1B2    -0.013595     2B1     0.011271     2B2     0.022130
       6A1     0.033236

    Alpha Virtual:

       3B1     1.139317     3B2     1.185628     7A1     1.212504
       8A1     1.368473     4B1     1.517591     4B2     1.522887
       9A1     1.613539    10A1     2.085747     5B1     2.835083
      11A1     2.854982     1A2     2.863080     5B2     2.891433
      12A1     2.971563     6B1     3.970538     6B2     3.973363
      13A1     3.992805     2A2     3.992944    14A1     4.008257

    Beta Occupied:

       1A1   -24.252389     2A1   -18.838394     3A1    -0.688324
       4A1    -0.497082     1B2     0.013819     1B1     0.025090
       5A1     0.026558     2B2     0.049735

    Beta Virtual:

       2B1     0.184854     6A1     0.220590     3B2     1.211077
       3B1     1.245472     7A1     1.288865     8A1     1.430400
       4B2     1.531981     4B1     1.533525     9A1     1.651896
      10A1     2.126332     1A2     2.948757     5B2     2.954926
      11A1     2.958311     5B1     2.972114    12A1     3.060351
       2A2     4.002813    13A1     4.002824     6B1     4.010569
       6B2     4.010863    14A1     4.056525

    Final Occupation by Irrep:
             A1    A2    B1    B2
    DOCC [     5,    0,    1,    2 ]
    SOCC [     1,    0,    1,    0 ]
    NA   [     6,    0,    2,    2 ]
    NB   [     5,    0,    1,    2 ]

  @DF-UKS Final Energy:  -174.90457598535835

   => Energetics <=

    Nuclear Repulsion Energy =             18.5680801494560406
    One-Electron Energy =                -286.9975741930152253
    Two-Electron Energy =                 109.1091783249478055
    DFT Exchange-Correlation Energy =     -15.5842602667469503
    Empirical Dispersion Energy =           0.0000000000000000
    VV10 Nonlocal Energy =                  0.0000000000000000
    Total Energy =                       -174.9045759853583490

  UHF NO Occupations:
  HONO-2 :    5 A1 1.9986329
  HONO-1 :    2 B1 1.0000000
  HONO-0 :    6 A1 1.0000000
  LUNO+0 :    7 A1 0.0013671
  LUNO+1 :    8 A1 0.0004561
  LUNO+2 :    3 B2 0.0001985
  LUNO+3 :    3 B1 0.0001173

Computation Completed

Properties will be evaluated at   0.000000,   0.000000,   0.000000 [a0]

Properties computed using the SCF density matrix

 Multipole Moments:

 ------------------------------------------------------------------------------------
     Multipole            Electronic (a.u.)      Nuclear  (a.u.)        Total (a.u.)
 ------------------------------------------------------------------------------------

 L = 1.  Multiply by 2.5417464519 to convert [e a0] to [Debye]
 Dipole X            :          0.0000000            0.0000000            0.0000000
 Dipole Y            :          0.0000000            0.0000000            0.0000000
 Dipole Z            :         -0.7294462            0.8901389            0.1606927
 Magnitude           :                                                    0.1606927

 ------------------------------------------------------------------------------------

*** tstop() called on Joses-MacBook-Pro-2.local at Thu Jul 17 10:38:59 2025
Module time:
	user time   =       2.82 seconds =       0.05 minutes
	system time =       3.40 seconds =       0.06 minutes
	total time  =          0 seconds =       0.00 minutes
Total time:
	user time   =      50.64 seconds =       0.84 minutes
	system time =      65.98 seconds =       1.10 minutes
	total time  =         11 seconds =       0.18 minutes

*** tstart() called on Joses-MacBook-Pro-2.local
*** at Thu Jul 17 10:38:59 2025

         ------------------------------------------------------------
                                   SCF GRAD
                          Rob Parrish, Justin Turney,
                       Andy Simmonett, and Alex Sokolov
         ------------------------------------------------------------

  ==> Geometry <==

    Molecular point group: c2v
    Full point group: C_inf_v

    Geometry (in Angstrom), charge = -1, multiplicity = 3:

       Center              X                  Y                   Z               Mass
    ------------   -----------------  -----------------  -----------------  -----------------
         O            0.000000000000     0.000000000000     1.114034411342    15.994914619570
         F            0.000000000000     0.000000000000    -0.937914894217    18.998403162730

  Nuclear repulsion =   18.568080149456041

  ==> Basis Set <==

  Basis Set: CC-PVDZ
    Blend: CC-PVDZ
    Number of shells: 12
    Number of basis functions: 28
    Number of Cartesian functions: 30
    Spherical Harmonics?: true
    Max angular momentum: 2

  ==> DFJKGrad: Density-Fitted SCF Gradients <==

    Gradient:                    1
    J tasked:                  Yes
    K tasked:                  Yes
    wK tasked:                  No
    OpenMP threads:              1
    Integrals threads:           1
    Memory [MiB]:              375
    Schwarz Cutoff:          1E-12
    Fitting Condition:       1E-10

   => Auxiliary Basis Set <=

  Basis Set: (CC-PVDZ AUX)
    Blend: CC-PVDZ-JKFIT
    Number of shells: 48
    Number of basis functions: 140
    Number of Cartesian functions: 162
    Spherical Harmonics?: true
    Max angular momentum: 3

  ==> DFT Potential <==

   => LibXC <=

    Version 6.2.2
    S. Lehtola, C. Steigemann, M. J.T. Oliveira, and M. A.L. Marques.,  SoftwareX 7, 1â€“5 (2018) (10.1016/j.softx.2017.11.002)

   => Composite Functional: B3LYP <=

    B3LYP Hyb-GGA Exchange-Correlation Functional

    P. J. Stephens, F. J. Devlin, C. F. Chabalowski, and M. J. Frisch.,  J. Phys. Chem. 98, 11623 (1994) (10.1021/j100096a001)

    Deriv               =              1
    GGA                 =           TRUE
    Meta                =          FALSE

    Exchange Hybrid     =           TRUE
    MP2 Hybrid          =          FALSE

   => Exchange Functionals <=

    0.0800   Slater exchange
    0.7200         Becke 88

   => Exact (HF) Exchange <=

    0.2000               HF

   => Correlation Functionals <=

    0.1900   Vosko, Wilk & Nusair (VWN5_RPA)
    0.8100   Lee, Yang & Parr

   => LibXC Density Thresholds  <==

    XC_HYB_GGA_XC_B3LYP:  1.00E-15

   => Molecular Quadrature <=

    Radial Scheme          =       TREUTLER
    Pruning Scheme         =           NONE
    Nuclear Scheme         =       TREUTLER

    Blocking Scheme        =         OCTREE
    BS radius alpha        =              1
    Pruning alpha          =              1
    Radial Points          =             75
    Spherical Points       =            302
    Total Points           =          42133
    Total Blocks           =            368
    Max Points             =            256
    Max Functions          =             28
    Weights Tolerance      =       1.00E-15

  -Total Gradient:
     Atom            X                  Y                   Z
    ------   -----------------  -----------------  -----------------
       1        0.000000000000    -0.000000000000    -0.000013639532
       2        0.000000000000    -0.000000000000     0.000011891339

*** tstop() called on Joses-MacBook-Pro-2.local at Thu Jul 17 10:39:00 2025
Module time:
	user time   =       0.73 seconds =       0.01 minutes
	system time =       0.75 seconds =       0.01 minutes
	total time  =          1 seconds =       0.02 minutes
Total time:
	user time   =      51.37 seconds =       0.86 minutes
	system time =      66.74 seconds =       1.11 minutes
	total time  =         12 seconds =       0.20 minutes

    			-----------------------------------------

    			 OPTKING 3.0: for geometry optimizations

    			     By R.A. King, Bethel University

    			        with contributions from

    			    A.V. Copan, J. Cayton, A. Heide

    			-----------------------------------------

	                            ===> Fragment 1 <==

	 Z (Atomic Numbers)          Masses                          Geom
	       8.000000            15.994915          0.00000000  0.00000000  2.10521993
	       9.000000            18.998403          0.00000000  0.00000000 -1.77240228

	 - Coordinate -           - BOHR/RAD -       - ANG/DEG -
	 R(1,2)           =         3.877622           2.051949

	        --- Internal Coordinate Step in ANG or DEG, aJ/ANG or AJ/DEG ---
	-------------------------------------------------------------------------------
	           Coordinate      Previous         Force          Change          New
	           ----------      --------        ------          ------        ------
	               R(1,2)       2.05195        0.00011        0.00015       2.05209
	-------------------------------------------------------------------------------

	                                 ==> Convergence Check <==

	Measures of convergence in internal coordinates in au.

	Criteria marked as inactive (o), active & met (*), and active & unmet ( ).

	----------------------------------------------------------------------------------------------
	   Step    Total Energy     Delta E     Max Force     RMS Force      Max Disp      RMS Disp
	----------------------------------------------------------------------------------------------
	  Convergence Criteria     1.00e-06 *    3.00e-04 *             o    1.20e-03 *             o
	----------------------------------------------------------------------------------------------
	    13    -174.90457599   -1.14e-07 *    1.28e-05 *    1.28e-05 o    2.74e-04 *    2.74e-04 o  ~
	----------------------------------------------------------------------------------------------

Next Geometry in Ang
	Fragment 1 (Ang)

	    O   0.0000000000   0.0000000000   1.1141069551
	    F   0.0000000000   0.0000000000  -0.9379874379

    Final optimized geometry and variables:
    Molecular point group: c2v
    Full point group: C_inf_v

    Geometry (in Angstrom), charge = -1, multiplicity = 3:

    O            0.000000000000     0.000000000000     1.114034411342
    F            0.000000000000     0.000000000000    -0.937914894217

    Psi4 stopped on: Thursday, 17 July 2025 10:39AM
    Psi4 wall time for execution: 0:00:12.35

*** Psi4 exiting successfully. Buy a developer a beer!
