                               Psi4 1.9.1 release

  ==> Input File <==

--------------------------------------------------------------------------
molecule {
-1 3
He   0.00000        0.60000        0.00000
Li   0.00000       -0.60000        0.00000
}

set {
basis              cc-pvdz
reference          uks
maxiter            500
geom_maxiter       500
DAMPING_PERCENTAGE 1
guess              SAP
}

optimize('b3lyp')
--------------------------------------------------------------------------

    Molecular point group: c2v
  Charge       = -1
  Multiplicity = 3
  Basis Set: CC-PVDZ
    Blend: CC-PVDZ
  Basis Set: (CC-PVDZ AUX)
    Blend: DEF2-UNIVERSAL-JKFIT
  @DF-UKS Final Energy:   -10.33340656622198
    Total Energy =                        -10.3334065662219814
 Dipole X            :          0.0000000            0.0000000            0.0000000
 Dipole Y            :          0.0000000            0.0000000            0.0000000
 Dipole Z            :          1.3641170            0.4165875            1.7807045
 Magnitude           :                                                    1.7807045
    Molecular point group: c2v
  Basis Set: CC-PVDZ
    Blend: CC-PVDZ
  Basis Set: (CC-PVDZ AUX)
    Blend: DEF2-UNIVERSAL-JKFIT
  Basis Set: CC-PVDZ
    Blend: CC-PVDZ
  Basis Set: (CC-PVDZ AUX)
    Blend: DEF2-UNIVERSAL-JKFIT
  @DF-UKS Final Energy:   -10.36390941588306
    Total Energy =                        -10.3639094158830662
  Basis Set: CC-PVDZ
    Blend: CC-PVDZ
  Basis Set: (CC-PVDZ AUX)
    Blend: DEF2-UNIVERSAL-JKFIT
  Basis Set: CC-PVDZ
    Blend: CC-PVDZ
  @DF-UKS Final Energy:   -10.37036759014198
    Total Energy =                        -10.3703675901419849
  @DF-UKS Final Energy:   -10.37513303311657
    Total Energy =                        -10.3751330331165725
  @DF-UKS Final Energy:   -10.37704604117443
    Total Energy =                        -10.3770460411744345
  @DF-UKS Final Energy:   -10.37839521923943
    Total Energy =                        -10.3783952192394260
  @DF-UKS Final Energy:   -10.37956552385501
    Total Energy =                        -10.3795655238550051
  @DF-UKS Final Energy:   -10.38067590004169
    Total Energy =                        -10.3806759000416928
  @DF-UKS Final Energy:   -10.38236081740287
    Total Energy =                        -10.3823608174028692
  @DF-UKS Final Energy:   -10.38246358105419
    Total Energy =                        -10.3824635810541892
  @DF-UKS Final Energy:   -10.38390567930217
    Total Energy =                        -10.3839056793021669
  @DF-UKS Final Energy:   -10.38395958356066
    Total Energy =                        -10.3839595835606566
  @DF-UKS Final Energy:   -10.38469328322861
    Total Energy =                        -10.3846932832286107
  @DF-UKS Final Energy:   -10.38471247655512
    Total Energy =                        -10.3847124765551211
  @DF-UKS Final Energy:   -10.38505045067438
    Total Energy =                        -10.3850504506743775
  @DF-UKS Final Energy:   -10.38505603641694
    Total Energy =                        -10.3850560364169375
  @DF-UKS Final Energy:   -10.38506145860309
    Total Energy =                        -10.3850614586030918
  @DF-UKS Final Energy:   -10.38520919047202
    Total Energy =                        -10.3852091904720183
  @DF-UKS Final Energy:   -10.38521048281167
    Total Energy =                        -10.3852104828116669
  @DF-UKS Final Energy:   -10.38521174432864
    Total Energy =                        -10.3852117443286360
  @DF-UKS Final Energy:   -10.38521297591506
    Total Energy =                        -10.3852129759150635
  @DF-UKS Final Energy:   -10.38526618363205
    Total Energy =                        -10.3852661836320461
  @DF-UKS Final Energy:   -10.38528075210189
    Total Energy =                        -10.3852807521018935
  Basis Set: (CC-PVDZ AUX)
    Blend: DEF2-UNIVERSAL-JKFIT
  Basis Set: CC-PVDZ
    Blend: CC-PVDZ
  Basis Set: (CC-PVDZ AUX)
    Blend: DEF2-UNIVERSAL-JKFIT
  @DF-UKS Final Energy:   -10.38528319915315
    Total Energy =                        -10.3852831991531467
  Basis Set: CC-PVDZ
    Blend: CC-PVDZ
  Basis Set: (CC-PVDZ AUX)
    Blend: DEF2-UNIVERSAL-JKFIT
  Charge       = -1
  Multiplicity = 3
  Basis Set: CC-PVDZ
    Blend: CC-PVDZ
  Basis Set: (CC-PVDZ AUX)
    Blend: DEF2-UNIVERSAL-JKFIT

    Orbital Energies [Eh]
    ---------------------

    Alpha Occupied:

       1A1    -1.866043     2A1    -0.552352     3A1     0.010860
       1B1     0.059313

    Alpha Virtual:

       1B2     0.098277     4A1     0.100497     2B1     0.194415
       2B2     0.207097     5A1     0.208454     6A1     0.212143
       1A2     0.364900     3B1     0.364965     7A1     0.367376
       8A1     0.374239     3B2     0.374298     9A1     1.245693
       4B2     2.286911     4B1     2.287155    10A1     2.288714

    Beta Occupied:

       1A1    -1.859680     2A1    -0.552223

    Beta Virtual:

       3A1     0.095286     4A1     0.128697     1B2     0.130918
       1B1     0.135948     2B2     0.227134     5A1     0.227718
       2B1     0.237741     6A1     0.239923     7A1     0.414280
       3B2     0.414632     1A2     0.426092     3B1     0.426714
       8A1     0.430575     9A1     1.246221     4B2     2.286987
       4B1     2.287244    10A1     2.288817

    Final Occupation by Irrep:
             A1    A2    B1    B2
    DOCC [     2,    0,    0,    0 ]
    SOCC [     1,    0,    1,    0 ]
    NA   [     3,    0,    1,    0 ]
    NB   [     2,    0,    0,    0 ]

  @DF-UKS Final Energy:   -10.38528299925850

   => Energetics <=

    Nuclear Repulsion Energy =              0.6759010272241166
    One-Electron Energy =                 -15.5978796447104457
    Two-Electron Energy =                   6.9757466550581508
    DFT Exchange-Correlation Energy =      -2.4390510368303180
    Empirical Dispersion Energy =           0.0000000000000000
    VV10 Nonlocal Energy =                  0.0000000000000000
    Total Energy =                        -10.3852829992584965

  UHF NO Occupations:
  HONO-2 :    2 A1 1.9999996
  HONO-1 :    3 A1 1.0000000
  HONO-0 :    1 B1 1.0000000
  LUNO+0 :    4 A1 0.0000004
  LUNO+1 :    5 A1 0.0000001
  LUNO+2 :    6 A1 0.0000000
  LUNO+3 :    7 A1 0.0000000

Computation Completed

Properties will be evaluated at   0.000000,   0.000000,   0.000000 [a0]

Properties computed using the SCF density matrix

 Multipole Moments:

 ------------------------------------------------------------------------------------
     Multipole            Electronic (a.u.)      Nuclear  (a.u.)        Total (a.u.)
 ------------------------------------------------------------------------------------

 L = 1.  Multiply by 2.5417464519 to convert [e a0] to [Debye]
 Dipole X            :          0.0000000            0.0000000            0.0000000
 Dipole Y            :          0.0000000            0.0000000            0.0000000
 Dipole Z            :          1.6494960            1.6307758            3.2802718
 Magnitude           :                                                    3.2802718

 ------------------------------------------------------------------------------------

*** tstop() called on Joses-MacBook-Pro-2.local at Thu Jul 17 09:17:38 2025
Module time:
	user time   =       0.60 seconds =       0.01 minutes
	system time =       3.21 seconds =       0.05 minutes
	total time  =          0 seconds =       0.00 minutes
Total time:
	user time   =      26.69 seconds =       0.44 minutes
	system time =     106.25 seconds =       1.77 minutes
	total time  =         13 seconds =       0.22 minutes

*** tstart() called on Joses-MacBook-Pro-2.local
*** at Thu Jul 17 09:17:38 2025

         ------------------------------------------------------------
                                   SCF GRAD
                          Rob Parrish, Justin Turney,
                       Andy Simmonett, and Alex Sokolov
         ------------------------------------------------------------

  ==> Geometry <==

    Molecular point group: c2v
    Full point group: C_inf_v

    Geometry (in Angstrom), charge = -1, multiplicity = 3:

       Center              X                  Y                   Z               Mass
    ------------   -----------------  -----------------  -----------------  -----------------
         HE           0.000000000000     0.000000000000     2.991110026029     4.002603254130
         LI           0.000000000000     0.000000000000    -1.706416884175     7.016003436600

  Nuclear repulsion =    0.675901027224117

  ==> Basis Set <==

  Basis Set: CC-PVDZ
    Blend: CC-PVDZ
    Number of shells: 9
    Number of basis functions: 19
    Number of Cartesian functions: 20
    Spherical Harmonics?: true
    Max angular momentum: 2

  ==> DFJKGrad: Density-Fitted SCF Gradients <==

    Gradient:                    1
    J tasked:                  Yes
    K tasked:                  Yes
    wK tasked:                  No
    OpenMP threads:              1
    Integrals threads:           1
    Memory [MiB]:              375
    Schwarz Cutoff:          1E-12
    Fitting Condition:       1E-10

   => Auxiliary Basis Set <=

  Basis Set: (CC-PVDZ AUX)
    Blend: DEF2-UNIVERSAL-JKFIT
    Number of shells: 26
    Number of basis functions: 74
    Number of Cartesian functions: 85
    Spherical Harmonics?: true
    Max angular momentum: 3

  ==> DFT Potential <==

   => LibXC <=

    Version 6.2.2
    S. Lehtola, C. Steigemann, M. J.T. Oliveira, and M. A.L. Marques.,  SoftwareX 7, 1â€“5 (2018) (10.1016/j.softx.2017.11.002)

   => Composite Functional: B3LYP <=

    B3LYP Hyb-GGA Exchange-Correlation Functional

    P. J. Stephens, F. J. Devlin, C. F. Chabalowski, and M. J. Frisch.,  J. Phys. Chem. 98, 11623 (1994) (10.1021/j100096a001)

    Deriv               =              1
    GGA                 =           TRUE
    Meta                =          FALSE

    Exchange Hybrid     =           TRUE
    MP2 Hybrid          =          FALSE

   => Exchange Functionals <=

    0.0800   Slater exchange
    0.7200         Becke 88

   => Exact (HF) Exchange <=

    0.2000               HF

   => Correlation Functionals <=

    0.1900   Vosko, Wilk & Nusair (VWN5_RPA)
    0.8100   Lee, Yang & Parr

   => LibXC Density Thresholds  <==

    XC_HYB_GGA_XC_B3LYP:  1.00E-15

   => Molecular Quadrature <=

    Radial Scheme          =       TREUTLER
    Pruning Scheme         =           NONE
    Nuclear Scheme         =       TREUTLER

    Blocking Scheme        =         OCTREE
    BS radius alpha        =              1
    Pruning alpha          =              1
    Radial Points          =             75
    Spherical Points       =            302
    Total Points           =          44423
    Total Blocks           =            437
    Max Points             =            255
    Max Functions          =             19
    Weights Tolerance      =       1.00E-15

  -Total Gradient:
     Atom            X                  Y                   Z
    ------   -----------------  -----------------  -----------------
       1       -0.000000000000     0.000000000000    -0.000011424937
       2        0.000000000000    -0.000000000000    -0.000006244573

*** tstop() called on Joses-MacBook-Pro-2.local at Thu Jul 17 09:17:38 2025
Module time:
	user time   =       0.40 seconds =       0.01 minutes
	system time =       0.77 seconds =       0.01 minutes
	total time  =          0 seconds =       0.00 minutes
Total time:
	user time   =      27.09 seconds =       0.45 minutes
	system time =     107.03 seconds =       1.78 minutes
	total time  =         13 seconds =       0.22 minutes

    			-----------------------------------------

    			 OPTKING 3.0: for geometry optimizations

    			     By R.A. King, Bethel University

    			        with contributions from

    			    A.V. Copan, J. Cayton, A. Heide

    			-----------------------------------------

	                            ===> Fragment 1 <==

	 Z (Atomic Numbers)          Masses                          Geom
	       2.000000             4.002603          0.00000000  0.00000000  5.65237876
	       3.000000             7.016003          0.00000000  0.00000000 -3.22466057

	 - Coordinate -           - BOHR/RAD -       - ANG/DEG -
	 R(1,2)           =         8.877039           4.697527

	        --- Internal Coordinate Step in ANG or DEG, aJ/ANG or AJ/DEG ---
	-------------------------------------------------------------------------------
	           Coordinate      Previous         Force          Change          New
	           ----------      --------        ------          ------        ------
	               R(1,2)       4.69753        0.00002        0.01470       4.71223
	-------------------------------------------------------------------------------

	                                 ==> Convergence Check <==

	Measures of convergence in internal coordinates in au.

	Criteria marked as inactive (o), active & met (*), and active & unmet ( ).

	----------------------------------------------------------------------------------------------
	   Step    Total Energy     Delta E     Max Force     RMS Force      Max Disp      RMS Disp
	----------------------------------------------------------------------------------------------
	  Convergence Criteria     1.00e-06 *    3.00e-04 *             o    1.20e-03 *             o
	----------------------------------------------------------------------------------------------
	    25     -10.38528300    2.00e-07 *    2.59e-06 *    2.59e-06 o    2.78e-02      2.78e-02 o  ~
	----------------------------------------------------------------------------------------------

Next Geometry in Ang
	Fragment 1 (Ang)

	   He   0.0000000000   0.0000000000   2.9984603711
	   Li   0.0000000000   0.0000000000  -1.7137672292

    Final optimized geometry and variables:
    Molecular point group: c2v
    Full point group: C_inf_v

    Geometry (in Angstrom), charge = -1, multiplicity = 3:

    HE           0.000000000000     0.000000000000     2.991110026029
    LI           0.000000000000     0.000000000000    -1.706416884175

    Psi4 stopped on: Thursday, 17 July 2025 09:17AM
    Psi4 wall time for execution: 0:00:14.10

*** Psi4 exiting successfully. Buy a developer a beer!
