                               Psi4 1.9.1 release

  ==> Input File <==

--------------------------------------------------------------------------
molecule {
-1 3
F   0.00000        0.60000        0.00000
Si   0.00000       -0.60000        0.00000
}

set {
basis              cc-pvdz
reference          uks
maxiter            500
geom_maxiter       500
DAMPING_PERCENTAGE 1
guess              SAP
}

optimize('b3lyp')
--------------------------------------------------------------------------

    Molecular point group: c2v
  Charge       = -1
  Multiplicity = 3
  Basis Set: CC-PVDZ
    Blend: CC-PVDZ
  Basis Set: (CC-PVDZ AUX)
    Blend: CC-PVDZ-JKFIT
  @DF-UKS Final Energy:  -389.00962669289845
    Total Energy =                       -389.0096266928984505
 Dipole X            :          0.0000000            0.0000000            0.0000000
 Dipole Y            :          0.0000000            0.0000000            0.0000000
 Dipole Z            :          2.0400199           -0.6847767            1.3552433
 Magnitude           :                                                    1.3552433
    Molecular point group: c2v
  Basis Set: CC-PVDZ
    Blend: CC-PVDZ
  Basis Set: (CC-PVDZ AUX)
    Blend: CC-PVDZ-JKFIT
  Basis Set: CC-PVDZ
    Blend: CC-PVDZ
  Basis Set: (CC-PVDZ AUX)
    Blend: CC-PVDZ-JKFIT
  @DF-UKS Final Energy:  -389.19171371905537
    Total Energy =                       -389.1917137190553717
  Basis Set: CC-PVDZ
    Blend: CC-PVDZ
  Basis Set: (CC-PVDZ AUX)
    Blend: CC-PVDZ-JKFIT
  Basis Set: CC-PVDZ
    Blend: CC-PVDZ
  @DF-UKS Final Energy:  -389.28058350087974
    Total Energy =                       -389.2805835008797430
  @DF-UKS Final Energy:  -389.31105239243976
    Total Energy =                       -389.3110523924397626
  @DF-UKS Final Energy:  -389.32778278716586
    Total Energy =                       -389.3277827871658587
  @DF-UKS Final Energy:  -389.33492417111108
    Total Energy =                       -389.3349241711110267
  @DF-UKS Final Energy:  -389.33667487772919
    Total Energy =                       -389.3366748777291946
  @DF-UKS Final Energy:  -389.33717092784286
    Total Energy =                       -389.3371709278428625
  @DF-UKS Final Energy:  -389.33734875590221
    Total Energy =                       -389.3373487559022124
  @DF-UKS Final Energy:  -389.33739041492811
    Total Energy =                       -389.3373904149281088
  Basis Set: (CC-PVDZ AUX)
    Blend: CC-PVDZ-JKFIT
  Basis Set: CC-PVDZ
    Blend: CC-PVDZ
  Basis Set: (CC-PVDZ AUX)
    Blend: CC-PVDZ-JKFIT
  @DF-UKS Final Energy:  -389.33739518872045
    Total Energy =                       -389.3373951887205067
  Basis Set: CC-PVDZ
    Blend: CC-PVDZ
  Basis Set: (CC-PVDZ AUX)
    Blend: CC-PVDZ-JKFIT
  Charge       = -1
  Multiplicity = 3
  Basis Set: CC-PVDZ
    Blend: CC-PVDZ
  Basis Set: (CC-PVDZ AUX)
    Blend: CC-PVDZ-JKFIT

    Orbital Energies [Eh]
    ---------------------

    Alpha Occupied:

       1A1   -65.888553     2A1   -24.404611     3A1    -5.028764
       1B2    -3.388113     1B1    -3.388113     4A1    -3.387130
       5A1    -0.885705     6A1    -0.244567     2B2    -0.151548
       2B1    -0.151548     7A1    -0.098150     3B2     0.081295
       3B1     0.081295

    Alpha Virtual:

       8A1     0.239686     9A1     0.480041     4B2     0.533056
       4B1     0.533056    10A1     0.586874     1A2     0.598992
      11A1     0.598993     5B2     0.654472     5B1     0.654472
      12A1     0.813625     6B2     1.484171     6B1     1.484171
      13A1     1.502955    14A1     2.370745     2A2     3.841942
      15A1     3.842070     7B2     3.870654     7B1     3.870654
      16A1     4.005472

    Beta Occupied:

       1A1   -65.884078     2A1   -24.399560     3A1    -5.023713
       4A1    -3.384732     1B2    -3.378393     1B1    -3.378393
       5A1    -0.874948     6A1    -0.224144     2B2    -0.133662
       2B1    -0.133662     7A1    -0.055598

    Beta Virtual:

       3B2     0.184846     3B1     0.184846     8A1     0.258262
       9A1     0.504038     4B2     0.570751     4B1     0.570751
      10A1     0.594441     1A2     0.670040    11A1     0.670041
       5B2     0.690823     5B1     0.690823    12A1     0.836793
       6B2     1.494043     6B1     1.494043    13A1     1.506557
      14A1     2.377934     2A2     3.854817    15A1     3.854944
       7B1     3.878664     7B2     3.878664    16A1     4.012627

    Final Occupation by Irrep:
             A1    A2    B1    B2
    DOCC [     7,    0,    2,    2 ]
    SOCC [     0,    0,    1,    1 ]
    NA   [     7,    0,    3,    3 ]
    NB   [     7,    0,    2,    2 ]

  @DF-UKS Final Energy:  -389.33739533409204

   => Energetics <=

    Nuclear Repulsion Energy =             38.0164164566850431
    One-Electron Energy =                -622.7850612467377687
    Two-Electron Energy =                 220.9164660384705030
    DFT Exchange-Correlation Energy =     -25.4852165825099064
    Empirical Dispersion Energy =           0.0000000000000000
    VV10 Nonlocal Energy =                  0.0000000000000000
    Total Energy =                       -389.3373953340920934

  UHF NO Occupations:
  HONO-2 :    7 A1 1.9976077
  HONO-1 :    3 B2 1.0000000
  HONO-0 :    3 B1 1.0000000
  LUNO+0 :    8 A1 0.0023923
  LUNO+1 :    4 B1 0.0000665
  LUNO+2 :    4 B2 0.0000665
  LUNO+3 :    9 A1 0.0000122

Computation Completed

Properties will be evaluated at   0.000000,   0.000000,   0.000000 [a0]

Properties computed using the SCF density matrix

 Multipole Moments:

 ------------------------------------------------------------------------------------
     Multipole            Electronic (a.u.)      Nuclear  (a.u.)        Total (a.u.)
 ------------------------------------------------------------------------------------

 L = 1.  Multiply by 2.5417464519 to convert [e a0] to [Debye]
 Dipole X            :          0.0000000            0.0000000            0.0000000
 Dipole Y            :          0.0000000            0.0000000            0.0000000
 Dipole Z            :          1.6256859           -1.0008482            0.6248376
 Magnitude           :                                                    0.6248376

 ------------------------------------------------------------------------------------

*** tstop() called on Joses-MacBook-Pro-2.local at Thu Jul 17 10:53:39 2025
Module time:
	user time   =       2.46 seconds =       0.04 minutes
	system time =       3.94 seconds =       0.07 minutes
	total time  =          1 seconds =       0.02 minutes
Total time:
	user time   =      54.97 seconds =       0.92 minutes
	system time =      67.05 seconds =       1.12 minutes
	total time  =         12 seconds =       0.20 minutes

*** tstart() called on Joses-MacBook-Pro-2.local
*** at Thu Jul 17 10:53:39 2025

         ------------------------------------------------------------
                                   SCF GRAD
                          Rob Parrish, Justin Turney,
                       Andy Simmonett, and Alex Sokolov
         ------------------------------------------------------------

  ==> Geometry <==

    Molecular point group: c2v
    Full point group: C_inf_v

    Geometry (in Angstrom), charge = -1, multiplicity = 3:

       Center              X                  Y                   Z               Mass
    ------------   -----------------  -----------------  -----------------  -----------------
         F            0.000000000000     0.000000000000     1.044553447758    18.998403162730
         SI           0.000000000000     0.000000000000    -0.709329078766    27.976926534650

  Nuclear repulsion =   38.016416456685043

  ==> Basis Set <==

  Basis Set: CC-PVDZ
    Blend: CC-PVDZ
    Number of shells: 14
    Number of basis functions: 32
    Number of Cartesian functions: 34
    Spherical Harmonics?: true
    Max angular momentum: 2

  ==> DFJKGrad: Density-Fitted SCF Gradients <==

    Gradient:                    1
    J tasked:                  Yes
    K tasked:                  Yes
    wK tasked:                  No
    OpenMP threads:              1
    Integrals threads:           1
    Memory [MiB]:              375
    Schwarz Cutoff:          1E-12
    Fitting Condition:       1E-10

   => Auxiliary Basis Set <=

  Basis Set: (CC-PVDZ AUX)
    Blend: CC-PVDZ-JKFIT
    Number of shells: 60
    Number of basis functions: 182
    Number of Cartesian functions: 211
    Spherical Harmonics?: true
    Max angular momentum: 3

  ==> DFT Potential <==

   => LibXC <=

    Version 6.2.2
    S. Lehtola, C. Steigemann, M. J.T. Oliveira, and M. A.L. Marques.,  SoftwareX 7, 1â€“5 (2018) (10.1016/j.softx.2017.11.002)

   => Composite Functional: B3LYP <=

    B3LYP Hyb-GGA Exchange-Correlation Functional

    P. J. Stephens, F. J. Devlin, C. F. Chabalowski, and M. J. Frisch.,  J. Phys. Chem. 98, 11623 (1994) (10.1021/j100096a001)

    Deriv               =              1
    GGA                 =           TRUE
    Meta                =          FALSE

    Exchange Hybrid     =           TRUE
    MP2 Hybrid          =          FALSE

   => Exchange Functionals <=

    0.0800   Slater exchange
    0.7200         Becke 88

   => Exact (HF) Exchange <=

    0.2000               HF

   => Correlation Functionals <=

    0.1900   Vosko, Wilk & Nusair (VWN5_RPA)
    0.8100   Lee, Yang & Parr

   => LibXC Density Thresholds  <==

    XC_HYB_GGA_XC_B3LYP:  1.00E-15

   => Molecular Quadrature <=

    Radial Scheme          =       TREUTLER
    Pruning Scheme         =           NONE
    Nuclear Scheme         =       TREUTLER

    Blocking Scheme        =         OCTREE
    BS radius alpha        =              1
    Pruning alpha          =              1
    Radial Points          =             75
    Spherical Points       =            302
    Total Points           =          42922
    Total Blocks           =            395
    Max Points             =            254
    Max Functions          =             32
    Weights Tolerance      =       1.00E-15

  -Total Gradient:
     Atom            X                  Y                   Z
    ------   -----------------  -----------------  -----------------
       1        0.000000000000    -0.000000000000    -0.000073778277
       2        0.000000000000     0.000000000000    -0.000010855291

*** tstop() called on Joses-MacBook-Pro-2.local at Thu Jul 17 10:53:39 2025
Module time:
	user time   =       0.91 seconds =       0.02 minutes
	system time =       1.59 seconds =       0.03 minutes
	total time  =          0 seconds =       0.00 minutes
Total time:
	user time   =      55.88 seconds =       0.93 minutes
	system time =      68.64 seconds =       1.14 minutes
	total time  =         12 seconds =       0.20 minutes

    			-----------------------------------------

    			 OPTKING 3.0: for geometry optimizations

    			     By R.A. King, Bethel University

    			        with contributions from

    			    A.V. Copan, J. Cayton, A. Heide

    			-----------------------------------------

	                            ===> Fragment 1 <==

	 Z (Atomic Numbers)          Masses                          Geom
	       9.000000            18.998403          0.00000000  0.00000000  1.97391994
	      14.000000            27.976927          0.00000000  0.00000000 -1.34043769

	 - Coordinate -           - BOHR/RAD -       - ANG/DEG -
	 R(1,2)           =         3.314358           1.753883

	        --- Internal Coordinate Step in ANG or DEG, aJ/ANG or AJ/DEG ---
	-------------------------------------------------------------------------------
	           Coordinate      Previous         Force          Change          New
	           ----------      --------        ------          ------        ------
	               R(1,2)       1.75388        0.00026        0.00008       1.75397
	-------------------------------------------------------------------------------

	                                 ==> Convergence Check <==

	Measures of convergence in internal coordinates in au.

	Criteria marked as inactive (o), active & met (*), and active & unmet ( ).

	----------------------------------------------------------------------------------------------
	   Step    Total Energy     Delta E     Max Force     RMS Force      Max Disp      RMS Disp
	----------------------------------------------------------------------------------------------
	  Convergence Criteria     1.00e-06 *    3.00e-04 *             o    1.20e-03 *             o
	----------------------------------------------------------------------------------------------
	    12    -389.33739533   -1.45e-07 *    3.15e-05 *    3.15e-05 o    1.56e-04 *    1.56e-04 o  ~
	----------------------------------------------------------------------------------------------

Next Geometry in Ang
	Fragment 1 (Ang)

	    F   0.0000000000   0.0000000000   1.0445948416
	   Si   0.0000000000   0.0000000000  -0.7093704726

    Final optimized geometry and variables:
    Molecular point group: c2v
    Full point group: C_inf_v

    Geometry (in Angstrom), charge = -1, multiplicity = 3:

    F            0.000000000000     0.000000000000     1.044553447758
    SI           0.000000000000     0.000000000000    -0.709329078766

    Psi4 stopped on: Thursday, 17 July 2025 10:53AM
    Psi4 wall time for execution: 0:00:13.02

*** Psi4 exiting successfully. Buy a developer a beer!
