                               Psi4 1.9.1 release

  ==> Input File <==

--------------------------------------------------------------------------
molecule {
-1 3
Si   0.00000        0.60000        0.00000
P   0.00000       -0.60000        0.00000
}

set {
basis              cc-pvdz
reference          uks
maxiter            500
geom_maxiter       500
DAMPING_PERCENTAGE 1
guess              SAP
}

optimize('b3lyp')
--------------------------------------------------------------------------

    Molecular point group: c2v
  Charge       = -1
  Multiplicity = 3
  Basis Set: CC-PVDZ
    Blend: CC-PVDZ
  Basis Set: (CC-PVDZ AUX)
    Blend: CC-PVDZ-JKFIT
  @DF-UKS Final Energy:  -629.59094297262118
    Total Energy =                       -629.5909429726211783
 Dipole X            :          0.0000000            0.0000000            0.0000000
 Dipole Y            :          0.0000000            0.0000000            0.0000000
 Dipole Z            :         -1.1023803            0.5377250           -0.5646553
 Magnitude           :                                                    0.5646553
    Molecular point group: c2v
  Basis Set: CC-PVDZ
    Blend: CC-PVDZ
  Basis Set: (CC-PVDZ AUX)
    Blend: CC-PVDZ-JKFIT
  Basis Set: CC-PVDZ
    Blend: CC-PVDZ
  Basis Set: (CC-PVDZ AUX)
    Blend: CC-PVDZ-JKFIT
  @DF-UKS Final Energy:  -629.61882023851035
    Total Energy =                       -629.6188202385103523
  Basis Set: CC-PVDZ
    Blend: CC-PVDZ
  Basis Set: (CC-PVDZ AUX)
    Blend: CC-PVDZ-JKFIT
  Basis Set: CC-PVDZ
    Blend: CC-PVDZ
  @DF-UKS Final Energy:  -629.67194207719763
    Total Energy =                       -629.6719420771976274
  @DF-UKS Final Energy:  -629.85724921892756
    Total Energy =                       -629.8572492189274499
  @DF-UKS Final Energy:  -630.45011342269913
    Total Energy =                       -630.4501134226991326
  @DF-UKS Final Energy:  -630.64717425748222
    Total Energy =                       -630.6471742574822201
  @DF-UKS Final Energy:  -630.73828083497369
    Total Energy =                       -630.7382808349736933
  @DF-UKS Final Energy:  -630.77353983135629
    Total Energy =                       -630.7735398313562882
  @DF-UKS Final Energy:  -630.78522958037081
    Total Energy =                       -630.7852295803706966
  @DF-UKS Final Energy:  -630.78752644441295
    Total Energy =                       -630.7875264444129471
  @DF-UKS Final Energy:  -630.78815502014743
    Total Energy =                       -630.7881550201474283
  @DF-UKS Final Energy:  -630.78822869385021
    Total Energy =                       -630.7882286938503285
  Basis Set: (CC-PVDZ AUX)
    Blend: CC-PVDZ-JKFIT
  Basis Set: CC-PVDZ
    Blend: CC-PVDZ
  Basis Set: (CC-PVDZ AUX)
    Blend: CC-PVDZ-JKFIT
  @DF-UKS Final Energy:  -630.78823797002690
    Total Energy =                       -630.7882379700268984
  Basis Set: CC-PVDZ
    Blend: CC-PVDZ
  Basis Set: (CC-PVDZ AUX)
    Blend: CC-PVDZ-JKFIT
  Charge       = -1
  Multiplicity = 3
  Basis Set: CC-PVDZ
    Blend: CC-PVDZ
  Basis Set: (CC-PVDZ AUX)
    Blend: CC-PVDZ-JKFIT

    Orbital Energies [Eh]
    ---------------------

    Alpha Occupied:

       1A1   -76.844780     2A1   -65.925118     3A1    -6.313342
       4A1    -5.068443     5A1    -4.480187     1B1    -4.473193
       1B2    -4.471032     6A1    -3.429817     2B1    -3.427025
       2B2    -3.424772     7A1    -0.370437     8A1    -0.196500
       9A1    -0.051330     3B2    -0.020165     3B1    -0.013161
       4B2     0.082251

    Alpha Virtual:

       4B1     0.132584    10A1     0.247495    11A1     0.423985
      12A1     0.469053     5B1     0.493534     5B2     0.494598
       6B2     0.549288     6B1     0.553432    13A1     0.558655
       1A2     0.568877    14A1     0.570583     7B1     0.666500
       7B2     0.666775    15A1     0.736779     2A2     0.743236
      16A1     0.744036    17A1     0.873033     8B2     0.908620
       8B1     0.908620    18A1     1.207289

    Beta Occupied:

       1A1   -76.841143     2A1   -65.921491     3A1    -6.309517
       4A1    -5.064315     5A1    -4.471309     1B1    -4.471177
       1B2    -4.464762     2B1    -3.424727     6A1    -3.422322
       2B2    -3.417132     7A1    -0.336933     8A1    -0.143659
       3B1    -0.004584     3B2     0.013718

    Beta Virtual:

       9A1     0.048471     4B1     0.148458     4B2     0.170001
      10A1     0.272249    11A1     0.442795    12A1     0.500854
       5B1     0.504162     5B2     0.519655     6B1     0.578423
      13A1     0.588114     1A2     0.596496     6B2     0.597519
      14A1     0.599368     7B1     0.671731     7B2     0.685868
      15A1     0.755255     2A2     0.763849    16A1     0.764994
      17A1     0.898843     8B1     0.931202     8B2     0.948496
      18A1     1.234736

    Final Occupation by Irrep:
             A1    A2    B1    B2
    DOCC [     8,    0,    3,    3 ]
    SOCC [     1,    0,    0,    1 ]
    NA   [     9,    0,    3,    4 ]
    NB   [     8,    0,    3,    3 ]

  @DF-UKS Final Energy:  -630.78823930017347

   => Energetics <=

    Nuclear Repulsion Energy =             52.4621000255557419
    One-Electron Energy =                -984.3788767924834247
    Two-Electron Energy =                 336.8168391576984959
    DFT Exchange-Correlation Energy =     -35.6883016909442716
    Empirical Dispersion Energy =           0.0000000000000000
    VV10 Nonlocal Energy =                  0.0000000000000000
    Total Energy =                       -630.7882393001734727

  UHF NO Occupations:
  HONO-2 :    8 A1 1.9982761
  HONO-1 :    4 B2 1.0000000
  HONO-0 :    9 A1 1.0000000
  LUNO+0 :   10 A1 0.0017239
  LUNO+1 :    5 B2 0.0010598
  LUNO+2 :   11 A1 0.0003855
  LUNO+3 :    4 B1 0.0001966

Computation Completed

Properties will be evaluated at   0.000000,   0.000000,   0.000000 [a0]

Properties computed using the SCF density matrix

 Multipole Moments:

 ------------------------------------------------------------------------------------
     Multipole            Electronic (a.u.)      Nuclear  (a.u.)        Total (a.u.)
 ------------------------------------------------------------------------------------

 L = 1.  Multiply by 2.5417464519 to convert [e a0] to [Debye]
 Dipole X            :          0.0000000            0.0000000            0.0000000
 Dipole Y            :          0.0000000            0.0000000            0.0000000
 Dipole Z            :         -0.9734510            0.9491912           -0.0242598
 Magnitude           :                                                    0.0242598

 ------------------------------------------------------------------------------------

*** tstop() called on Joses-MacBook-Pro-2.local at Thu Jul 17 11:48:45 2025
Module time:
	user time   =       8.30 seconds =       0.14 minutes
	system time =       1.29 seconds =       0.02 minutes
	total time  =          1 seconds =       0.02 minutes
Total time:
	user time   =     196.74 seconds =       3.28 minutes
	system time =      36.58 seconds =       0.61 minutes
	total time  =         22 seconds =       0.37 minutes

*** tstart() called on Joses-MacBook-Pro-2.local
*** at Thu Jul 17 11:48:45 2025

         ------------------------------------------------------------
                                   SCF GRAD
                          Rob Parrish, Justin Turney,
                       Andy Simmonett, and Alex Sokolov
         ------------------------------------------------------------

  ==> Geometry <==

    Molecular point group: c2v
    Full point group: C_inf_v

    Geometry (in Angstrom), charge = -1, multiplicity = 3:

       Center              X                  Y                   Z               Mass
    ------------   -----------------  -----------------  -----------------  -----------------
         SI           0.000000000000     0.000000000000     1.112960705647    27.976926534650
         P            0.000000000000     0.000000000000    -1.005277302106    30.973761998420

  Nuclear repulsion =   52.462100025555742

  ==> Basis Set <==

  Basis Set: CC-PVDZ
    Blend: CC-PVDZ
    Number of shells: 16
    Number of basis functions: 36
    Number of Cartesian functions: 38
    Spherical Harmonics?: true
    Max angular momentum: 2

  ==> DFJKGrad: Density-Fitted SCF Gradients <==

    Gradient:                    1
    J tasked:                  Yes
    K tasked:                  Yes
    wK tasked:                  No
    OpenMP threads:              1
    Integrals threads:           1
    Memory [MiB]:              375
    Schwarz Cutoff:          1E-12
    Fitting Condition:       1E-10

   => Auxiliary Basis Set <=

  Basis Set: (CC-PVDZ AUX)
    Blend: CC-PVDZ-JKFIT
    Number of shells: 72
    Number of basis functions: 224
    Number of Cartesian functions: 260
    Spherical Harmonics?: true
    Max angular momentum: 3

  ==> DFT Potential <==

   => LibXC <=

    Version 6.2.2
    S. Lehtola, C. Steigemann, M. J.T. Oliveira, and M. A.L. Marques.,  SoftwareX 7, 1â€“5 (2018) (10.1016/j.softx.2017.11.002)

   => Composite Functional: B3LYP <=

    B3LYP Hyb-GGA Exchange-Correlation Functional

    P. J. Stephens, F. J. Devlin, C. F. Chabalowski, and M. J. Frisch.,  J. Phys. Chem. 98, 11623 (1994) (10.1021/j100096a001)

    Deriv               =              1
    GGA                 =           TRUE
    Meta                =          FALSE

    Exchange Hybrid     =           TRUE
    MP2 Hybrid          =          FALSE

   => Exchange Functionals <=

    0.0800   Slater exchange
    0.7200         Becke 88

   => Exact (HF) Exchange <=

    0.2000               HF

   => Correlation Functionals <=

    0.1900   Vosko, Wilk & Nusair (VWN5_RPA)
    0.8100   Lee, Yang & Parr

   => LibXC Density Thresholds  <==

    XC_HYB_GGA_XC_B3LYP:  1.00E-15

   => Molecular Quadrature <=

    Radial Scheme          =       TREUTLER
    Pruning Scheme         =           NONE
    Nuclear Scheme         =       TREUTLER

    Blocking Scheme        =         OCTREE
    BS radius alpha        =              1
    Pruning alpha          =              1
    Radial Points          =             75
    Spherical Points       =            302
    Total Points           =          41600
    Total Blocks           =            382
    Max Points             =            256
    Max Functions          =             36
    Weights Tolerance      =       1.00E-15

  -Total Gradient:
     Atom            X                  Y                   Z
    ------   -----------------  -----------------  -----------------
       1        0.000000000000    -0.000000000000    -0.000127493136
       2       -0.000000000000     0.000000000000     0.000136292122

*** tstop() called on Joses-MacBook-Pro-2.local at Thu Jul 17 11:48:46 2025
Module time:
	user time   =       2.51 seconds =       0.04 minutes
	system time =       0.98 seconds =       0.02 minutes
	total time  =          1 seconds =       0.02 minutes
Total time:
	user time   =     199.25 seconds =       3.32 minutes
	system time =      37.57 seconds =       0.63 minutes
	total time  =         23 seconds =       0.38 minutes

    			-----------------------------------------

    			 OPTKING 3.0: for geometry optimizations

    			     By R.A. King, Bethel University

    			        with contributions from

    			    A.V. Copan, J. Cayton, A. Heide

    			-----------------------------------------

	                            ===> Fragment 1 <==

	 Z (Atomic Numbers)          Masses                          Geom
	      14.000000            27.976927          0.00000000  0.00000000  2.10319092
	      15.000000            30.973762          0.00000000  0.00000000 -1.89969878

	 - Coordinate -           - BOHR/RAD -       - ANG/DEG -
	 R(1,2)           =         4.002890           2.118238

	        --- Internal Coordinate Step in ANG or DEG, aJ/ANG or AJ/DEG ---
	-------------------------------------------------------------------------------
	           Coordinate      Previous         Force          Change          New
	           ----------      --------        ------          ------        ------
	               R(1,2)       2.11824        0.00109        0.00038       2.11862
	-------------------------------------------------------------------------------

	                                 ==> Convergence Check <==

	Measures of convergence in internal coordinates in au.

	Criteria marked as inactive (o), active & met (*), and active & unmet ( ).

	----------------------------------------------------------------------------------------------
	   Step    Total Energy     Delta E     Max Force     RMS Force      Max Disp      RMS Disp
	----------------------------------------------------------------------------------------------
	  Convergence Criteria     1.00e-06 *    3.00e-04 *             o    1.20e-03 *             o
	----------------------------------------------------------------------------------------------
	    14    -630.78823930   -1.33e-06      1.32e-04 *    1.32e-04 o    7.15e-04 *    7.15e-04 o  ~
	----------------------------------------------------------------------------------------------

Next Geometry in Ang
	Fragment 1 (Ang)

	   Si   0.0000000000   0.0000000000   1.1131499091
	    P   0.0000000000   0.0000000000  -1.0054665055

    Final optimized geometry and variables:
    Molecular point group: c2v
    Full point group: C_inf_v

    Geometry (in Angstrom), charge = -1, multiplicity = 3:

    SI           0.000000000000     0.000000000000     1.112960705647
    P            0.000000000000     0.000000000000    -1.005277302106

    Psi4 stopped on: Thursday, 17 July 2025 11:48AM
    Psi4 wall time for execution: 0:00:23.46

*** Psi4 exiting successfully. Buy a developer a beer!
