                               Psi4 1.9.1 release

  ==> Input File <==

--------------------------------------------------------------------------
molecule {
-1 3
Ne   0.00000        0.60000        0.00000
Al   0.00000       -0.60000        0.00000
}

set {
basis              cc-pvdz
reference          uks
maxiter            500
geom_maxiter       500
DAMPING_PERCENTAGE 1
guess              SAP
}

optimize('b3lyp')
--------------------------------------------------------------------------

    Molecular point group: c2v
  Charge       = -1
  Multiplicity = 3
  Basis Set: CC-PVDZ
    Blend: CC-PVDZ
  Basis Set: (CC-PVDZ AUX)
    Blend: CC-PVDZ-JKFIT
  @DF-UKS Final Energy:  -370.80193833593739
    Total Energy =                       -370.8019383359374501
 Dipole X            :          0.0000000            0.0000000            0.0000000
 Dipole Y            :          0.0000000            0.0000000            0.0000000
 Dipole Z            :          1.7056009            0.4785826            2.1841835
 Magnitude           :                                                    2.1841835
    Molecular point group: c2v
  Basis Set: CC-PVDZ
    Blend: CC-PVDZ
  Basis Set: (CC-PVDZ AUX)
    Blend: CC-PVDZ-JKFIT
  Basis Set: CC-PVDZ
    Blend: CC-PVDZ
  Basis Set: (CC-PVDZ AUX)
    Blend: CC-PVDZ-JKFIT
  @DF-UKS Final Energy:  -371.01473322178219
    Total Energy =                       -371.0147332217821941
  Basis Set: CC-PVDZ
    Blend: CC-PVDZ
  Basis Set: (CC-PVDZ AUX)
    Blend: CC-PVDZ-JKFIT
  Basis Set: CC-PVDZ
    Blend: CC-PVDZ
  @DF-UKS Final Energy:  -371.12922488400886
    Total Energy =                       -371.1292248840088632
  @DF-UKS Final Energy:  -371.19614328496903
    Total Energy =                       -371.1961432849690254
  @DF-UKS Final Energy:  -371.23590601259775
    Total Energy =                       -371.2359060125977521
  @DF-UKS Final Energy:  -371.25949554359818
    Total Energy =                       -371.2594955435981774
  @DF-UKS Final Energy:  -371.27403047203421
    Total Energy =                       -371.2740304720342124
  @DF-UKS Final Energy:  -371.28296624551837
    Total Energy =                       -371.2829662455183666
  @DF-UKS Final Energy:  -371.28820856987704
    Total Energy =                       -371.2882085698770425
  @DF-UKS Final Energy:  -371.29102405690350
    Total Energy =                       -371.2910240569034954
  @DF-UKS Final Energy:  -371.29236456818262
    Total Energy =                       -371.2923645681826201
  @DF-UKS Final Energy:  -371.29291620733983
    Total Energy =                       -371.2929162073398288
  @DF-UKS Final Energy:  -371.29309836786177
    Total Energy =                       -371.2930983678618304
  @DF-UKS Final Energy:  -371.29314111883917
    Total Energy =                       -371.2931411188391735
  @DF-UKS Final Energy:  -371.29314764844042
    Total Energy =                       -371.2931476484404243
  Basis Set: (CC-PVDZ AUX)
    Blend: CC-PVDZ-JKFIT
  Basis Set: CC-PVDZ
    Blend: CC-PVDZ
  Basis Set: (CC-PVDZ AUX)
    Blend: CC-PVDZ-JKFIT
  @DF-UKS Final Energy:  -371.29314876508630
    Total Energy =                       -371.2931487650863005
  Basis Set: CC-PVDZ
    Blend: CC-PVDZ
  Basis Set: (CC-PVDZ AUX)
    Blend: CC-PVDZ-JKFIT
  Charge       = -1
  Multiplicity = 3
  Basis Set: CC-PVDZ
    Blend: CC-PVDZ
  Basis Set: (CC-PVDZ AUX)
    Blend: CC-PVDZ-JKFIT

    Orbital Energies [Eh]
    ---------------------

    Alpha Occupied:

       1A1   -55.817291     2A1   -30.833122     3A1    -3.897860
       4A1    -2.452483     1B2    -2.449847     1B1    -2.449847
       5A1    -1.297655     6A1    -0.406641     2B1    -0.406009
       2B2    -0.406009     7A1    -0.095264     3B2     0.079251
       3B1     0.079251

    Alpha Virtual:

       8A1     0.132249     9A1     0.359532     4B2     0.418816
       4B1     0.418816    10A1     0.432211     1A2     0.477668
      11A1     0.477668     5B2     0.482257     5B1     0.482257
      12A1     0.489407     6B1     1.497366     6B2     1.497366
      13A1     1.530947    14A1     2.020501     2A2     4.859357
       7B2     4.859455     7B1     4.859455    15A1     4.859678
      16A1     4.860018

    Beta Occupied:

       1A1   -55.814825     2A1   -30.833070     3A1    -3.894920
       4A1    -2.451196     1B2    -2.444107     1B1    -2.444107
       5A1    -1.297568     6A1    -0.406670     2B2    -0.405870
       2B1    -0.405870     7A1    -0.053305

    Beta Virtual:

       8A1     0.142916     3B2     0.161209     3B1     0.161209
       9A1     0.379391    10A1     0.436126     4B2     0.449748
       4B1     0.449748    11A1     0.506850     5B2     0.512779
       5B1     0.512779    12A1     0.533039     1A2     0.533039
       6B1     1.497470     6B2     1.497470    13A1     1.531248
      14A1     2.021061     2A2     4.859468     7B2     4.859510
       7B1     4.859510    15A1     4.859789    16A1     4.860054

    Final Occupation by Irrep:
             A1    A2    B1    B2
    DOCC [     7,    0,    2,    2 ]
    SOCC [     0,    0,    1,    1 ]
    NA   [     7,    0,    3,    3 ]
    NB   [     7,    0,    2,    2 ]

  @DF-UKS Final Energy:  -371.29314901330042

   => Energetics <=

    Nuclear Repulsion Energy =             20.2614395776742739
    One-Electron Energy =                -564.2812047671742448
    Two-Electron Energy =                 197.9552911053757782
    DFT Exchange-Correlation Energy =     -25.2286749291762931
    Empirical Dispersion Energy =           0.0000000000000000
    VV10 Nonlocal Energy =                  0.0000000000000000
    Total Energy =                       -371.2931490133004786

  UHF NO Occupations:
  HONO-2 :    7 A1 1.9983183
  HONO-1 :    3 B2 1.0000000
  HONO-0 :    3 B1 1.0000000
  LUNO+0 :    8 A1 0.0016817
  LUNO+1 :    9 A1 0.0000001
  LUNO+2 :   10 A1 0.0000000
  LUNO+3 :    4 B2 0.0000000

Computation Completed

Properties will be evaluated at   0.000000,   0.000000,   0.000000 [a0]

Properties computed using the SCF density matrix

 Multipole Moments:

 ------------------------------------------------------------------------------------
     Multipole            Electronic (a.u.)      Nuclear  (a.u.)        Total (a.u.)
 ------------------------------------------------------------------------------------

 L = 1.  Multiply by 2.5417464519 to convert [e a0] to [Debye]
 Dipole X            :          0.0000000            0.0000000            0.0000000
 Dipole Y            :          0.0000000            0.0000000            0.0000000
 Dipole Z            :          1.4414820            1.3540973            2.7955793
 Magnitude           :                                                    2.7955793

 ------------------------------------------------------------------------------------

*** tstop() called on Joses-MacBook-Pro-2.local at Thu Jul 17 11:00:05 2025
Module time:
	user time   =       2.59 seconds =       0.04 minutes
	system time =       3.10 seconds =       0.05 minutes
	total time  =          1 seconds =       0.02 minutes
Total time:
	user time   =      83.94 seconds =       1.40 minutes
	system time =      97.07 seconds =       1.62 minutes
	total time  =         19 seconds =       0.32 minutes

*** tstart() called on Joses-MacBook-Pro-2.local
*** at Thu Jul 17 11:00:05 2025

         ------------------------------------------------------------
                                   SCF GRAD
                          Rob Parrish, Justin Turney,
                       Andy Simmonett, and Alex Sokolov
         ------------------------------------------------------------

  ==> Geometry <==

    Molecular point group: c2v
    Full point group: C_inf_v

    Geometry (in Angstrom), charge = -1, multiplicity = 3:

       Center              X                  Y                   Z               Mass
    ------------   -----------------  -----------------  -----------------  -----------------
         NE           0.000000000000     0.000000000000     1.950219748432    19.992440176200
         AL           0.000000000000     0.000000000000    -1.445049236448    26.981538530000

  Nuclear repulsion =   20.261439577674274

  ==> Basis Set <==

  Basis Set: CC-PVDZ
    Blend: CC-PVDZ
    Number of shells: 14
    Number of basis functions: 32
    Number of Cartesian functions: 34
    Spherical Harmonics?: true
    Max angular momentum: 2

  ==> DFJKGrad: Density-Fitted SCF Gradients <==

    Gradient:                    1
    J tasked:                  Yes
    K tasked:                  Yes
    wK tasked:                  No
    OpenMP threads:              1
    Integrals threads:           1
    Memory [MiB]:              375
    Schwarz Cutoff:          1E-12
    Fitting Condition:       1E-10

   => Auxiliary Basis Set <=

  Basis Set: (CC-PVDZ AUX)
    Blend: CC-PVDZ-JKFIT
    Number of shells: 60
    Number of basis functions: 182
    Number of Cartesian functions: 211
    Spherical Harmonics?: true
    Max angular momentum: 3

  ==> DFT Potential <==

   => LibXC <=

    Version 6.2.2
    S. Lehtola, C. Steigemann, M. J.T. Oliveira, and M. A.L. Marques.,  SoftwareX 7, 1â€“5 (2018) (10.1016/j.softx.2017.11.002)

   => Composite Functional: B3LYP <=

    B3LYP Hyb-GGA Exchange-Correlation Functional

    P. J. Stephens, F. J. Devlin, C. F. Chabalowski, and M. J. Frisch.,  J. Phys. Chem. 98, 11623 (1994) (10.1021/j100096a001)

    Deriv               =              1
    GGA                 =           TRUE
    Meta                =          FALSE

    Exchange Hybrid     =           TRUE
    MP2 Hybrid          =          FALSE

   => Exchange Functionals <=

    0.0800   Slater exchange
    0.7200         Becke 88

   => Exact (HF) Exchange <=

    0.2000               HF

   => Correlation Functionals <=

    0.1900   Vosko, Wilk & Nusair (VWN5_RPA)
    0.8100   Lee, Yang & Parr

   => LibXC Density Thresholds  <==

    XC_HYB_GGA_XC_B3LYP:  1.00E-15

   => Molecular Quadrature <=

    Radial Scheme          =       TREUTLER
    Pruning Scheme         =           NONE
    Nuclear Scheme         =       TREUTLER

    Blocking Scheme        =         OCTREE
    BS radius alpha        =              1
    Pruning alpha          =              1
    Radial Points          =             75
    Spherical Points       =            302
    Total Points           =          43551
    Total Blocks           =            410
    Max Points             =            253
    Max Functions          =             32
    Weights Tolerance      =       1.00E-15

  -Total Gradient:
     Atom            X                  Y                   Z
    ------   -----------------  -----------------  -----------------
       1        0.000000000000     0.000000000000     0.000019410459
       2        0.000000000000     0.000000000000     0.000023351756

*** tstop() called on Joses-MacBook-Pro-2.local at Thu Jul 17 11:00:05 2025
Module time:
	user time   =       1.01 seconds =       0.02 minutes
	system time =       1.56 seconds =       0.03 minutes
	total time  =          0 seconds =       0.00 minutes
Total time:
	user time   =      84.95 seconds =       1.42 minutes
	system time =      98.63 seconds =       1.64 minutes
	total time  =         19 seconds =       0.32 minutes

    			-----------------------------------------

    			 OPTKING 3.0: for geometry optimizations

    			     By R.A. King, Bethel University

    			        with contributions from

    			    A.V. Copan, J. Cayton, A. Heide

    			-----------------------------------------

	                            ===> Fragment 1 <==

	 Z (Atomic Numbers)          Masses                          Geom
	      10.000000            19.992440          0.00000000  0.00000000  3.68538121
	      13.000000            26.981539          0.00000000  0.00000000 -2.73074729

	 - Coordinate -           - BOHR/RAD -       - ANG/DEG -
	 R(1,2)           =         6.416129           3.395269

	        --- Internal Coordinate Step in ANG or DEG, aJ/ANG or AJ/DEG ---
	-------------------------------------------------------------------------------
	           Coordinate      Previous         Force          Change          New
	           ----------      --------        ------          ------        ------
	               R(1,2)       3.39527        0.00002        0.00044       3.39571
	-------------------------------------------------------------------------------

	                                 ==> Convergence Check <==

	Measures of convergence in internal coordinates in au.

	Criteria marked as inactive (o), active & met (*), and active & unmet ( ).

	----------------------------------------------------------------------------------------------
	   Step    Total Energy     Delta E     Max Force     RMS Force      Max Disp      RMS Disp
	----------------------------------------------------------------------------------------------
	  Convergence Criteria     1.00e-06 *    3.00e-04 *             o    1.20e-03 *             o
	----------------------------------------------------------------------------------------------
	    17    -371.29314901   -2.48e-07 *    1.97e-06 *    1.97e-06 o    8.37e-04 *    8.37e-04 o  ~
	----------------------------------------------------------------------------------------------

Next Geometry in Ang
	Fragment 1 (Ang)

	   Ne   0.0000000000   0.0000000000   1.9504412597
	   Al   0.0000000000   0.0000000000  -1.4452707477

    Final optimized geometry and variables:
    Molecular point group: c2v
    Full point group: C_inf_v

    Geometry (in Angstrom), charge = -1, multiplicity = 3:

    NE           0.000000000000     0.000000000000     1.950219748432
    AL           0.000000000000     0.000000000000    -1.445049236448

    Psi4 stopped on: Thursday, 17 July 2025 11:00AM
    Psi4 wall time for execution: 0:00:19.43

*** Psi4 exiting successfully. Buy a developer a beer!
