                               Psi4 1.9.1 release

  ==> Input File <==

--------------------------------------------------------------------------
molecule {
-1 3
Be   0.00000        0.60000        0.00000
Al   0.00000       -0.60000        0.00000
}

set {
basis              cc-pvdz
reference          uks
maxiter            500
geom_maxiter       500
DAMPING_PERCENTAGE 1
guess              SAP
}

optimize('b3lyp')
--------------------------------------------------------------------------

    Molecular point group: c2v
  Charge       = -1
  Multiplicity = 3
  Basis Set: CC-PVDZ
    Blend: CC-PVDZ
  Basis Set: (CC-PVDZ AUX)
    Blend: CC-PVDZ-JKFIT + DEF2-UNIVERSAL-JKFIT
  @DF-UKS Final Energy:  -256.62001742170850
    Total Energy =                       -256.6200174217084964
 Dipole X            :          0.0000000            0.0000000            0.0000000
 Dipole Y            :          0.0000000            0.0000000            0.0000000
 Dipole Z            :          0.0127633           -0.5816474           -0.5688841
 Magnitude           :                                                    0.5688841
    Molecular point group: c2v
  Basis Set: CC-PVDZ
    Blend: CC-PVDZ
  Basis Set: (CC-PVDZ AUX)
    Blend: CC-PVDZ-JKFIT + DEF2-UNIVERSAL-JKFIT
  Basis Set: CC-PVDZ
    Blend: CC-PVDZ
  Basis Set: (CC-PVDZ AUX)
    Blend: CC-PVDZ-JKFIT + DEF2-UNIVERSAL-JKFIT
  @DF-UKS Final Energy:  -256.73830618352474
    Total Energy =                       -256.7383061835247418
  Basis Set: CC-PVDZ
    Blend: CC-PVDZ
  Basis Set: (CC-PVDZ AUX)
    Blend: CC-PVDZ-JKFIT + DEF2-UNIVERSAL-JKFIT
  Basis Set: CC-PVDZ
    Blend: CC-PVDZ
  @DF-UKS Final Energy:  -256.86532139560552
    Total Energy =                       -256.8653213956055197
  @DF-UKS Final Energy:  -256.97661499697813
    Total Energy =                       -256.9766149969781281
  @DF-UKS Final Energy:  -257.06563038462787
    Total Energy =                       -257.0656303846278661
  @DF-UKS Final Energy:  -257.10164139943561
    Total Energy =                       -257.1016413994356071
  @DF-UKS Final Energy:  -257.10674870358287
    Total Energy =                       -257.1067487035828663
  @DF-UKS Final Energy:  -257.10856732962003
    Total Energy =                       -257.1085673296200298
  @DF-UKS Final Energy:  -257.10878212733996
    Total Energy =                       -257.1087821273399641
  @DF-UKS Final Energy:  -257.10881072042105
    Total Energy =                       -257.1088107204210473
  Basis Set: (CC-PVDZ AUX)
    Blend: CC-PVDZ-JKFIT + DEF2-UNIVERSAL-JKFIT
  Basis Set: CC-PVDZ
    Blend: CC-PVDZ
  Basis Set: (CC-PVDZ AUX)
    Blend: CC-PVDZ-JKFIT + DEF2-UNIVERSAL-JKFIT
  @DF-UKS Final Energy:  -257.10881480031668
    Total Energy =                       -257.1088148003166793
  Basis Set: CC-PVDZ
    Blend: CC-PVDZ
  Basis Set: (CC-PVDZ AUX)
    Blend: CC-PVDZ-JKFIT + DEF2-UNIVERSAL-JKFIT
  Charge       = -1
  Multiplicity = 3
  Basis Set: CC-PVDZ
    Blend: CC-PVDZ
  Basis Set: (CC-PVDZ AUX)
    Blend: CC-PVDZ-JKFIT + DEF2-UNIVERSAL-JKFIT

    Orbital Energies [Eh]
    ---------------------

    Alpha Occupied:

       1A1   -55.849553     2A1    -3.930660     3A1    -3.862226
       1B2    -2.483625     1B1    -2.483625     4A1    -2.482919
       5A1    -0.163109     6A1    -0.027005     2B1     0.035826
       2B2     0.035826

    Alpha Virtual:

       7A1     0.092104     3B2     0.153551     3B1     0.153551
       8A1     0.226139     9A1     0.312382    10A1     0.353322
       4B1     0.353617     4B2     0.353617     5B1     0.410962
       5B2     0.410962    11A1     0.426008    12A1     0.444523
       1A2     0.444523     6B2     0.486664     6B1     0.486664
      13A1     0.516925     2A2     0.680026    14A1     0.680027
      15A1     0.723891     7B1     0.822571     7B2     0.822571
      16A1     0.976450

    Beta Occupied:

       1A1   -55.847476     2A1    -3.928101     3A1    -3.860231
       4A1    -2.481360     1B2    -2.479049     1B1    -2.479049
       5A1    -0.125008     6A1    -0.010510

    Beta Virtual:

       7A1     0.095374     2B1     0.108968     2B2     0.108968
       3B2     0.178313     3B1     0.178313     8A1     0.234255
       9A1     0.329988    10A1     0.357585     4B1     0.373001
       4B2     0.373001     5B1     0.430981     5B2     0.430981
      11A1     0.433434     1A2     0.487474    12A1     0.487474
       6B2     0.510686     6B1     0.510686    13A1     0.531710
       2A2     0.709559    14A1     0.709559    15A1     0.739552
       7B1     0.838448     7B2     0.838448    16A1     0.981250

    Final Occupation by Irrep:
             A1    A2    B1    B2
    DOCC [     6,    0,    1,    1 ]
    SOCC [     0,    0,    1,    1 ]
    NA   [     6,    0,    2,    2 ]
    NB   [     6,    0,    1,    1 ]

  @DF-UKS Final Energy:  -257.10881545446455

   => Energetics <=

    Nuclear Repulsion Energy =             11.9115892891048993
    One-Electron Energy =                -383.1921283713155617
    Two-Electron Energy =                 131.5606212187037443
    DFT Exchange-Correlation Energy =     -17.3888975909575869
    Empirical Dispersion Energy =           0.0000000000000000
    VV10 Nonlocal Energy =                  0.0000000000000000
    Total Energy =                       -257.1088154544645477

  UHF NO Occupations:
  HONO-2 :    6 A1 1.9913788
  HONO-1 :    2 B2 1.0000000
  HONO-0 :    2 B1 1.0000000
  LUNO+0 :    7 A1 0.0086212
  LUNO+1 :    8 A1 0.0009245
  LUNO+2 :    9 A1 0.0000001
  LUNO+3 :    3 B1 0.0000000

Computation Completed

Properties will be evaluated at   0.000000,   0.000000,   0.000000 [a0]

Properties computed using the SCF density matrix

 Multipole Moments:

 ------------------------------------------------------------------------------------
     Multipole            Electronic (a.u.)      Nuclear  (a.u.)        Total (a.u.)
 ------------------------------------------------------------------------------------

 L = 1.  Multiply by 2.5417464519 to convert [e a0] to [Debye]
 Dipole X            :          0.0000000            0.0000000            0.0000000
 Dipole Y            :          0.0000000            0.0000000            0.0000000
 Dipole Z            :          0.3421436           -1.1197299           -0.7775863
 Magnitude           :                                                    0.7775863

 ------------------------------------------------------------------------------------

*** tstop() called on Joses-MacBook-Pro-2.local at Thu Jul 17 09:44:09 2025
Module time:
	user time   =       3.79 seconds =       0.06 minutes
	system time =       3.73 seconds =       0.06 minutes
	total time  =          1 seconds =       0.02 minutes
Total time:
	user time   =      73.83 seconds =       1.23 minutes
	system time =      69.68 seconds =       1.16 minutes
	total time  =         14 seconds =       0.23 minutes

*** tstart() called on Joses-MacBook-Pro-2.local
*** at Thu Jul 17 09:44:09 2025

         ------------------------------------------------------------
                                   SCF GRAD
                          Rob Parrish, Justin Turney,
                       Andy Simmonett, and Alex Sokolov
         ------------------------------------------------------------

  ==> Geometry <==

    Molecular point group: c2v
    Full point group: C_inf_v

    Geometry (in Angstrom), charge = -1, multiplicity = 3:

       Center              X                  Y                   Z               Mass
    ------------   -----------------  -----------------  -----------------  -----------------
         BE           0.000000000000     0.000000000000     1.731708237791     9.012183065000
         AL           0.000000000000     0.000000000000    -0.578412963249    26.981538530000

  Nuclear repulsion =   11.911589289104899

  ==> Basis Set <==

  Basis Set: CC-PVDZ
    Blend: CC-PVDZ
    Number of shells: 14
    Number of basis functions: 32
    Number of Cartesian functions: 34
    Spherical Harmonics?: true
    Max angular momentum: 2

  ==> DFJKGrad: Density-Fitted SCF Gradients <==

    Gradient:                    1
    J tasked:                  Yes
    K tasked:                  Yes
    wK tasked:                  No
    OpenMP threads:              1
    Integrals threads:           1
    Memory [MiB]:              375
    Schwarz Cutoff:          1E-12
    Fitting Condition:       1E-10

   => Auxiliary Basis Set <=

  Basis Set: (CC-PVDZ AUX)
    Blend: CC-PVDZ-JKFIT + DEF2-UNIVERSAL-JKFIT
    Number of shells: 53
    Number of basis functions: 163
    Number of Cartesian functions: 190
    Spherical Harmonics?: true
    Max angular momentum: 3

  ==> DFT Potential <==

   => LibXC <=

    Version 6.2.2
    S. Lehtola, C. Steigemann, M. J.T. Oliveira, and M. A.L. Marques.,  SoftwareX 7, 1â€“5 (2018) (10.1016/j.softx.2017.11.002)

   => Composite Functional: B3LYP <=

    B3LYP Hyb-GGA Exchange-Correlation Functional

    P. J. Stephens, F. J. Devlin, C. F. Chabalowski, and M. J. Frisch.,  J. Phys. Chem. 98, 11623 (1994) (10.1021/j100096a001)

    Deriv               =              1
    GGA                 =           TRUE
    Meta                =          FALSE

    Exchange Hybrid     =           TRUE
    MP2 Hybrid          =          FALSE

   => Exchange Functionals <=

    0.0800   Slater exchange
    0.7200         Becke 88

   => Exact (HF) Exchange <=

    0.2000               HF

   => Correlation Functionals <=

    0.1900   Vosko, Wilk & Nusair (VWN5_RPA)
    0.8100   Lee, Yang & Parr

   => LibXC Density Thresholds  <==

    XC_HYB_GGA_XC_B3LYP:  1.00E-15

   => Molecular Quadrature <=

    Radial Scheme          =       TREUTLER
    Pruning Scheme         =           NONE
    Nuclear Scheme         =       TREUTLER

    Blocking Scheme        =         OCTREE
    BS radius alpha        =              1
    Pruning alpha          =              1
    Radial Points          =             75
    Spherical Points       =            302
    Total Points           =          42450
    Total Blocks           =            403
    Max Points             =            255
    Max Functions          =             32
    Weights Tolerance      =       1.00E-15

  -Total Gradient:
     Atom            X                  Y                   Z
    ------   -----------------  -----------------  -----------------
       1       -0.000000000000    -0.000000000000    -0.000067424538
       2        0.000000000000     0.000000000000     0.000061382975

*** tstop() called on Joses-MacBook-Pro-2.local at Thu Jul 17 09:44:09 2025
Module time:
	user time   =       0.85 seconds =       0.01 minutes
	system time =       1.66 seconds =       0.03 minutes
	total time  =          0 seconds =       0.00 minutes
Total time:
	user time   =      74.69 seconds =       1.24 minutes
	system time =      71.35 seconds =       1.19 minutes
	total time  =         14 seconds =       0.23 minutes

    			-----------------------------------------

    			 OPTKING 3.0: for geometry optimizations

    			     By R.A. King, Bethel University

    			        with contributions from

    			    A.V. Copan, J. Cayton, A. Heide

    			-----------------------------------------

	                            ===> Fragment 1 <==

	 Z (Atomic Numbers)          Masses                          Geom
	       4.000000             9.012183          0.00000000  0.00000000  3.27245430
	      13.000000            26.981539          0.00000000  0.00000000 -1.09304209

	 - Coordinate -           - BOHR/RAD -       - ANG/DEG -
	 R(1,2)           =         4.365496           2.310121

	        --- Internal Coordinate Step in ANG or DEG, aJ/ANG or AJ/DEG ---
	-------------------------------------------------------------------------------
	           Coordinate      Previous         Force          Change          New
	           ----------      --------        ------          ------        ------
	               R(1,2)       2.31012        0.00053        0.00062       2.31074
	-------------------------------------------------------------------------------

	                                 ==> Convergence Check <==

	Measures of convergence in internal coordinates in au.

	Criteria marked as inactive (o), active & met (*), and active & unmet ( ).

	----------------------------------------------------------------------------------------------
	   Step    Total Energy     Delta E     Max Force     RMS Force      Max Disp      RMS Disp
	----------------------------------------------------------------------------------------------
	  Convergence Criteria     1.00e-06 *    3.00e-04 *             o    1.20e-03 *             o
	----------------------------------------------------------------------------------------------
	    12    -257.10881545   -6.54e-07 *    6.44e-05 *    6.44e-05 o    1.17e-03 *    1.17e-03 o  ~
	----------------------------------------------------------------------------------------------

Next Geometry in Ang
	Fragment 1 (Ang)

	   Be   0.0000000000   0.0000000000   1.7320188766
	   Al   0.0000000000   0.0000000000  -0.5787236020

    Final optimized geometry and variables:
    Molecular point group: c2v
    Full point group: C_inf_v

    Geometry (in Angstrom), charge = -1, multiplicity = 3:

    BE           0.000000000000     0.000000000000     1.731708237791
    AL           0.000000000000     0.000000000000    -0.578412963249

    Psi4 stopped on: Thursday, 17 July 2025 09:44AM
    Psi4 wall time for execution: 0:00:14.63

*** Psi4 exiting successfully. Buy a developer a beer!
