                               Psi4 1.9.1 release

  ==> Input File <==

--------------------------------------------------------------------------
molecule {
-1 3
Mg   0.00000        0.60000        0.00000
Al   0.00000       -0.60000        0.00000
}

set {
basis              cc-pvdz
reference          uks
maxiter            500
geom_maxiter       500
DAMPING_PERCENTAGE 1
guess              SAP
}

optimize('b3lyp')
--------------------------------------------------------------------------

    Molecular point group: c2v
  Charge       = -1
  Multiplicity = 3
  Basis Set: CC-PVDZ
    Blend: CC-PVDZ
  Basis Set: (CC-PVDZ AUX)
    Blend: CC-PVDZ-JKFIT + DEF2-UNIVERSAL-JKFIT
  @DF-UKS Final Energy:  -441.63048415424151
    Total Energy =                       -441.6304841542415147
 Dipole X            :          0.0000000            0.0000000            0.0000000
 Dipole Y            :          0.0000000            0.0000000            0.0000000
 Dipole Z            :         -0.6366188            0.5327147           -0.1039041
 Magnitude           :                                                    0.1039041
    Molecular point group: c2v
  Basis Set: CC-PVDZ
    Blend: CC-PVDZ
  Basis Set: (CC-PVDZ AUX)
    Blend: CC-PVDZ-JKFIT + DEF2-UNIVERSAL-JKFIT
  Basis Set: CC-PVDZ
    Blend: CC-PVDZ
  Basis Set: (CC-PVDZ AUX)
    Blend: CC-PVDZ-JKFIT + DEF2-UNIVERSAL-JKFIT
  @DF-UKS Final Energy:  -441.63912547336975
    Total Energy =                       -441.6391254733697451
  Basis Set: CC-PVDZ
    Blend: CC-PVDZ
  Basis Set: (CC-PVDZ AUX)
    Blend: CC-PVDZ-JKFIT + DEF2-UNIVERSAL-JKFIT
  Basis Set: CC-PVDZ
    Blend: CC-PVDZ
  @DF-UKS Final Energy:  -441.65586611402870
    Total Energy =                       -441.6558661140286972
  @DF-UKS Final Energy:  -441.71722284034172
    Total Energy =                       -441.7172228403417193
  @DF-UKS Final Energy:  -442.00958060720444
    Total Energy =                       -442.0095806072044411
  @DF-UKS Final Energy:  -442.19919214511265
    Total Energy =                       -442.1991921451126473
  @DF-UKS Final Energy:  -442.33166388051114
    Total Energy =                       -442.3316638805111438
  @DF-UKS Final Energy:  -442.44657701396142
    Total Energy =                       -442.4465770139614165
  @DF-UKS Final Energy:  -442.49194909008605
    Total Energy =                       -442.4919490900861092
  @DF-UKS Final Energy:  -442.50420546871823
    Total Energy =                       -442.5042054687182258
  @DF-UKS Final Energy:  -442.50935848546550
    Total Energy =                       -442.5093584854654978
  @DF-UKS Final Energy:  -442.51076752362349
    Total Energy =                       -442.5107675236234854
  @DF-UKS Final Energy:  -442.51098878447414
    Total Energy =                       -442.5109887844741365
  @DF-UKS Final Energy:  -442.51103329380635
    Total Energy =                       -442.5110332938063493
  Basis Set: (CC-PVDZ AUX)
    Blend: CC-PVDZ-JKFIT + DEF2-UNIVERSAL-JKFIT
  Basis Set: CC-PVDZ
    Blend: CC-PVDZ
  Basis Set: (CC-PVDZ AUX)
    Blend: CC-PVDZ-JKFIT + DEF2-UNIVERSAL-JKFIT
  @DF-UKS Final Energy:  -442.51103646357268
    Total Energy =                       -442.5110364635726796
  Basis Set: CC-PVDZ
    Blend: CC-PVDZ
  Basis Set: (CC-PVDZ AUX)
    Blend: CC-PVDZ-JKFIT + DEF2-UNIVERSAL-JKFIT
  Charge       = -1
  Multiplicity = 3
  Basis Set: CC-PVDZ
    Blend: CC-PVDZ
  Basis Set: (CC-PVDZ AUX)
    Blend: CC-PVDZ-JKFIT + DEF2-UNIVERSAL-JKFIT

    Orbital Energies [Eh]
    ---------------------

    Alpha Occupied:

       1A1   -55.864668     2A1   -46.652329     3A1    -3.945294
       4A1    -2.933745     5A1    -2.498455     1B2    -2.497808
       1B1    -2.497808     6A1    -1.677374     2B2    -1.677346
       2B1    -1.677346     7A1    -0.157630     8A1    -0.033156
       3B2     0.033432     3B1     0.033432

    Alpha Virtual:

       9A1     0.080564     4B2     0.127122     4B1     0.127122
      10A1     0.169003    11A1     0.236251    12A1     0.297776
       5B1     0.297872     5B2     0.297872    13A1     0.372948
       6B1     0.391281     6B2     0.391281     7B2     0.415465
       7B1     0.415465     1A2     0.422951    14A1     0.422951
      15A1     0.451068    16A1     0.498799     2A2     0.498800
      17A1     0.570988     8B2     0.618905     8B1     0.618905
      18A1     0.798080

    Beta Occupied:

       1A1   -55.862468     2A1   -46.651910     3A1    -3.942602
       4A1    -2.933185     5A1    -2.496975     1B2    -2.492874
       1B1    -2.492874     6A1    -1.677285     2B2    -1.676216
       2B1    -1.676216     7A1    -0.122083     8A1    -0.022816

    Beta Virtual:

       9A1     0.087252     3B1     0.098631     3B2     0.098631
       4B2     0.147750     4B1     0.147750    10A1     0.176377
      11A1     0.243222    12A1     0.305629     5B1     0.308456
       5B2     0.308456    13A1     0.380418     6B1     0.411661
       6B2     0.411661     7B2     0.436146     7B1     0.436146
      14A1     0.459759     1A2     0.459759    15A1     0.464449
      16A1     0.520877     2A2     0.520878    17A1     0.583499
       8B2     0.634476     8B1     0.634476    18A1     0.806349

    Final Occupation by Irrep:
             A1    A2    B1    B2
    DOCC [     8,    0,    2,    2 ]
    SOCC [     0,    0,    1,    1 ]
    NA   [     8,    0,    3,    3 ]
    NB   [     8,    0,    2,    2 ]

  @DF-UKS Final Energy:  -442.51103669410401

   => Energetics <=

    Nuclear Repulsion Energy =             29.8340247606530475
    One-Electron Energy =                -680.3374108448302877
    Two-Electron Energy =                 236.3774715718053585
    DFT Exchange-Correlation Energy =     -28.3851221817321395
    Empirical Dispersion Energy =           0.0000000000000000
    VV10 Nonlocal Energy =                  0.0000000000000000
    Total Energy =                       -442.5110366941040070

  UHF NO Occupations:
  HONO-2 :    8 A1 1.9945860
  HONO-1 :    3 B1 1.0000000
  HONO-0 :    3 B2 1.0000000
  LUNO+0 :    9 A1 0.0054140
  LUNO+1 :   10 A1 0.0013363
  LUNO+2 :    4 B2 0.0000000
  LUNO+3 :    4 B1 0.0000000

Computation Completed

Properties will be evaluated at   0.000000,   0.000000,   0.000000 [a0]

Properties computed using the SCF density matrix

 Multipole Moments:

 ------------------------------------------------------------------------------------
     Multipole            Electronic (a.u.)      Nuclear  (a.u.)        Total (a.u.)
 ------------------------------------------------------------------------------------

 L = 1.  Multiply by 2.5417464519 to convert [e a0] to [Debye]
 Dipole X            :          0.0000000            0.0000000            0.0000000
 Dipole Y            :          0.0000000            0.0000000            0.0000000
 Dipole Z            :         -1.1317304            1.2283648            0.0966344
 Magnitude           :                                                    0.0966344

 ------------------------------------------------------------------------------------

*** tstop() called on Joses-MacBook-Pro-2.local at Thu Jul 17 11:24:13 2025
Module time:
	user time   =       7.53 seconds =       0.13 minutes
	system time =       2.94 seconds =       0.05 minutes
	total time  =          1 seconds =       0.02 minutes
Total time:
	user time   =     257.38 seconds =       4.29 minutes
	system time =      93.73 seconds =       1.56 minutes
	total time  =         34 seconds =       0.57 minutes

*** tstart() called on Joses-MacBook-Pro-2.local
*** at Thu Jul 17 11:24:13 2025

         ------------------------------------------------------------
                                   SCF GRAD
                          Rob Parrish, Justin Turney,
                       Andy Simmonett, and Alex Sokolov
         ------------------------------------------------------------

  ==> Geometry <==

    Molecular point group: c2v
    Full point group: C_inf_v

    Geometry (in Angstrom), charge = -1, multiplicity = 3:

       Center              X                  Y                   Z               Mass
    ------------   -----------------  -----------------  -----------------  -----------------
         MG           0.000000000000     0.000000000000     1.464856563629    23.985041697000
         AL           0.000000000000     0.000000000000    -1.302173548024    26.981538530000

  Nuclear repulsion =   29.834024760653048

  ==> Basis Set <==

  Basis Set: CC-PVDZ
    Blend: CC-PVDZ
    Number of shells: 16
    Number of basis functions: 36
    Number of Cartesian functions: 38
    Spherical Harmonics?: true
    Max angular momentum: 2

  ==> DFJKGrad: Density-Fitted SCF Gradients <==

    Gradient:                    1
    J tasked:                  Yes
    K tasked:                  Yes
    wK tasked:                  No
    OpenMP threads:              1
    Integrals threads:           1
    Memory [MiB]:              375
    Schwarz Cutoff:          1E-12
    Fitting Condition:       1E-10

   => Auxiliary Basis Set <=

  Basis Set: (CC-PVDZ AUX)
    Blend: CC-PVDZ-JKFIT + DEF2-UNIVERSAL-JKFIT
    Number of shells: 70
    Number of basis functions: 224
    Number of Cartesian functions: 267
    Spherical Harmonics?: true
    Max angular momentum: 4

  ==> DFT Potential <==

   => LibXC <=

    Version 6.2.2
    S. Lehtola, C. Steigemann, M. J.T. Oliveira, and M. A.L. Marques.,  SoftwareX 7, 1â€“5 (2018) (10.1016/j.softx.2017.11.002)

   => Composite Functional: B3LYP <=

    B3LYP Hyb-GGA Exchange-Correlation Functional

    P. J. Stephens, F. J. Devlin, C. F. Chabalowski, and M. J. Frisch.,  J. Phys. Chem. 98, 11623 (1994) (10.1021/j100096a001)

    Deriv               =              1
    GGA                 =           TRUE
    Meta                =          FALSE

    Exchange Hybrid     =           TRUE
    MP2 Hybrid          =          FALSE

   => Exchange Functionals <=

    0.0800   Slater exchange
    0.7200         Becke 88

   => Exact (HF) Exchange <=

    0.2000               HF

   => Correlation Functionals <=

    0.1900   Vosko, Wilk & Nusair (VWN5_RPA)
    0.8100   Lee, Yang & Parr

   => LibXC Density Thresholds  <==

    XC_HYB_GGA_XC_B3LYP:  1.00E-15

   => Molecular Quadrature <=

    Radial Scheme          =       TREUTLER
    Pruning Scheme         =           NONE
    Nuclear Scheme         =       TREUTLER

    Blocking Scheme        =         OCTREE
    BS radius alpha        =              1
    Pruning alpha          =              1
    Radial Points          =             75
    Spherical Points       =            302
    Total Points           =          42931
    Total Blocks           =            419
    Max Points             =            255
    Max Functions          =             36
    Weights Tolerance      =       1.00E-15

  -Total Gradient:
     Atom            X                  Y                   Z
    ------   -----------------  -----------------  -----------------
       1       -0.000000000000     0.000000000000    -0.000029151397
       2        0.000000000000    -0.000000000000     0.000035466648

*** tstop() called on Joses-MacBook-Pro-2.local at Thu Jul 17 11:24:13 2025
Module time:
	user time   =       1.97 seconds =       0.03 minutes
	system time =       2.16 seconds =       0.04 minutes
	total time  =          0 seconds =       0.00 minutes
Total time:
	user time   =     259.35 seconds =       4.32 minutes
	system time =      95.89 seconds =       1.60 minutes
	total time  =         34 seconds =       0.57 minutes

    			-----------------------------------------

    			 OPTKING 3.0: for geometry optimizations

    			     By R.A. King, Bethel University

    			        with contributions from

    			    A.V. Copan, J. Cayton, A. Heide

    			-----------------------------------------

	                            ===> Fragment 1 <==

	 Z (Atomic Numbers)          Masses                          Geom
	      12.000000            23.985042          0.00000000  0.00000000  2.76817772
	      13.000000            26.981539          0.00000000  0.00000000 -2.46075137

	 - Coordinate -           - BOHR/RAD -       - ANG/DEG -
	 R(1,2)           =         5.228929           2.767030

	        --- Internal Coordinate Step in ANG or DEG, aJ/ANG or AJ/DEG ---
	-------------------------------------------------------------------------------
	           Coordinate      Previous         Force          Change          New
	           ----------      --------        ------          ------        ------
	               R(1,2)       2.76703        0.00027        0.00060       2.76763
	-------------------------------------------------------------------------------

	                                 ==> Convergence Check <==

	Measures of convergence in internal coordinates in au.

	Criteria marked as inactive (o), active & met (*), and active & unmet ( ).

	----------------------------------------------------------------------------------------------
	   Step    Total Energy     Delta E     Max Force     RMS Force      Max Disp      RMS Disp
	----------------------------------------------------------------------------------------------
	  Convergence Criteria     1.00e-06 *    3.00e-04 *             o    1.20e-03 *             o
	----------------------------------------------------------------------------------------------
	    16    -442.51103669   -2.31e-07 *    3.23e-05 *    3.23e-05 o    1.13e-03 *    1.13e-03 o  ~
	----------------------------------------------------------------------------------------------

Next Geometry in Ang
	Fragment 1 (Ang)

	   Mg   0.0000000000   0.0000000000   1.4651545316
	   Al   0.0000000000   0.0000000000  -1.3024715160

    Final optimized geometry and variables:
    Molecular point group: c2v
    Full point group: C_inf_v

    Geometry (in Angstrom), charge = -1, multiplicity = 3:

    MG           0.000000000000     0.000000000000     1.464856563629
    AL           0.000000000000     0.000000000000    -1.302173548024

    Psi4 stopped on: Thursday, 17 July 2025 11:24AM
    Psi4 wall time for execution: 0:00:35.41

*** Psi4 exiting successfully. Buy a developer a beer!
