                               Psi4 1.9.1 release

  ==> Input File <==

--------------------------------------------------------------------------
molecule {
-1 3
He   0.00000        0.60000        0.00000
Al   0.00000       -0.60000        0.00000
}

set {
basis              cc-pvdz
reference          uks
maxiter            500
geom_maxiter       500
DAMPING_PERCENTAGE 1
guess              SAP
}

optimize('b3lyp')
--------------------------------------------------------------------------

    Molecular point group: c2v
  Charge       = -1
  Multiplicity = 3
  Basis Set: CC-PVDZ
    Blend: CC-PVDZ
  Basis Set: (CC-PVDZ AUX)
    Blend: CC-PVDZ-JKFIT + DEF2-UNIVERSAL-JKFIT
  @DF-UKS Final Energy:  -245.11785749484579
    Total Energy =                       -245.1178574948457936
 Dipole X            :          0.0000000            0.0000000            0.0000000
 Dipole Y            :          0.0000000            0.0000000            0.0000000
 Dipole Z            :          1.2699371            0.1411971            1.4111342
 Magnitude           :                                                    1.4111342
    Molecular point group: c2v
  Basis Set: CC-PVDZ
    Blend: CC-PVDZ
  Basis Set: (CC-PVDZ AUX)
    Blend: CC-PVDZ-JKFIT + DEF2-UNIVERSAL-JKFIT
  Basis Set: CC-PVDZ
    Blend: CC-PVDZ
  Basis Set: (CC-PVDZ AUX)
    Blend: CC-PVDZ-JKFIT + DEF2-UNIVERSAL-JKFIT
  @DF-UKS Final Energy:  -245.21696469546944
    Total Energy =                       -245.2169646954694429
  Basis Set: CC-PVDZ
    Blend: CC-PVDZ
  Basis Set: (CC-PVDZ AUX)
    Blend: CC-PVDZ-JKFIT + DEF2-UNIVERSAL-JKFIT
  Basis Set: CC-PVDZ
    Blend: CC-PVDZ
  @DF-UKS Final Energy:  -245.23898810821868
    Total Energy =                       -245.2389881082186776
  @DF-UKS Final Energy:  -245.25952322628515
    Total Energy =                       -245.2595232262851823
  @DF-UKS Final Energy:  -245.27205086171028
    Total Energy =                       -245.2720508617102837
  @DF-UKS Final Energy:  -245.28021308072567
    Total Energy =                       -245.2802130807256731
  @DF-UKS Final Energy:  -245.28482589044751
    Total Energy =                       -245.2848258904475074
  @DF-UKS Final Energy:  -245.28722437739646
    Total Energy =                       -245.2872243773964556
  @DF-UKS Final Energy:  -245.28842176036943
    Total Energy =                       -245.2884217603694310
  @DF-UKS Final Energy:  -245.28900145254161
    Total Energy =                       -245.2890014525416120
  @DF-UKS Final Energy:  -245.28926758226831
    Total Energy =                       -245.2892675822683088
  @DF-UKS Final Energy:  -245.28937946007920
    Total Energy =                       -245.2893794600792319
  @DF-UKS Final Energy:  -245.28942065361866
    Total Energy =                       -245.2894206536186346
  @DF-UKS Final Energy:  -245.28943200600119
    Total Energy =                       -245.2894320060011921
  Basis Set: (CC-PVDZ AUX)
    Blend: CC-PVDZ-JKFIT + DEF2-UNIVERSAL-JKFIT
  Basis Set: CC-PVDZ
    Blend: CC-PVDZ
  Basis Set: (CC-PVDZ AUX)
    Blend: CC-PVDZ-JKFIT + DEF2-UNIVERSAL-JKFIT
  @DF-UKS Final Energy:  -245.28943346758496
    Total Energy =                       -245.2894334675849279
  Basis Set: CC-PVDZ
    Blend: CC-PVDZ
  Basis Set: (CC-PVDZ AUX)
    Blend: CC-PVDZ-JKFIT + DEF2-UNIVERSAL-JKFIT
  Charge       = -1
  Multiplicity = 3
  Basis Set: CC-PVDZ
    Blend: CC-PVDZ
  Basis Set: (CC-PVDZ AUX)
    Blend: CC-PVDZ-JKFIT + DEF2-UNIVERSAL-JKFIT

    Orbital Energies [Eh]
    ---------------------

    Alpha Occupied:

       1A1   -55.818425     2A1    -3.898964     3A1    -2.453569
       1B1    -2.450966     1B2    -2.450966     4A1    -0.528303
       5A1    -0.096446     2B2     0.078533     2B1     0.078533

    Alpha Virtual:

       6A1     0.129377     7A1     0.357278     3B2     0.418007
       3B1     0.418007     8A1     0.429577     1A2     0.476924
       9A1     0.476924     4B2     0.481696     4B1     0.481696
      10A1     0.488238    11A1     1.274322     5B2     2.311118
       5B1     2.311118    12A1     2.318004

    Beta Occupied:

       1A1   -55.815953     2A1    -3.896014     3A1    -2.452276
       1B1    -2.445215     1B2    -2.445215     4A1    -0.528332
       5A1    -0.054523

    Beta Virtual:

       6A1     0.140083     2B2     0.160575     2B1     0.160575
       7A1     0.377189     8A1     0.433594     3B2     0.449047
       3B1     0.449047     9A1     0.505901     4B2     0.512222
       4B1     0.512222     1A2     0.532353    10A1     0.532353
      11A1     1.274608     5B2     2.311141     5B1     2.311141
      12A1     2.318048

    Final Occupation by Irrep:
             A1    A2    B1    B2
    DOCC [     5,    0,    1,    1 ]
    SOCC [     0,    0,    1,    1 ]
    NA   [     5,    0,    2,    2 ]
    NB   [     5,    0,    1,    1 ]

  @DF-UKS Final Energy:  -245.28943383085161

   => Energetics <=

    Nuclear Repulsion Energy =              3.6454975997934711
    One-Electron Energy =                -351.2774480888729158
    Two-Electron Energy =                 118.3284759433303179
    DFT Exchange-Correlation Energy =     -15.9859592851024921
    Empirical Dispersion Energy =           0.0000000000000000
    VV10 Nonlocal Energy =                  0.0000000000000000
    Total Energy =                       -245.2894338308516069

  UHF NO Occupations:
  HONO-2 :    5 A1 1.9983225
  HONO-1 :    2 B1 1.0000000
  HONO-0 :    2 B2 1.0000000
  LUNO+0 :    6 A1 0.0016775
  LUNO+1 :    7 A1 0.0000000
  LUNO+2 :    8 A1 0.0000000
  LUNO+3 :    9 A1 0.0000000

Computation Completed

Properties will be evaluated at   0.000000,   0.000000,   0.000000 [a0]

Properties computed using the SCF density matrix

 Multipole Moments:

 ------------------------------------------------------------------------------------
     Multipole            Electronic (a.u.)      Nuclear  (a.u.)        Total (a.u.)
 ------------------------------------------------------------------------------------

 L = 1.  Multiply by 2.5417464519 to convert [e a0] to [Debye]
 Dipole X            :          0.0000000            0.0000000            0.0000000
 Dipole Y            :          0.0000000            0.0000000            0.0000000
 Dipole Z            :          0.4931335            0.4440809            0.9372145
 Magnitude           :                                                    0.9372145

 ------------------------------------------------------------------------------------

*** tstop() called on Joses-MacBook-Pro-2.local at Thu Jul 17 09:22:49 2025
Module time:
	user time   =       4.51 seconds =       0.08 minutes
	system time =       2.25 seconds =       0.04 minutes
	total time  =          1 seconds =       0.02 minutes
Total time:
	user time   =      94.50 seconds =       1.57 minutes
	system time =      57.32 seconds =       0.96 minutes
	total time  =         16 seconds =       0.27 minutes

*** tstart() called on Joses-MacBook-Pro-2.local
*** at Thu Jul 17 09:22:49 2025

         ------------------------------------------------------------
                                   SCF GRAD
                          Rob Parrish, Justin Turney,
                       Andy Simmonett, and Alex Sokolov
         ------------------------------------------------------------

  ==> Geometry <==

    Molecular point group: c2v
    Full point group: C_inf_v

    Geometry (in Angstrom), charge = -1, multiplicity = 3:

       Center              X                  Y                   Z               Mass
    ------------   -----------------  -----------------  -----------------  -----------------
         HE           0.000000000000     0.000000000000     3.286585258745     4.002603254130
         AL           0.000000000000     0.000000000000    -0.487551769407    26.981538530000

  Nuclear repulsion =    3.645497599793471

  ==> Basis Set <==

  Basis Set: CC-PVDZ
    Blend: CC-PVDZ
    Number of shells: 11
    Number of basis functions: 23
    Number of Cartesian functions: 24
    Spherical Harmonics?: true
    Max angular momentum: 2

  ==> DFJKGrad: Density-Fitted SCF Gradients <==

    Gradient:                    1
    J tasked:                  Yes
    K tasked:                  Yes
    wK tasked:                  No
    OpenMP threads:              1
    Integrals threads:           1
    Memory [MiB]:              375
    Schwarz Cutoff:          1E-12
    Fitting Condition:       1E-10

   => Auxiliary Basis Set <=

  Basis Set: (CC-PVDZ AUX)
    Blend: CC-PVDZ-JKFIT + DEF2-UNIVERSAL-JKFIT
    Number of shells: 45
    Number of basis functions: 135
    Number of Cartesian functions: 155
    Spherical Harmonics?: true
    Max angular momentum: 3

  ==> DFT Potential <==

   => LibXC <=

    Version 6.2.2
    S. Lehtola, C. Steigemann, M. J.T. Oliveira, and M. A.L. Marques.,  SoftwareX 7, 1â€“5 (2018) (10.1016/j.softx.2017.11.002)

   => Composite Functional: B3LYP <=

    B3LYP Hyb-GGA Exchange-Correlation Functional

    P. J. Stephens, F. J. Devlin, C. F. Chabalowski, and M. J. Frisch.,  J. Phys. Chem. 98, 11623 (1994) (10.1021/j100096a001)

    Deriv               =              1
    GGA                 =           TRUE
    Meta                =          FALSE

    Exchange Hybrid     =           TRUE
    MP2 Hybrid          =          FALSE

   => Exchange Functionals <=

    0.0800   Slater exchange
    0.7200         Becke 88

   => Exact (HF) Exchange <=

    0.2000               HF

   => Correlation Functionals <=

    0.1900   Vosko, Wilk & Nusair (VWN5_RPA)
    0.8100   Lee, Yang & Parr

   => LibXC Density Thresholds  <==

    XC_HYB_GGA_XC_B3LYP:  1.00E-15

   => Molecular Quadrature <=

    Radial Scheme          =       TREUTLER
    Pruning Scheme         =           NONE
    Nuclear Scheme         =       TREUTLER

    Blocking Scheme        =         OCTREE
    BS radius alpha        =              1
    Pruning alpha          =              1
    Radial Points          =             75
    Spherical Points       =            302
    Total Points           =          43573
    Total Blocks           =            406
    Max Points             =            256
    Max Functions          =             23
    Weights Tolerance      =       1.00E-15

  -Total Gradient:
     Atom            X                  Y                   Z
    ------   -----------------  -----------------  -----------------
       1        0.000000000000     0.000000000000    -0.000001483971
       2        0.000000000000    -0.000000000000     0.000011514698

*** tstop() called on Joses-MacBook-Pro-2.local at Thu Jul 17 09:22:49 2025
Module time:
	user time   =       1.23 seconds =       0.02 minutes
	system time =       0.63 seconds =       0.01 minutes
	total time  =          0 seconds =       0.00 minutes
Total time:
	user time   =      95.73 seconds =       1.60 minutes
	system time =      57.96 seconds =       0.97 minutes
	total time  =         16 seconds =       0.27 minutes

    			-----------------------------------------

    			 OPTKING 3.0: for geometry optimizations

    			     By R.A. King, Bethel University

    			        with contributions from

    			    A.V. Copan, J. Cayton, A. Heide

    			-----------------------------------------

	                            ===> Fragment 1 <==

	 Z (Atomic Numbers)          Masses                          Geom
	       2.000000             4.002603          0.00000000  0.00000000  6.21074603
	      13.000000            26.981539          0.00000000  0.00000000 -0.92133932

	 - Coordinate -           - BOHR/RAD -       - ANG/DEG -
	 R(1,2)           =         7.132085           3.774137

	        --- Internal Coordinate Step in ANG or DEG, aJ/ANG or AJ/DEG ---
	-------------------------------------------------------------------------------
	           Coordinate      Previous         Force          Change          New
	           ----------      --------        ------          ------        ------
	               R(1,2)       3.77414        0.00005        0.01017       3.78431
	-------------------------------------------------------------------------------

	                                 ==> Convergence Check <==

	Measures of convergence in internal coordinates in au.

	Criteria marked as inactive (o), active & met (*), and active & unmet ( ).

	----------------------------------------------------------------------------------------------
	   Step    Total Energy     Delta E     Max Force     RMS Force      Max Disp      RMS Disp
	----------------------------------------------------------------------------------------------
	  Convergence Criteria     1.00e-06 *    3.00e-04 *             o    1.20e-03 *             o
	----------------------------------------------------------------------------------------------
	    16    -245.28943383   -3.63e-07 *    6.50e-06 *    6.50e-06 o    1.92e-02      1.92e-02 o  ~
	----------------------------------------------------------------------------------------------

Next Geometry in Ang
	Fragment 1 (Ang)

	   He   0.0000000000   0.0000000000   3.2916700732
	   Al   0.0000000000   0.0000000000  -0.4926365839

    Final optimized geometry and variables:
    Molecular point group: c2v
    Full point group: C_inf_v

    Geometry (in Angstrom), charge = -1, multiplicity = 3:

    HE           0.000000000000     0.000000000000     3.286585258745
    AL           0.000000000000     0.000000000000    -0.487551769407

    Psi4 stopped on: Thursday, 17 July 2025 09:22AM
    Psi4 wall time for execution: 0:00:16.88

*** Psi4 exiting successfully. Buy a developer a beer!
