                               Psi4 1.9.1 release

  ==> Input File <==

--------------------------------------------------------------------------
molecule {
-1 3
Al   0.00000        0.60000        0.00000
Ar   0.00000       -0.60000        0.00000
}

set {
basis              cc-pvdz
reference          uks
maxiter            500
geom_maxiter       500
DAMPING_PERCENTAGE 1
guess              SAP
}

optimize('b3lyp')
--------------------------------------------------------------------------

    Molecular point group: c2v
  Charge       = -1
  Multiplicity = 3
  Basis Set: CC-PVDZ
    Blend: CC-PVDZ
  Basis Set: (CC-PVDZ AUX)
    Blend: CC-PVDZ-JKFIT
  @DF-UKS Final Energy:  -768.49316733808439
    Total Energy =                       -768.4931673380842767
 Dipole X            :          0.0000000            0.0000000            0.0000000
 Dipole Y            :          0.0000000            0.0000000            0.0000000
 Dipole Z            :         -4.7522904            1.1464141           -3.6058763
 Magnitude           :                                                    3.6058763
    Molecular point group: c2v
  Basis Set: CC-PVDZ
    Blend: CC-PVDZ
  Basis Set: (CC-PVDZ AUX)
    Blend: CC-PVDZ-JKFIT
  Basis Set: CC-PVDZ
    Blend: CC-PVDZ
  Basis Set: (CC-PVDZ AUX)
    Blend: CC-PVDZ-JKFIT
  @DF-UKS Final Energy:  -768.52990157035424
    Total Energy =                       -768.5299015703541272
  Basis Set: CC-PVDZ
    Blend: CC-PVDZ
  Basis Set: (CC-PVDZ AUX)
    Blend: CC-PVDZ-JKFIT
  Basis Set: CC-PVDZ
    Blend: CC-PVDZ
  @DF-UKS Final Energy:  -768.59866487954514
    Total Energy =                       -768.5986648795451401
  @DF-UKS Final Energy:  -768.82747723995601
    Total Energy =                       -768.8274772399558969
  @DF-UKS Final Energy:  -769.37677160805424
    Total Energy =                       -769.3767716080542414
  @DF-UKS Final Energy:  -769.57584534699492
    Total Energy =                       -769.5758453469949245
  @DF-UKS Final Energy:  -769.71164244122167
    Total Energy =                       -769.7116424412216702
  @DF-UKS Final Energy:  -769.79954735647948
    Total Energy =                       -769.7995473564795930
  @DF-UKS Final Energy:  -769.85038002405759
    Total Energy =                       -769.8503800240576993
  @DF-UKS Final Energy:  -769.88161148024608
    Total Energy =                       -769.8816114802460788
  @DF-UKS Final Energy:  -769.90054690798900
    Total Energy =                       -769.9005469079888826
  @DF-UKS Final Energy:  -769.91167789365954
    Total Energy =                       -769.9116778936595438
  @DF-UKS Final Energy:  -769.91792355272332
    Total Energy =                       -769.9179235527233232
  @DF-UKS Final Energy:  -769.92127164779527
    Total Energy =                       -769.9212716477952654
  @DF-UKS Final Energy:  -769.92300542956173
    Total Energy =                       -769.9230054295617265
  @DF-UKS Final Energy:  -769.92388153133231
    Total Energy =                       -769.9238815313324267
  @DF-UKS Final Energy:  -769.92431288295643
    Total Energy =                       -769.9243128829565421
  @DF-UKS Final Energy:  -769.92451713190269
    Total Energy =                       -769.9245171319025758
  @DF-UKS Final Energy:  -769.92460759634491
    Total Energy =                       -769.9246075963449130
  @DF-UKS Final Energy:  -769.92464324193202
    Total Energy =                       -769.9246432419320172
  @DF-UKS Final Energy:  -769.92465652613521
    Total Energy =                       -769.9246565261352089
  Basis Set: (CC-PVDZ AUX)
    Blend: CC-PVDZ-JKFIT
  Basis Set: CC-PVDZ
    Blend: CC-PVDZ
  Basis Set: (CC-PVDZ AUX)
    Blend: CC-PVDZ-JKFIT
  @DF-UKS Final Energy:  -769.92465935013968
    Total Energy =                       -769.9246593501397911
  Basis Set: CC-PVDZ
    Blend: CC-PVDZ
  Basis Set: (CC-PVDZ AUX)
    Blend: CC-PVDZ-JKFIT
  Charge       = -1
  Multiplicity = 3
  Basis Set: CC-PVDZ
    Blend: CC-PVDZ
  Basis Set: (CC-PVDZ AUX)
    Blend: CC-PVDZ-JKFIT

    Orbital Energies [Eh]
    ---------------------

    Alpha Occupied:

       1A1  -114.992434     2A1   -55.818973     3A1   -11.028506
       1B1    -8.578408     1B2    -8.578408     4A1    -8.578311
       5A1    -3.899504     6A1    -2.454109     2B2    -2.451510
       2B1    -2.451510     7A1    -0.856778     3B2    -0.314910
       3B1    -0.314910     8A1    -0.313546     9A1    -0.096994
       4B1     0.078120     4B2     0.078120

    Alpha Virtual:

      10A1     0.127590    11A1     0.354678     5B1     0.417345
       5B2     0.417345    12A1     0.422482    13A1     0.476446
       1A2     0.476447     6B1     0.481088     6B2     0.481088
      14A1     0.485738     7B2     0.689621     7B1     0.689621
      15A1     0.716353    16A1     0.856674     2A2     0.942968
      17A1     0.942997     8B2     0.943825     8B1     0.943825
      18A1     0.946021

    Beta Occupied:

       1A1  -114.992425     2A1   -55.816496     3A1   -11.028498
       1B1    -8.578395     1B2    -8.578395     4A1    -8.578301
       5A1    -3.896548     6A1    -2.452813     2B2    -2.445749
       2B1    -2.445749     7A1    -0.856747     3B1    -0.314900
       3B2    -0.314900     8A1    -0.313580     9A1    -0.055059

    Beta Virtual:

      10A1     0.138278     4B1     0.160210     4B2     0.160210
      11A1     0.374279    12A1     0.426352     5B1     0.448372
       5B2     0.448372    13A1     0.503384     6B1     0.511617
       6B2     0.511617    14A1     0.531906     1A2     0.531906
       7B2     0.689606     7B1     0.689606    15A1     0.716889
      16A1     0.857178     2A2     0.942994    17A1     0.943023
       8B1     0.943854     8B2     0.943854    18A1     0.946088

    Final Occupation by Irrep:
             A1    A2    B1    B2
    DOCC [     9,    0,    3,    3 ]
    SOCC [     0,    0,    1,    1 ]
    NA   [     9,    0,    4,    4 ]
    NB   [     9,    0,    3,    3 ]

  @DF-UKS Final Energy:  -769.92466001797004

   => Energetics <=

    Nuclear Repulsion Energy =             26.9713690394943022
    One-Electron Energy =               -1124.0961863243255721
    Two-Electron Energy =                 367.2042341309085600
    DFT Exchange-Correlation Energy =     -40.0040768640472777
    Empirical Dispersion Energy =           0.0000000000000000
    VV10 Nonlocal Energy =                  0.0000000000000000
    Total Energy =                       -769.9246600179700408

  UHF NO Occupations:
  HONO-2 :    9 A1 1.9983171
  HONO-1 :    4 B1 1.0000000
  HONO-0 :    4 B2 1.0000000
  LUNO+0 :   10 A1 0.0016829
  LUNO+1 :   11 A1 0.0000001
  LUNO+2 :   12 A1 0.0000000
  LUNO+3 :    5 B2 0.0000000

Computation Completed

Properties will be evaluated at   0.000000,   0.000000,   0.000000 [a0]

Properties computed using the SCF density matrix

 Multipole Moments:

 ------------------------------------------------------------------------------------
     Multipole            Electronic (a.u.)      Nuclear  (a.u.)        Total (a.u.)
 ------------------------------------------------------------------------------------

 L = 1.  Multiply by 2.5417464519 to convert [e a0] to [Debye]
 Dipole X            :          0.0000000            0.0000000            0.0000000
 Dipole Y            :          0.0000000            0.0000000            0.0000000
 Dipole Z            :         -9.5349954            4.3860568           -5.1489386
 Magnitude           :                                                    5.1489386

 ------------------------------------------------------------------------------------

*** tstop() called on Joses-MacBook-Pro-2.local at Thu Jul 17 11:44:56 2025
Module time:
	user time   =      11.36 seconds =       0.19 minutes
	system time =       2.64 seconds =       0.04 minutes
	total time  =          1 seconds =       0.02 minutes
Total time:
	user time   =     499.06 seconds =       8.32 minutes
	system time =      93.85 seconds =       1.56 minutes
	total time  =         63 seconds =       1.05 minutes

*** tstart() called on Joses-MacBook-Pro-2.local
*** at Thu Jul 17 11:44:56 2025

         ------------------------------------------------------------
                                   SCF GRAD
                          Rob Parrish, Justin Turney,
                       Andy Simmonett, and Alex Sokolov
         ------------------------------------------------------------

  ==> Geometry <==

    Molecular point group: c2v
    Full point group: C_inf_v

    Geometry (in Angstrom), charge = -1, multiplicity = 3:

       Center              X                  Y                   Z               Mass
    ------------   -----------------  -----------------  -----------------  -----------------
         AL           0.000000000000     0.000000000000     2.740654108327    26.981538530000
         AR           0.000000000000     0.000000000000    -1.850416783012    39.962383123700

  Nuclear repulsion =   26.971369039494302

  ==> Basis Set <==

  Basis Set: CC-PVDZ
    Blend: CC-PVDZ
    Number of shells: 16
    Number of basis functions: 36
    Number of Cartesian functions: 38
    Spherical Harmonics?: true
    Max angular momentum: 2

  ==> DFJKGrad: Density-Fitted SCF Gradients <==

    Gradient:                    1
    J tasked:                  Yes
    K tasked:                  Yes
    wK tasked:                  No
    OpenMP threads:              1
    Integrals threads:           1
    Memory [MiB]:              375
    Schwarz Cutoff:          1E-12
    Fitting Condition:       1E-10

   => Auxiliary Basis Set <=

  Basis Set: (CC-PVDZ AUX)
    Blend: CC-PVDZ-JKFIT
    Number of shells: 72
    Number of basis functions: 224
    Number of Cartesian functions: 260
    Spherical Harmonics?: true
    Max angular momentum: 3

  ==> DFT Potential <==

   => LibXC <=

    Version 6.2.2
    S. Lehtola, C. Steigemann, M. J.T. Oliveira, and M. A.L. Marques.,  SoftwareX 7, 1â€“5 (2018) (10.1016/j.softx.2017.11.002)

   => Composite Functional: B3LYP <=

    B3LYP Hyb-GGA Exchange-Correlation Functional

    P. J. Stephens, F. J. Devlin, C. F. Chabalowski, and M. J. Frisch.,  J. Phys. Chem. 98, 11623 (1994) (10.1021/j100096a001)

    Deriv               =              1
    GGA                 =           TRUE
    Meta                =          FALSE

    Exchange Hybrid     =           TRUE
    MP2 Hybrid          =          FALSE

   => Exchange Functionals <=

    0.0800   Slater exchange
    0.7200         Becke 88

   => Exact (HF) Exchange <=

    0.2000               HF

   => Correlation Functionals <=

    0.1900   Vosko, Wilk & Nusair (VWN5_RPA)
    0.8100   Lee, Yang & Parr

   => LibXC Density Thresholds  <==

    XC_HYB_GGA_XC_B3LYP:  1.00E-15

   => Molecular Quadrature <=

    Radial Scheme          =       TREUTLER
    Pruning Scheme         =           NONE
    Nuclear Scheme         =       TREUTLER

    Blocking Scheme        =         OCTREE
    BS radius alpha        =              1
    Pruning alpha          =              1
    Radial Points          =             75
    Spherical Points       =            302
    Total Points           =          42829
    Total Blocks           =            446
    Max Points             =            254
    Max Functions          =             36
    Weights Tolerance      =       1.00E-15

  -Total Gradient:
     Atom            X                  Y                   Z
    ------   -----------------  -----------------  -----------------
       1       -0.000000000000     0.000000000000    -0.000008875654
       2        0.000000000000     0.000000000000     0.000001521504

*** tstop() called on Joses-MacBook-Pro-2.local at Thu Jul 17 11:44:57 2025
Module time:
	user time   =       3.09 seconds =       0.05 minutes
	system time =       1.65 seconds =       0.03 minutes
	total time  =          1 seconds =       0.02 minutes
Total time:
	user time   =     502.16 seconds =       8.37 minutes
	system time =      95.50 seconds =       1.59 minutes
	total time  =         64 seconds =       1.07 minutes

    			-----------------------------------------

    			 OPTKING 3.0: for geometry optimizations

    			     By R.A. King, Bethel University

    			        with contributions from

    			    A.V. Copan, J. Cayton, A. Heide

    			-----------------------------------------

	                            ===> Fragment 1 <==

	 Z (Atomic Numbers)          Masses                          Geom
	      13.000000            26.981539          0.00000000  0.00000000  5.17908567
	      18.000000            39.962383          0.00000000  0.00000000 -3.49678094

	 - Coordinate -           - BOHR/RAD -       - ANG/DEG -
	 R(1,2)           =         8.675867           4.591071

	        --- Internal Coordinate Step in ANG or DEG, aJ/ANG or AJ/DEG ---
	-------------------------------------------------------------------------------
	           Coordinate      Previous         Force          Change          New
	           ----------      --------        ------          ------        ------
	               R(1,2)       4.59107        0.00004        0.01275       4.60382
	-------------------------------------------------------------------------------

	                                 ==> Convergence Check <==

	Measures of convergence in internal coordinates in au.

	Criteria marked as inactive (o), active & met (*), and active & unmet ( ).

	----------------------------------------------------------------------------------------------
	   Step    Total Energy     Delta E     Max Force     RMS Force      Max Disp      RMS Disp
	----------------------------------------------------------------------------------------------
	  Convergence Criteria     1.00e-06 *    3.00e-04 *             o    1.20e-03 *             o
	----------------------------------------------------------------------------------------------
	    23    -769.92466002   -6.68e-07 *    5.20e-06 *    5.20e-06 o    2.41e-02      2.41e-02 o  ~
	----------------------------------------------------------------------------------------------

Next Geometry in Ang
	Fragment 1 (Ang)

	   Al   0.0000000000   0.0000000000   2.7470296308
	   Ar   0.0000000000   0.0000000000  -1.8567923055

    Final optimized geometry and variables:
    Molecular point group: c2v
    Full point group: C_inf_v

    Geometry (in Angstrom), charge = -1, multiplicity = 3:

    AL           0.000000000000     0.000000000000     2.740654108327
    AR           0.000000000000     0.000000000000    -1.850416783012

    Psi4 stopped on: Thursday, 17 July 2025 11:44AM
    Psi4 wall time for execution: 0:01:05.05

*** Psi4 exiting successfully. Buy a developer a beer!
