                               Psi4 1.9.1 release

  ==> Input File <==

--------------------------------------------------------------------------
molecule {
-1 3
Be   0.00000        0.60000        0.00000
Na   0.00000       -0.60000        0.00000
}

set {
basis              cc-pvdz
reference          uks
maxiter            500
geom_maxiter       500
DAMPING_PERCENTAGE 1
guess              SAP
}

optimize('b3lyp')
--------------------------------------------------------------------------

    Molecular point group: c2v
  Charge       = -1
  Multiplicity = 3
  Basis Set: CC-PVDZ
    Blend: CC-PVDZ
  Basis Set: (CC-PVDZ AUX)
    Blend: DEF2-UNIVERSAL-JKFIT
  @DF-UKS Final Energy:  -176.63724398253225
    Total Energy =                       -176.6372439825322260
 Dipole X            :          0.0000000            0.0000000            0.0000000
 Dipole Y            :          0.0000000            0.0000000            0.0000000
 Dipole Z            :         -1.1212011           -0.5084189           -1.6296200
 Magnitude           :                                                    1.6296200
    Molecular point group: c2v
  Basis Set: CC-PVDZ
    Blend: CC-PVDZ
  Basis Set: (CC-PVDZ AUX)
    Blend: DEF2-UNIVERSAL-JKFIT
  Basis Set: CC-PVDZ
    Blend: CC-PVDZ
  Basis Set: (CC-PVDZ AUX)
    Blend: DEF2-UNIVERSAL-JKFIT
  @DF-UKS Final Energy:  -176.68788268852580
    Total Energy =                       -176.6878826885258036
  Basis Set: CC-PVDZ
    Blend: CC-PVDZ
  Basis Set: (CC-PVDZ AUX)
    Blend: DEF2-UNIVERSAL-JKFIT
  Basis Set: CC-PVDZ
    Blend: CC-PVDZ
  @DF-UKS Final Energy:  -176.74908278290906
    Total Energy =                       -176.7490827829090563
  @DF-UKS Final Energy:  -176.83198993679719
    Total Energy =                       -176.8319899367971857
  @DF-UKS Final Energy:  -176.88965647359265
    Total Energy =                       -176.8896564735926233
  @DF-UKS Final Energy:  -176.92092121475289
    Total Energy =                       -176.9209212147528945
  @DF-UKS Final Energy:  -176.93331094222978
    Total Energy =                       -176.9333109422297809
  @DF-UKS Final Energy:  -176.96773055530770
    Total Energy =                       -176.9677305553076962
  @DF-UKS Final Energy:  -176.97486892972691
    Total Energy =                       -176.9748689297269379
  @DF-UKS Final Energy:  -176.97488402715848
    Total Energy =                       -176.9748840271584811
  @DF-UKS Final Energy:  -176.97498483364188
    Total Energy =                       -176.9749848336418836
  Basis Set: (CC-PVDZ AUX)
    Blend: DEF2-UNIVERSAL-JKFIT
  Basis Set: CC-PVDZ
    Blend: CC-PVDZ
  Basis Set: (CC-PVDZ AUX)
    Blend: DEF2-UNIVERSAL-JKFIT
  @DF-UKS Final Energy:  -176.97498615635743
    Total Energy =                       -176.9749861563574314
  Basis Set: CC-PVDZ
    Blend: CC-PVDZ
  Basis Set: (CC-PVDZ AUX)
    Blend: DEF2-UNIVERSAL-JKFIT
  Charge       = -1
  Multiplicity = 3
  Basis Set: CC-PVDZ
    Blend: CC-PVDZ
  Basis Set: (CC-PVDZ AUX)
    Blend: DEF2-UNIVERSAL-JKFIT

    Orbital Energies [Eh]
    ---------------------

    Alpha Occupied:

       1A1   -38.323570     2A1    -3.896006     3A1    -2.069760
       1B2    -1.001387     1B1    -1.000589     4A1    -1.000527
       5A1    -0.085390     6A1     0.012527     2B1     0.043574

    Alpha Virtual:

       2B2     0.081876     7A1     0.088590     3B1     0.108414
       3B2     0.123516     8A1     0.124716     9A1     0.167439
       4B1     0.195472     4B2     0.199696    10A1     0.266226
       1A2     0.296575    11A1     0.297808    12A1     0.307447
       5B1     0.324786     5B2     0.328290     6B1     0.354860
       6B2     0.366111    13A1     0.442206    14A1     0.508866
       2A2     0.645976    15A1     0.648980     7B1     0.720279
       7B2     0.727570    16A1     0.845055

    Beta Occupied:

       1A1   -38.322517     2A1    -3.892938     3A1    -2.067715
       1B2    -1.000109     4A1    -0.999327     1B1    -0.998776
       5A1    -0.063986

    Beta Virtual:

       6A1     0.069228     2B2     0.089305     2B1     0.097088
       7A1     0.110456     3B2     0.132119     8A1     0.132147
       3B1     0.141901     9A1     0.186308     4B2     0.214177
       4B1     0.220307    10A1     0.286072    11A1     0.316922
       1A2     0.319065    12A1     0.320564     5B2     0.341961
       5B1     0.349566     6B2     0.368322     6B1     0.380271
      13A1     0.457175    14A1     0.519961     2A2     0.670125
      15A1     0.670165     7B2     0.735771     7B1     0.748928
      16A1     0.858603

    Final Occupation by Irrep:
             A1    A2    B1    B2
    DOCC [     5,    0,    1,    1 ]
    SOCC [     1,    0,    1,    0 ]
    NA   [     6,    0,    2,    1 ]
    NB   [     5,    0,    1,    1 ]

  @DF-UKS Final Energy:  -176.97498617727612

   => Energetics <=

    Nuclear Repulsion Energy =              8.2663225242101603
    One-Electron Energy =                -265.7909119010037102
    Two-Electron Energy =                  94.5443391994040212
    DFT Exchange-Correlation Energy =     -13.9947359998866041
    Empirical Dispersion Energy =           0.0000000000000000
    VV10 Nonlocal Energy =                  0.0000000000000000
    Total Energy =                       -176.9749861772761221

  UHF NO Occupations:
  HONO-2 :    5 A1 1.9927058
  HONO-1 :    6 A1 1.0000000
  HONO-0 :    2 B1 1.0000000
  LUNO+0 :    7 A1 0.0072942
  LUNO+1 :    8 A1 0.0000004
  LUNO+2 :    2 B2 0.0000003
  LUNO+3 :    3 B1 0.0000003

Computation Completed

Properties will be evaluated at   0.000000,   0.000000,   0.000000 [a0]

Properties computed using the SCF density matrix

 Multipole Moments:

 ------------------------------------------------------------------------------------
     Multipole            Electronic (a.u.)      Nuclear  (a.u.)        Total (a.u.)
 ------------------------------------------------------------------------------------

 L = 1.  Multiply by 2.5417464519 to convert [e a0] to [Debye]
 Dipole X            :          0.0000000            0.0000000            0.0000000
 Dipole Y            :          0.0000000            0.0000000            0.0000000
 Dipole Z            :          0.8401489           -1.1933887           -0.3532398
 Magnitude           :                                                    0.3532398

 ------------------------------------------------------------------------------------

*** tstop() called on Joses-MacBook-Pro-2.local at Thu Jul 17 09:42:39 2025
Module time:
	user time   =       2.82 seconds =       0.05 minutes
	system time =       3.08 seconds =       0.05 minutes
	total time  =          1 seconds =       0.02 minutes
Total time:
	user time   =      77.75 seconds =       1.30 minutes
	system time =      77.15 seconds =       1.29 minutes
	total time  =         15 seconds =       0.25 minutes

*** tstart() called on Joses-MacBook-Pro-2.local
*** at Thu Jul 17 09:42:39 2025

         ------------------------------------------------------------
                                   SCF GRAD
                          Rob Parrish, Justin Turney,
                       Andy Simmonett, and Alex Sokolov
         ------------------------------------------------------------

  ==> Geometry <==

    Molecular point group: c2v
    Full point group: C_inf_v

    Geometry (in Angstrom), charge = -1, multiplicity = 3:

       Center              X                  Y                   Z               Mass
    ------------   -----------------  -----------------  -----------------  -----------------
         BE           0.000000000000     0.000000000000     2.023483194982     9.012183065000
         NA           0.000000000000     0.000000000000    -0.793222444229    22.989769282000

  Nuclear repulsion =    8.266322524210160

  ==> Basis Set <==

  Basis Set: CC-PVDZ
    Blend: CC-PVDZ
    Number of shells: 14
    Number of basis functions: 32
    Number of Cartesian functions: 34
    Spherical Harmonics?: true
    Max angular momentum: 2

  ==> DFJKGrad: Density-Fitted SCF Gradients <==

    Gradient:                    1
    J tasked:                  Yes
    K tasked:                  Yes
    wK tasked:                  No
    OpenMP threads:              1
    Integrals threads:           1
    Memory [MiB]:              375
    Schwarz Cutoff:          1E-12
    Fitting Condition:       1E-10

   => Auxiliary Basis Set <=

  Basis Set: (CC-PVDZ AUX)
    Blend: DEF2-UNIVERSAL-JKFIT
    Number of shells: 51
    Number of basis functions: 163
    Number of Cartesian functions: 197
    Spherical Harmonics?: true
    Max angular momentum: 4

  ==> DFT Potential <==

   => LibXC <=

    Version 6.2.2
    S. Lehtola, C. Steigemann, M. J.T. Oliveira, and M. A.L. Marques.,  SoftwareX 7, 1â€“5 (2018) (10.1016/j.softx.2017.11.002)

   => Composite Functional: B3LYP <=

    B3LYP Hyb-GGA Exchange-Correlation Functional

    P. J. Stephens, F. J. Devlin, C. F. Chabalowski, and M. J. Frisch.,  J. Phys. Chem. 98, 11623 (1994) (10.1021/j100096a001)

    Deriv               =              1
    GGA                 =           TRUE
    Meta                =          FALSE

    Exchange Hybrid     =           TRUE
    MP2 Hybrid          =          FALSE

   => Exchange Functionals <=

    0.0800   Slater exchange
    0.7200         Becke 88

   => Exact (HF) Exchange <=

    0.2000               HF

   => Correlation Functionals <=

    0.1900   Vosko, Wilk & Nusair (VWN5_RPA)
    0.8100   Lee, Yang & Parr

   => LibXC Density Thresholds  <==

    XC_HYB_GGA_XC_B3LYP:  1.00E-15

   => Molecular Quadrature <=

    Radial Scheme          =       TREUTLER
    Pruning Scheme         =           NONE
    Nuclear Scheme         =       TREUTLER

    Blocking Scheme        =         OCTREE
    BS radius alpha        =              1
    Pruning alpha          =              1
    Radial Points          =             75
    Spherical Points       =            302
    Total Points           =          43848
    Total Blocks           =            445
    Max Points             =            256
    Max Functions          =             32
    Weights Tolerance      =       1.00E-15

  -Total Gradient:
     Atom            X                  Y                   Z
    ------   -----------------  -----------------  -----------------
       1        0.000000000000     0.000000000000    -0.000007981977
       2        0.000000000000    -0.000000000000    -0.000001693400

*** tstop() called on Joses-MacBook-Pro-2.local at Thu Jul 17 09:42:39 2025
Module time:
	user time   =       1.11 seconds =       0.02 minutes
	system time =       1.53 seconds =       0.03 minutes
	total time  =          0 seconds =       0.00 minutes
Total time:
	user time   =      78.86 seconds =       1.31 minutes
	system time =      78.68 seconds =       1.31 minutes
	total time  =         15 seconds =       0.25 minutes

    			-----------------------------------------

    			 OPTKING 3.0: for geometry optimizations

    			     By R.A. King, Bethel University

    			        with contributions from

    			    A.V. Copan, J. Cayton, A. Heide

    			-----------------------------------------

	                            ===> Fragment 1 <==

	 Z (Atomic Numbers)          Masses                          Geom
	       4.000000             9.012183          0.00000000  0.00000000  3.82382906
	      11.000000            22.989769          0.00000000  0.00000000 -1.49897318

	 - Coordinate -           - BOHR/RAD -       - ANG/DEG -
	 R(1,2)           =         5.322802           2.816706

	        --- Internal Coordinate Step in ANG or DEG, aJ/ANG or AJ/DEG ---
	-------------------------------------------------------------------------------
	           Coordinate      Previous         Force          Change          New
	           ----------      --------        ------          ------        ------
	               R(1,2)       2.81671        0.00003        0.00016       2.81686
	-------------------------------------------------------------------------------

	                                 ==> Convergence Check <==

	Measures of convergence in internal coordinates in au.

	Criteria marked as inactive (o), active & met (*), and active & unmet ( ).

	----------------------------------------------------------------------------------------------
	   Step    Total Energy     Delta E     Max Force     RMS Force      Max Disp      RMS Disp
	----------------------------------------------------------------------------------------------
	  Convergence Criteria     1.00e-06 *    3.00e-04 *             o    1.20e-03 *             o
	----------------------------------------------------------------------------------------------
	    13    -176.97498618   -2.09e-08 *    3.14e-06 *    3.14e-06 o    2.95e-04 *    2.95e-04 o  ~
	----------------------------------------------------------------------------------------------

Next Geometry in Ang
	Fragment 1 (Ang)

	   Be   0.0000000000   0.0000000000   2.0235613006
	   Na   0.0000000000   0.0000000000  -0.7933005498

    Final optimized geometry and variables:
    Molecular point group: c2v
    Full point group: C_inf_v

    Geometry (in Angstrom), charge = -1, multiplicity = 3:

    BE           0.000000000000     0.000000000000     2.023483194982
    NA           0.000000000000     0.000000000000    -0.793222444229

    Psi4 stopped on: Thursday, 17 July 2025 09:42AM
    Psi4 wall time for execution: 0:00:16.03

*** Psi4 exiting successfully. Buy a developer a beer!
