                               Psi4 1.9.1 release

  ==> Input File <==

--------------------------------------------------------------------------
molecule {
-1 3
N   0.00000        0.60000        0.00000
Mg   0.00000       -0.60000        0.00000
}

set {
basis              cc-pvdz
reference          uks
maxiter            500
geom_maxiter       500
DAMPING_PERCENTAGE 1
guess              SAP
}

optimize('b3lyp')
--------------------------------------------------------------------------

    Molecular point group: c2v
  Charge       = -1
  Multiplicity = 3
  Basis Set: CC-PVDZ
    Blend: CC-PVDZ
  Basis Set: (CC-PVDZ AUX)
    Blend: CC-PVDZ-JKFIT + DEF2-UNIVERSAL-JKFIT
  @DF-UKS Final Energy:  -254.27605770897816
    Total Energy =                       -254.2760577089781577
 Dipole X            :          0.0000000            0.0000000            0.0000000
 Dipole Y            :          0.0000000            0.0000000            0.0000000
 Dipole Z            :         -0.2615643           -0.0084525           -0.2700168
 Magnitude           :                                                    0.2700168
    Molecular point group: c2v
  Basis Set: CC-PVDZ
    Blend: CC-PVDZ
  Basis Set: (CC-PVDZ AUX)
    Blend: CC-PVDZ-JKFIT + DEF2-UNIVERSAL-JKFIT
  Basis Set: CC-PVDZ
    Blend: CC-PVDZ
  Basis Set: (CC-PVDZ AUX)
    Blend: CC-PVDZ-JKFIT + DEF2-UNIVERSAL-JKFIT
  @DF-UKS Final Energy:  -254.49132976840642
    Total Energy =                       -254.4913297684064162
  Basis Set: CC-PVDZ
    Blend: CC-PVDZ
  Basis Set: (CC-PVDZ AUX)
    Blend: CC-PVDZ-JKFIT + DEF2-UNIVERSAL-JKFIT
  Basis Set: CC-PVDZ
    Blend: CC-PVDZ
  @DF-UKS Final Energy:  -254.61444724800950
    Total Energy =                       -254.6144472480094976
  @DF-UKS Final Energy:  -254.66392822004221
    Total Energy =                       -254.6639282200422087
  @DF-UKS Final Energy:  -254.68197725441743
    Total Energy =                       -254.6819772544174327
  @DF-UKS Final Energy:  -254.68617098464185
    Total Energy =                       -254.6861709846418478
  @DF-UKS Final Energy:  -254.68755617720373
    Total Energy =                       -254.6875561772037315
  @DF-UKS Final Energy:  -254.68776161076914
    Total Energy =                       -254.6877616107691438
  @DF-UKS Final Energy:  -254.68779451992904
    Total Energy =                       -254.6877945199290423
  Basis Set: (CC-PVDZ AUX)
    Blend: CC-PVDZ-JKFIT + DEF2-UNIVERSAL-JKFIT
  Basis Set: CC-PVDZ
    Blend: CC-PVDZ
  Basis Set: (CC-PVDZ AUX)
    Blend: CC-PVDZ-JKFIT + DEF2-UNIVERSAL-JKFIT
  @DF-UKS Final Energy:  -254.68780068426543
    Total Energy =                       -254.6878006842654258
  Basis Set: CC-PVDZ
    Blend: CC-PVDZ
  Basis Set: (CC-PVDZ AUX)
    Blend: CC-PVDZ-JKFIT + DEF2-UNIVERSAL-JKFIT
  Charge       = -1
  Multiplicity = 3
  Basis Set: CC-PVDZ
    Blend: CC-PVDZ
  Basis Set: (CC-PVDZ AUX)
    Blend: CC-PVDZ-JKFIT + DEF2-UNIVERSAL-JKFIT

    Orbital Energies [Eh]
    ---------------------

    Alpha Occupied:

       1A1   -46.625586     2A1   -14.081452     3A1    -2.914214
       4A1    -1.658188     1B2    -1.657476     1B1    -1.657476
       5A1    -0.461361     6A1    -0.080351     7A1    -0.000549
       2B1     0.005140     2B2     0.005140

    Alpha Virtual:

       3B1     0.150779     3B2     0.150779     8A1     0.192425
       9A1     0.251694     4B1     0.326080     4B2     0.326080
      10A1     0.414182    11A1     0.504599     1A2     0.504599
       5B2     0.569605     5B1     0.569605    12A1     0.769969
      13A1     1.050043     6B1     1.054118     6B2     1.054118
      14A1     1.607351    15A1     2.061285     2A2     2.061310
       7B2     2.116680     7B1     2.116680    16A1     2.280518

    Beta Occupied:

       1A1   -46.622685     2A1   -14.059466     3A1    -2.909345
       1B1    -1.654774     1B2    -1.654774     4A1    -1.651614
       5A1    -0.386039     2B1     0.036542     2B2     0.036542

    Beta Virtual:

       6A1     0.053310     7A1     0.142216     3B1     0.170942
       3B2     0.170942     8A1     0.204165     9A1     0.281951
       4B1     0.346329     4B2     0.346329    10A1     0.463063
       1A2     0.519700    11A1     0.519700     5B2     0.604072
       5B1     0.604072    12A1     0.807066     6B1     1.077448
       6B2     1.077448    13A1     1.135693    14A1     1.657250
      15A1     2.086036     2A2     2.086061     7B2     2.188987
       7B1     2.188987    16A1     2.356364

    Final Occupation by Irrep:
             A1    A2    B1    B2
    DOCC [     5,    0,    2,    2 ]
    SOCC [     2,    0,    0,    0 ]
    NA   [     7,    0,    2,    2 ]
    NB   [     5,    0,    2,    2 ]

  @DF-UKS Final Energy:  -254.68780104905741

   => Energetics <=

    Nuclear Repulsion Energy =             24.3576504312429414
    One-Electron Energy =                -406.5233301560840573
    Two-Electron Energy =                 146.4427420692551607
    DFT Exchange-Correlation Energy =     -18.9648633934714219
    Empirical Dispersion Energy =           0.0000000000000000
    VV10 Nonlocal Energy =                  0.0000000000000000
    Total Energy =                       -254.6878010490574127

  UHF NO Occupations:
  HONO-2 :    2 B2 1.9920624
  HONO-1 :    6 A1 1.0000000
  HONO-0 :    7 A1 1.0000000
  LUNO+0 :    3 B2 0.0079376
  LUNO+1 :    3 B1 0.0079376
  LUNO+2 :    8 A1 0.0007540
  LUNO+3 :    9 A1 0.0000007

Computation Completed

Properties will be evaluated at   0.000000,   0.000000,   0.000000 [a0]

Properties computed using the SCF density matrix

 Multipole Moments:

 ------------------------------------------------------------------------------------
     Multipole            Electronic (a.u.)      Nuclear  (a.u.)        Total (a.u.)
 ------------------------------------------------------------------------------------

 L = 1.  Multiply by 2.5417464519 to convert [e a0] to [Debye]
 Dipole X            :          0.0000000            0.0000000            0.0000000
 Dipole Y            :          0.0000000            0.0000000            0.0000000
 Dipole Z            :         -0.4400851           -0.0128543           -0.4529394
 Magnitude           :                                                    0.4529394

 ------------------------------------------------------------------------------------

*** tstop() called on Joses-MacBook-Pro-2.local at Thu Jul 17 10:29:56 2025
Module time:
	user time   =       4.29 seconds =       0.07 minutes
	system time =       3.56 seconds =       0.06 minutes
	total time  =          0 seconds =       0.00 minutes
Total time:
	user time   =      61.81 seconds =       1.03 minutes
	system time =      69.52 seconds =       1.16 minutes
	total time  =         13 seconds =       0.22 minutes

*** tstart() called on Joses-MacBook-Pro-2.local
*** at Thu Jul 17 10:29:56 2025

         ------------------------------------------------------------
                                   SCF GRAD
                          Rob Parrish, Justin Turney,
                       Andy Simmonett, and Alex Sokolov
         ------------------------------------------------------------

  ==> Geometry <==

    Molecular point group: c2v
    Full point group: C_inf_v

    Geometry (in Angstrom), charge = -1, multiplicity = 3:

       Center              X                  Y                   Z               Mass
    ------------   -----------------  -----------------  -----------------  -----------------
         N            0.000000000000     0.000000000000     1.152226213023    14.003074004430
         MG           0.000000000000     0.000000000000    -0.672698806808    23.985041697000

  Nuclear repulsion =   24.357650431242941

  ==> Basis Set <==

  Basis Set: CC-PVDZ
    Blend: CC-PVDZ
    Number of shells: 14
    Number of basis functions: 32
    Number of Cartesian functions: 34
    Spherical Harmonics?: true
    Max angular momentum: 2

  ==> DFJKGrad: Density-Fitted SCF Gradients <==

    Gradient:                    1
    J tasked:                  Yes
    K tasked:                  Yes
    wK tasked:                  No
    OpenMP threads:              1
    Integrals threads:           1
    Memory [MiB]:              375
    Schwarz Cutoff:          1E-12
    Fitting Condition:       1E-10

   => Auxiliary Basis Set <=

  Basis Set: (CC-PVDZ AUX)
    Blend: CC-PVDZ-JKFIT + DEF2-UNIVERSAL-JKFIT
    Number of shells: 58
    Number of basis functions: 182
    Number of Cartesian functions: 218
    Spherical Harmonics?: true
    Max angular momentum: 4

  ==> DFT Potential <==

   => LibXC <=

    Version 6.2.2
    S. Lehtola, C. Steigemann, M. J.T. Oliveira, and M. A.L. Marques.,  SoftwareX 7, 1â€“5 (2018) (10.1016/j.softx.2017.11.002)

   => Composite Functional: B3LYP <=

    B3LYP Hyb-GGA Exchange-Correlation Functional

    P. J. Stephens, F. J. Devlin, C. F. Chabalowski, and M. J. Frisch.,  J. Phys. Chem. 98, 11623 (1994) (10.1021/j100096a001)

    Deriv               =              1
    GGA                 =           TRUE
    Meta                =          FALSE

    Exchange Hybrid     =           TRUE
    MP2 Hybrid          =          FALSE

   => Exchange Functionals <=

    0.0800   Slater exchange
    0.7200         Becke 88

   => Exact (HF) Exchange <=

    0.2000               HF

   => Correlation Functionals <=

    0.1900   Vosko, Wilk & Nusair (VWN5_RPA)
    0.8100   Lee, Yang & Parr

   => LibXC Density Thresholds  <==

    XC_HYB_GGA_XC_B3LYP:  1.00E-15

   => Molecular Quadrature <=

    Radial Scheme          =       TREUTLER
    Pruning Scheme         =           NONE
    Nuclear Scheme         =       TREUTLER

    Blocking Scheme        =         OCTREE
    BS radius alpha        =              1
    Pruning alpha          =              1
    Radial Points          =             75
    Spherical Points       =            302
    Total Points           =          43432
    Total Blocks           =            413
    Max Points             =            254
    Max Functions          =             32
    Weights Tolerance      =       1.00E-15

  -Total Gradient:
     Atom            X                  Y                   Z
    ------   -----------------  -----------------  -----------------
       1        0.000000000000    -0.000000000000    -0.000091944042
       2        0.000000000000     0.000000000000     0.000016470958

*** tstop() called on Joses-MacBook-Pro-2.local at Thu Jul 17 10:29:57 2025
Module time:
	user time   =       0.75 seconds =       0.01 minutes
	system time =       1.86 seconds =       0.03 minutes
	total time  =          1 seconds =       0.02 minutes
Total time:
	user time   =      62.56 seconds =       1.04 minutes
	system time =      71.38 seconds =       1.19 minutes
	total time  =         14 seconds =       0.23 minutes

    			-----------------------------------------

    			 OPTKING 3.0: for geometry optimizations

    			     By R.A. King, Bethel University

    			        with contributions from

    			    A.V. Copan, J. Cayton, A. Heide

    			-----------------------------------------

	                            ===> Fragment 1 <==

	 Z (Atomic Numbers)          Masses                          Geom
	       7.000000            14.003074          0.00000000  0.00000000  2.17739198
	      12.000000            23.985042          0.00000000  0.00000000 -1.27121651

	 - Coordinate -           - BOHR/RAD -       - ANG/DEG -
	 R(1,2)           =         3.448608           1.824925

	        --- Internal Coordinate Step in ANG or DEG, aJ/ANG or AJ/DEG ---
	-------------------------------------------------------------------------------
	           Coordinate      Previous         Force          Change          New
	           ----------      --------        ------          ------        ------
	               R(1,2)       1.82493        0.00045        0.00014       1.82507
	-------------------------------------------------------------------------------

	                                 ==> Convergence Check <==

	Measures of convergence in internal coordinates in au.

	Criteria marked as inactive (o), active & met (*), and active & unmet ( ).

	----------------------------------------------------------------------------------------------
	   Step    Total Energy     Delta E     Max Force     RMS Force      Max Disp      RMS Disp
	----------------------------------------------------------------------------------------------
	  Convergence Criteria     1.00e-06 *    3.00e-04 *             o    1.20e-03 *             o
	----------------------------------------------------------------------------------------------
	    11    -254.68780105   -3.65e-07 *    5.42e-05 *    5.42e-05 o    2.66e-04 *    2.66e-04 o  ~
	----------------------------------------------------------------------------------------------

Next Geometry in Ang
	Fragment 1 (Ang)

	    N   0.0000000000   0.0000000000   1.1522965288
	   Mg   0.0000000000   0.0000000000  -0.6727691225

    Final optimized geometry and variables:
    Molecular point group: c2v
    Full point group: C_inf_v

    Geometry (in Angstrom), charge = -1, multiplicity = 3:

    N            0.000000000000     0.000000000000     1.152226213023
    MG           0.000000000000     0.000000000000    -0.672698806808

    Psi4 stopped on: Thursday, 17 July 2025 10:29AM
    Psi4 wall time for execution: 0:00:13.79

*** Psi4 exiting successfully. Buy a developer a beer!
