                               Psi4 1.9.1 release

  ==> Input File <==

--------------------------------------------------------------------------
molecule {
-1 3
Li   0.00000        0.60000        0.00000
S   0.00000       -0.60000        0.00000
}

set {
basis              cc-pvdz
reference          uks
maxiter            500
geom_maxiter       500
DAMPING_PERCENTAGE 1
guess              SAP
}

optimize('b3lyp')
--------------------------------------------------------------------------

    Molecular point group: c2v
  Charge       = -1
  Multiplicity = 3
  Basis Set: CC-PVDZ
    Blend: CC-PVDZ
  Basis Set: (CC-PVDZ AUX)
    Blend: CC-PVDZ-JKFIT + DEF2-UNIVERSAL-JKFIT
  @DF-UKS Final Energy:  -405.31747742415791
    Total Energy =                       -405.3174774241579144
 Dipole X            :          0.0000000            0.0000000            0.0000000
 Dipole Y            :          0.0000000            0.0000000            0.0000000
 Dipole Z            :         -1.6766725           -0.9503775           -2.6270500
 Magnitude           :                                                    2.6270500
    Molecular point group: c2v
  Basis Set: CC-PVDZ
    Blend: CC-PVDZ
  Basis Set: (CC-PVDZ AUX)
    Blend: CC-PVDZ-JKFIT + DEF2-UNIVERSAL-JKFIT
  Basis Set: CC-PVDZ
    Blend: CC-PVDZ
  Basis Set: (CC-PVDZ AUX)
    Blend: CC-PVDZ-JKFIT + DEF2-UNIVERSAL-JKFIT
  @DF-UKS Final Energy:  -405.44460005990703
    Total Energy =                       -405.4446000599070885
  Basis Set: CC-PVDZ
    Blend: CC-PVDZ
  Basis Set: (CC-PVDZ AUX)
    Blend: CC-PVDZ-JKFIT + DEF2-UNIVERSAL-JKFIT
  Basis Set: CC-PVDZ
    Blend: CC-PVDZ
  @DF-UKS Final Energy:  -405.56495557464859
    Total Energy =                       -405.5649555746485930
  @DF-UKS Final Energy:  -405.65225278338193
    Total Energy =                       -405.6522527833819254
  @DF-UKS Final Energy:  -405.69698057898108
    Total Energy =                       -405.6969805789810835
  @DF-UKS Final Energy:  -405.71711769361679
    Total Energy =                       -405.7171176936167853
  @DF-UKS Final Energy:  -405.72559615280926
    Total Energy =                       -405.7255961528092598
  @DF-UKS Final Energy:  -405.72844983131245
    Total Energy =                       -405.7284498313124459
  @DF-UKS Final Energy:  -405.72900264253485
    Total Energy =                       -405.7290026425347946
  @DF-UKS Final Energy:  -405.72914204433226
    Total Energy =                       -405.7291420443322636
  @DF-UKS Final Energy:  -405.72915595963815
    Total Energy =                       -405.7291559596381489
  Basis Set: (CC-PVDZ AUX)
    Blend: CC-PVDZ-JKFIT + DEF2-UNIVERSAL-JKFIT
  Basis Set: CC-PVDZ
    Blend: CC-PVDZ
  Basis Set: (CC-PVDZ AUX)
    Blend: CC-PVDZ-JKFIT + DEF2-UNIVERSAL-JKFIT
  @DF-UKS Final Energy:  -405.72915733874635
    Total Energy =                       -405.7291573387463472
  Basis Set: CC-PVDZ
    Blend: CC-PVDZ
  Basis Set: (CC-PVDZ AUX)
    Blend: CC-PVDZ-JKFIT + DEF2-UNIVERSAL-JKFIT
  Charge       = -1
  Multiplicity = 3
  Basis Set: CC-PVDZ
    Blend: CC-PVDZ
  Basis Set: (CC-PVDZ AUX)
    Blend: CC-PVDZ-JKFIT + DEF2-UNIVERSAL-JKFIT

    Orbital Energies [Eh]
    ---------------------

    Alpha Occupied:

       1A1   -88.665694     2A1    -7.725329     3A1    -5.698197
       1B2    -5.680633     1B1    -5.680633     4A1    -1.848384
       5A1    -0.466011     6A1    -0.120399     2B2    -0.056174
       2B1    -0.056174     7A1     0.036466

    Alpha Virtual:

       3B2     0.121515     3B1     0.121515     8A1     0.143002
       9A1     0.216132     4B1     0.222056     4B2     0.222056
      10A1     0.317091     1A2     0.387461    11A1     0.387461
       5B2     0.402651     5B1     0.402651    12A1     0.486708
       6B1     0.727888     6B2     0.727888    13A1     0.740403
      14A1     0.781493    15A1     0.840002     2A2     0.840004
       7B1     0.903098     7B2     0.903098    16A1     1.272461

    Beta Occupied:

       1A1   -88.660866     2A1    -7.720347     3A1    -5.682124
       1B2    -5.677643     1B1    -5.677643     4A1    -1.842813
       5A1    -0.421126     2B2    -0.043544     2B1    -0.043544

    Beta Virtual:

       6A1     0.009806     7A1     0.109854     3B2     0.132957
       3B1     0.132957     8A1     0.150717     4B1     0.237206
       4B2     0.237206     9A1     0.249178    10A1     0.351302
       1A2     0.403881    11A1     0.403881     5B2     0.444123
       5B1     0.444123    12A1     0.526129     6B1     0.738805
       6B2     0.738805    13A1     0.784119    14A1     0.832142
      15A1     0.846913     2A2     0.846915     7B1     0.943603
       7B2     0.943603    16A1     1.294668

    Final Occupation by Irrep:
             A1    A2    B1    B2
    DOCC [     5,    0,    2,    2 ]
    SOCC [     2,    0,    0,    0 ]
    NA   [     7,    0,    2,    2 ]
    NB   [     5,    0,    2,    2 ]

  @DF-UKS Final Energy:  -405.72915744096628

   => Energetics <=

    Nuclear Repulsion Energy =             11.1358657499977785
    One-Electron Energy =                -586.0992627801873596
    Two-Electron Energy =                 191.5614500993901856
    DFT Exchange-Correlation Energy =     -22.3272105101669176
    Empirical Dispersion Energy =           0.0000000000000000
    VV10 Nonlocal Energy =                  0.0000000000000000
    Total Energy =                       -405.7291574409662758

  UHF NO Occupations:
  HONO-2 :    5 A1 1.9990301
  HONO-1 :    6 A1 1.0000000
  HONO-0 :    7 A1 1.0000000
  LUNO+0 :    8 A1 0.0009699
  LUNO+1 :    3 B2 0.0000899
  LUNO+2 :    3 B1 0.0000899
  LUNO+3 :    9 A1 0.0000005

Computation Completed

Properties will be evaluated at   0.000000,   0.000000,   0.000000 [a0]

Properties computed using the SCF density matrix

 Multipole Moments:

 ------------------------------------------------------------------------------------
     Multipole            Electronic (a.u.)      Nuclear  (a.u.)        Total (a.u.)
 ------------------------------------------------------------------------------------

 L = 1.  Multiply by 2.5417464519 to convert [e a0] to [Debye]
 Dipole X            :          0.0000000            0.0000000            0.0000000
 Dipole Y            :          0.0000000            0.0000000            0.0000000
 Dipole Z            :         -0.9591593           -1.8064806           -2.7656398
 Magnitude           :                                                    2.7656398

 ------------------------------------------------------------------------------------

*** tstop() called on Joses-MacBook-Pro-2.local at Thu Jul 17 09:36:04 2025
Module time:
	user time   =       2.43 seconds =       0.04 minutes
	system time =       4.55 seconds =       0.08 minutes
	total time  =          1 seconds =       0.02 minutes
Total time:
	user time   =      65.30 seconds =       1.09 minutes
	system time =      71.48 seconds =       1.19 minutes
	total time  =         14 seconds =       0.23 minutes

*** tstart() called on Joses-MacBook-Pro-2.local
*** at Thu Jul 17 09:36:04 2025

         ------------------------------------------------------------
                                   SCF GRAD
                          Rob Parrish, Justin Turney,
                       Andy Simmonett, and Alex Sokolov
         ------------------------------------------------------------

  ==> Geometry <==

    Molecular point group: c2v
    Full point group: C_inf_v

    Geometry (in Angstrom), charge = -1, multiplicity = 3:

       Center              X                  Y                   Z               Mass
    ------------   -----------------  -----------------  -----------------  -----------------
         LI           0.000000000000     0.000000000000     1.870498508121     7.016003436600
         S            0.000000000000     0.000000000000    -0.410465242916    31.972071174400

  Nuclear repulsion =   11.135865749997778

  ==> Basis Set <==

  Basis Set: CC-PVDZ
    Blend: CC-PVDZ
    Number of shells: 14
    Number of basis functions: 32
    Number of Cartesian functions: 34
    Spherical Harmonics?: true
    Max angular momentum: 2

  ==> DFJKGrad: Density-Fitted SCF Gradients <==

    Gradient:                    1
    J tasked:                  Yes
    K tasked:                  Yes
    wK tasked:                  No
    OpenMP threads:              1
    Integrals threads:           1
    Memory [MiB]:              375
    Schwarz Cutoff:          1E-12
    Fitting Condition:       1E-10

   => Auxiliary Basis Set <=

  Basis Set: (CC-PVDZ AUX)
    Blend: CC-PVDZ-JKFIT + DEF2-UNIVERSAL-JKFIT
    Number of shells: 53
    Number of basis functions: 163
    Number of Cartesian functions: 190
    Spherical Harmonics?: true
    Max angular momentum: 3

  ==> DFT Potential <==

   => LibXC <=

    Version 6.2.2
    S. Lehtola, C. Steigemann, M. J.T. Oliveira, and M. A.L. Marques.,  SoftwareX 7, 1â€“5 (2018) (10.1016/j.softx.2017.11.002)

   => Composite Functional: B3LYP <=

    B3LYP Hyb-GGA Exchange-Correlation Functional

    P. J. Stephens, F. J. Devlin, C. F. Chabalowski, and M. J. Frisch.,  J. Phys. Chem. 98, 11623 (1994) (10.1021/j100096a001)

    Deriv               =              1
    GGA                 =           TRUE
    Meta                =          FALSE

    Exchange Hybrid     =           TRUE
    MP2 Hybrid          =          FALSE

   => Exchange Functionals <=

    0.0800   Slater exchange
    0.7200         Becke 88

   => Exact (HF) Exchange <=

    0.2000               HF

   => Correlation Functionals <=

    0.1900   Vosko, Wilk & Nusair (VWN5_RPA)
    0.8100   Lee, Yang & Parr

   => LibXC Density Thresholds  <==

    XC_HYB_GGA_XC_B3LYP:  1.00E-15

   => Molecular Quadrature <=

    Radial Scheme          =       TREUTLER
    Pruning Scheme         =           NONE
    Nuclear Scheme         =       TREUTLER

    Blocking Scheme        =         OCTREE
    BS radius alpha        =              1
    Pruning alpha          =              1
    Radial Points          =             75
    Spherical Points       =            302
    Total Points           =          44331
    Total Blocks           =            438
    Max Points             =            256
    Max Functions          =             32
    Weights Tolerance      =       1.00E-15

  -Total Gradient:
     Atom            X                  Y                   Z
    ------   -----------------  -----------------  -----------------
       1        0.000000000000    -0.000000000000    -0.000009221164
       2        0.000000000000     0.000000000000     0.000033216539

*** tstop() called on Joses-MacBook-Pro-2.local at Thu Jul 17 09:36:04 2025
Module time:
	user time   =       0.58 seconds =       0.01 minutes
	system time =       2.20 seconds =       0.04 minutes
	total time  =          0 seconds =       0.00 minutes
Total time:
	user time   =      65.88 seconds =       1.10 minutes
	system time =      73.69 seconds =       1.23 minutes
	total time  =         14 seconds =       0.23 minutes

    			-----------------------------------------

    			 OPTKING 3.0: for geometry optimizations

    			     By R.A. King, Bethel University

    			        with contributions from

    			    A.V. Copan, J. Cayton, A. Heide

    			-----------------------------------------

	                            ===> Fragment 1 <==

	 Z (Atomic Numbers)          Masses                          Geom
	       3.000000             7.016003          0.00000000  0.00000000  3.53472990
	      16.000000            31.972071          0.00000000  0.00000000 -0.77566689

	 - Coordinate -           - BOHR/RAD -       - ANG/DEG -
	 R(1,2)           =         4.310397           2.280964

	        --- Internal Coordinate Step in ANG or DEG, aJ/ANG or AJ/DEG ---
	-------------------------------------------------------------------------------
	           Coordinate      Previous         Force          Change          New
	           ----------      --------        ------          ------        ------
	               R(1,2)       2.28096        0.00017        0.00029       2.28125
	-------------------------------------------------------------------------------

	                                 ==> Convergence Check <==

	Measures of convergence in internal coordinates in au.

	Criteria marked as inactive (o), active & met (*), and active & unmet ( ).

	----------------------------------------------------------------------------------------------
	   Step    Total Energy     Delta E     Max Force     RMS Force      Max Disp      RMS Disp
	----------------------------------------------------------------------------------------------
	  Convergence Criteria     1.00e-06 *    3.00e-04 *             o    1.20e-03 *             o
	----------------------------------------------------------------------------------------------
	    13    -405.72915744   -1.02e-07 *    2.12e-05 *    2.12e-05 o    5.50e-04 *    5.50e-04 o  ~
	----------------------------------------------------------------------------------------------

Next Geometry in Ang
	Fragment 1 (Ang)

	   Li   0.0000000000   0.0000000000   1.8706439826
	    S   0.0000000000   0.0000000000  -0.4106107174

    Final optimized geometry and variables:
    Molecular point group: c2v
    Full point group: C_inf_v

    Geometry (in Angstrom), charge = -1, multiplicity = 3:

    LI           0.000000000000     0.000000000000     1.870498508121
    S            0.000000000000     0.000000000000    -0.410465242916

    Psi4 stopped on: Thursday, 17 July 2025 09:36AM
    Psi4 wall time for execution: 0:00:14.50

*** Psi4 exiting successfully. Buy a developer a beer!
