                               Psi4 1.9.1 release

  ==> Input File <==

--------------------------------------------------------------------------
molecule {
-1 3
Ne   0.00000        0.60000        0.00000
Na   0.00000       -0.60000        0.00000
}

set {
basis              cc-pvdz
reference          uks
maxiter            500
geom_maxiter       500
DAMPING_PERCENTAGE 1
guess              SAP
}

optimize('b3lyp')
--------------------------------------------------------------------------

    Molecular point group: c2v
  Charge       = -1
  Multiplicity = 3
  Basis Set: CC-PVDZ
    Blend: CC-PVDZ
  Basis Set: (CC-PVDZ AUX)
    Blend: CC-PVDZ-JKFIT + DEF2-UNIVERSAL-JKFIT
  @DF-UKS Final Energy:  -290.68570747898872
    Total Energy =                       -290.6857074789887747
 Dipole X            :          0.0000000            0.0000000            0.0000000
 Dipole Y            :          0.0000000            0.0000000            0.0000000
 Dipole Z            :          1.0291934            0.5265734            1.5557669
 Magnitude           :                                                    1.5557669
    Molecular point group: c2v
  Basis Set: CC-PVDZ
    Blend: CC-PVDZ
  Basis Set: (CC-PVDZ AUX)
    Blend: CC-PVDZ-JKFIT + DEF2-UNIVERSAL-JKFIT
  Basis Set: CC-PVDZ
    Blend: CC-PVDZ
  Basis Set: (CC-PVDZ AUX)
    Blend: CC-PVDZ-JKFIT + DEF2-UNIVERSAL-JKFIT
  @DF-UKS Final Energy:  -290.95838789093102
    Total Energy =                       -290.9583878909310215
  Basis Set: CC-PVDZ
    Blend: CC-PVDZ
  Basis Set: (CC-PVDZ AUX)
    Blend: CC-PVDZ-JKFIT + DEF2-UNIVERSAL-JKFIT
  Basis Set: CC-PVDZ
    Blend: CC-PVDZ
  @DF-UKS Final Energy:  -291.06735049307082
    Total Energy =                       -291.0673504930708191
  @DF-UKS Final Energy:  -291.12767765935990
    Total Energy =                       -291.1276776593599038
  @DF-UKS Final Energy:  -291.15142417491916
    Total Energy =                       -291.1514241749191569
  @DF-UKS Final Energy:  -291.16706884813766
    Total Energy =                       -291.1670688481376601
  @DF-UKS Final Energy:  -291.17685077205937
    Total Energy =                       -291.1768507720594243
  @DF-UKS Final Energy:  -291.18221747774010
    Total Energy =                       -291.1822174777400960
  @DF-UKS Final Energy:  -291.18535932511224
    Total Energy =                       -291.1853593251122447
  @DF-UKS Final Energy:  -291.18722687041151
    Total Energy =                       -291.1872268704115072
  @DF-UKS Final Energy:  -291.18831724464610
    Total Energy =                       -291.1883172446461003
  @DF-UKS Final Energy:  -291.18892289504004
    Total Energy =                       -291.1889228950400934
  @DF-UKS Final Energy:  -291.18920351929819
    Total Energy =                       -291.1892035192981893
  @DF-UKS Final Energy:  -291.18931994955591
    Total Energy =                       -291.1893199495559088
  Basis Set: (CC-PVDZ AUX)
    Blend: CC-PVDZ-JKFIT + DEF2-UNIVERSAL-JKFIT
  Basis Set: CC-PVDZ
    Blend: CC-PVDZ
  Basis Set: (CC-PVDZ AUX)
    Blend: CC-PVDZ-JKFIT + DEF2-UNIVERSAL-JKFIT
  @DF-UKS Final Energy:  -291.18934293213925
    Total Energy =                       -291.1893429321392546
  Basis Set: CC-PVDZ
    Blend: CC-PVDZ
  Basis Set: (CC-PVDZ AUX)
    Blend: CC-PVDZ-JKFIT + DEF2-UNIVERSAL-JKFIT
  Charge       = -1
  Multiplicity = 3
  Basis Set: CC-PVDZ
    Blend: CC-PVDZ
  Basis Set: (CC-PVDZ AUX)
    Blend: CC-PVDZ-JKFIT + DEF2-UNIVERSAL-JKFIT

    Orbital Energies [Eh]
    ---------------------

    Alpha Occupied:

       1A1   -38.343126     2A1   -30.883836     3A1    -2.087913
       4A1    -1.345674     5A1    -1.019366     1B1    -1.019189
       1B2    -1.018050     6A1    -0.457490     2B1    -0.452880
       2B2    -0.452413     7A1     0.003405     3B2     0.054028

    Alpha Virtual:

       3B1     0.087967     8A1     0.092218     9A1     0.158922
       4B2     0.185259     4B1     0.192215    10A1     0.204567
       1A2     0.287097    11A1     0.289235     5B2     0.291559
       5B1     0.295299    12A1     0.326387     6B1     1.493155
       6B2     1.494304    13A1     1.531280    14A1     2.176711
      15A1     4.811327     7B1     4.812060     7B2     4.812451
       2A2     4.812843    16A1     4.813569

    Beta Occupied:

       1A1   -38.341776     2A1   -30.883369     3A1    -2.085305
       4A1    -1.344732     5A1    -1.017775     1B1    -1.017585
       1B2    -1.015821     6A1    -0.456477     2B1    -0.452422
       2B2    -0.451433

    Beta Virtual:

       7A1     0.066578     8A1     0.108172     3B1     0.110117
       3B2     0.113858     9A1     0.178980     4B1     0.211257
      10A1     0.218860     4B2     0.219362     5B1     0.312499
       5B2     0.321482    11A1     0.324267     1A2     0.325081
      12A1     0.346600     6B1     1.494489     6B2     1.496370
      13A1     1.532626    14A1     2.178695    15A1     4.811976
       7B1     4.812601     7B2     4.813204     2A2     4.813348
      16A1     4.814106

    Final Occupation by Irrep:
             A1    A2    B1    B2
    DOCC [     6,    0,    2,    2 ]
    SOCC [     1,    0,    0,    1 ]
    NA   [     7,    0,    2,    3 ]
    NB   [     6,    0,    2,    2 ]

  @DF-UKS Final Energy:  -291.18934266637518

   => Energetics <=

    Nuclear Repulsion Energy =             21.7485836270400021
    One-Electron Energy =                -456.1838555508875288
    Two-Electron Energy =                 165.0585937895760935
    DFT Exchange-Correlation Energy =     -21.8126645321037174
    Empirical Dispersion Energy =           0.0000000000000000
    VV10 Nonlocal Energy =                  0.0000000000000000
    Total Energy =                       -291.1893426663751825

  UHF NO Occupations:
  HONO-2 :    6 A1 1.9999986
  HONO-1 :    3 B2 1.0000000
  HONO-0 :    7 A1 1.0000000
  LUNO+0 :    8 A1 0.0000014
  LUNO+1 :    3 B1 0.0000007
  LUNO+2 :    4 B2 0.0000005
  LUNO+3 :    9 A1 0.0000002

Computation Completed

Properties will be evaluated at   0.000000,   0.000000,   0.000000 [a0]

Properties computed using the SCF density matrix

 Multipole Moments:

 ------------------------------------------------------------------------------------
     Multipole            Electronic (a.u.)      Nuclear  (a.u.)        Total (a.u.)
 ------------------------------------------------------------------------------------

 L = 1.  Multiply by 2.5417464519 to convert [e a0] to [Debye]
 Dipole X            :          0.0000000            0.0000000            0.0000000
 Dipole Y            :          0.0000000            0.0000000            0.0000000
 Dipole Z            :          1.5991280            1.1744662            2.7735942
 Magnitude           :                                                    2.7735942

 ------------------------------------------------------------------------------------

*** tstop() called on Joses-MacBook-Pro-2.local at Thu Jul 17 10:58:17 2025
Module time:
	user time   =       3.74 seconds =       0.06 minutes
	system time =       3.11 seconds =       0.05 minutes
	total time  =          1 seconds =       0.02 minutes
Total time:
	user time   =      78.34 seconds =       1.31 minutes
	system time =      84.51 seconds =       1.41 minutes
	total time  =         17 seconds =       0.28 minutes

*** tstart() called on Joses-MacBook-Pro-2.local
*** at Thu Jul 17 10:58:17 2025

         ------------------------------------------------------------
                                   SCF GRAD
                          Rob Parrish, Justin Turney,
                       Andy Simmonett, and Alex Sokolov
         ------------------------------------------------------------

  ==> Geometry <==

    Molecular point group: c2v
    Full point group: C_inf_v

    Geometry (in Angstrom), charge = -1, multiplicity = 3:

       Center              X                  Y                   Z               Mass
    ------------   -----------------  -----------------  -----------------  -----------------
         NE           0.000000000000     0.000000000000     1.431557233378    19.992440176200
         NA           0.000000000000     0.000000000000    -1.244915596849    22.989769282000

  Nuclear repulsion =   21.748583627040002

  ==> Basis Set <==

  Basis Set: CC-PVDZ
    Blend: CC-PVDZ
    Number of shells: 14
    Number of basis functions: 32
    Number of Cartesian functions: 34
    Spherical Harmonics?: true
    Max angular momentum: 2

  ==> DFJKGrad: Density-Fitted SCF Gradients <==

    Gradient:                    1
    J tasked:                  Yes
    K tasked:                  Yes
    wK tasked:                  No
    OpenMP threads:              1
    Integrals threads:           1
    Memory [MiB]:              375
    Schwarz Cutoff:          1E-12
    Fitting Condition:       1E-10

   => Auxiliary Basis Set <=

  Basis Set: (CC-PVDZ AUX)
    Blend: CC-PVDZ-JKFIT + DEF2-UNIVERSAL-JKFIT
    Number of shells: 58
    Number of basis functions: 182
    Number of Cartesian functions: 218
    Spherical Harmonics?: true
    Max angular momentum: 4

  ==> DFT Potential <==

   => LibXC <=

    Version 6.2.2
    S. Lehtola, C. Steigemann, M. J.T. Oliveira, and M. A.L. Marques.,  SoftwareX 7, 1â€“5 (2018) (10.1016/j.softx.2017.11.002)

   => Composite Functional: B3LYP <=

    B3LYP Hyb-GGA Exchange-Correlation Functional

    P. J. Stephens, F. J. Devlin, C. F. Chabalowski, and M. J. Frisch.,  J. Phys. Chem. 98, 11623 (1994) (10.1021/j100096a001)

    Deriv               =              1
    GGA                 =           TRUE
    Meta                =          FALSE

    Exchange Hybrid     =           TRUE
    MP2 Hybrid          =          FALSE

   => Exchange Functionals <=

    0.0800   Slater exchange
    0.7200         Becke 88

   => Exact (HF) Exchange <=

    0.2000               HF

   => Correlation Functionals <=

    0.1900   Vosko, Wilk & Nusair (VWN5_RPA)
    0.8100   Lee, Yang & Parr

   => LibXC Density Thresholds  <==

    XC_HYB_GGA_XC_B3LYP:  1.00E-15

   => Molecular Quadrature <=

    Radial Scheme          =       TREUTLER
    Pruning Scheme         =           NONE
    Nuclear Scheme         =       TREUTLER

    Blocking Scheme        =         OCTREE
    BS radius alpha        =              1
    Pruning alpha          =              1
    Radial Points          =             75
    Spherical Points       =            302
    Total Points           =          43826
    Total Blocks           =            417
    Max Points             =            256
    Max Functions          =             32
    Weights Tolerance      =       1.00E-15

  -Total Gradient:
     Atom            X                  Y                   Z
    ------   -----------------  -----------------  -----------------
       1        0.000000000000    -0.000000000000    -0.000087029921
       2        0.000000000000     0.000000000000     0.000042412386

*** tstop() called on Joses-MacBook-Pro-2.local at Thu Jul 17 10:58:17 2025
Module time:
	user time   =       1.46 seconds =       0.02 minutes
	system time =       1.31 seconds =       0.02 minutes
	total time  =          0 seconds =       0.00 minutes
Total time:
	user time   =      79.81 seconds =       1.33 minutes
	system time =      85.82 seconds =       1.43 minutes
	total time  =         17 seconds =       0.28 minutes

    			-----------------------------------------

    			 OPTKING 3.0: for geometry optimizations

    			     By R.A. King, Bethel University

    			        with contributions from

    			    A.V. Copan, J. Cayton, A. Heide

    			-----------------------------------------

	                            ===> Fragment 1 <==

	 Z (Atomic Numbers)          Masses                          Geom
	      10.000000            19.992440          0.00000000  0.00000000  2.70525110
	      11.000000            22.989769          0.00000000  0.00000000 -2.35254953

	 - Coordinate -           - BOHR/RAD -       - ANG/DEG -
	 R(1,2)           =         5.057801           2.676473

	        --- Internal Coordinate Step in ANG or DEG, aJ/ANG or AJ/DEG ---
	-------------------------------------------------------------------------------
	           Coordinate      Previous         Force          Change          New
	           ----------      --------        ------          ------        ------
	               R(1,2)       2.67647        0.00053        0.00702       2.68349
	-------------------------------------------------------------------------------

	                                 ==> Convergence Check <==

	Measures of convergence in internal coordinates in au.

	Criteria marked as inactive (o), active & met (*), and active & unmet ( ).

	----------------------------------------------------------------------------------------------
	   Step    Total Energy     Delta E     Max Force     RMS Force      Max Disp      RMS Disp
	----------------------------------------------------------------------------------------------
	  Convergence Criteria     1.00e-06 *    3.00e-04 *             o    1.20e-03 *             o
	----------------------------------------------------------------------------------------------
	    16    -291.18934267    2.66e-07 *    6.47e-05 *    6.47e-05 o    1.33e-02      1.33e-02 o  ~
	----------------------------------------------------------------------------------------------

Next Geometry in Ang
	Fragment 1 (Ang)

	   Ne   0.0000000000   0.0000000000   1.4350665104
	   Na   0.0000000000   0.0000000000  -1.2484248738

    Final optimized geometry and variables:
    Molecular point group: c2v
    Full point group: C_inf_v

    Geometry (in Angstrom), charge = -1, multiplicity = 3:

    NE           0.000000000000     0.000000000000     1.431557233378
    NA           0.000000000000     0.000000000000    -1.244915596849

    Psi4 stopped on: Thursday, 17 July 2025 10:58AM
    Psi4 wall time for execution: 0:00:17.82

*** Psi4 exiting successfully. Buy a developer a beer!
