                               Psi4 1.9.1 release

  ==> Input File <==

--------------------------------------------------------------------------
molecule {
-1 3
Be   0.00000        0.60000        0.00000
B   0.00000       -0.60000        0.00000
}

set {
basis              cc-pvdz
reference          uks
maxiter            500
geom_maxiter       500
DAMPING_PERCENTAGE 1
guess              SAP
}

optimize('b3lyp')
--------------------------------------------------------------------------

    Molecular point group: c2v
  Charge       = -1
  Multiplicity = 3
  Basis Set: CC-PVDZ
    Blend: CC-PVDZ
  Basis Set: (CC-PVDZ AUX)
    Blend: CC-PVDZ-JKFIT + DEF2-UNIVERSAL-JKFIT
  @DF-UKS Final Energy:   -39.19971449052887
    Total Energy =                        -39.1997144905288764
 Dipole X            :          0.0000000            0.0000000            0.0000000
 Dipole Y            :          0.0000000            0.0000000            0.0000000
 Dipole Z            :         -0.1213739           -0.1159455           -0.2373194
 Magnitude           :                                                    0.2373194
    Molecular point group: c2v
  Basis Set: CC-PVDZ
    Blend: CC-PVDZ
  Basis Set: (CC-PVDZ AUX)
    Blend: CC-PVDZ-JKFIT + DEF2-UNIVERSAL-JKFIT
  Basis Set: CC-PVDZ
    Blend: CC-PVDZ
  Basis Set: (CC-PVDZ AUX)
    Blend: CC-PVDZ-JKFIT + DEF2-UNIVERSAL-JKFIT
  @DF-UKS Final Energy:   -39.31559207543803
    Total Energy =                        -39.3155920754380261
  Basis Set: CC-PVDZ
    Blend: CC-PVDZ
  Basis Set: (CC-PVDZ AUX)
    Blend: CC-PVDZ-JKFIT + DEF2-UNIVERSAL-JKFIT
  Basis Set: CC-PVDZ
    Blend: CC-PVDZ
  @DF-UKS Final Energy:   -39.34422508002962
    Total Energy =                        -39.3442250800296236
  @DF-UKS Final Energy:   -39.35385762861544
    Total Energy =                        -39.3538576286154438
  @DF-UKS Final Energy:   -39.35546474130420
    Total Energy =                        -39.3554647413042034
  @DF-UKS Final Energy:   -39.35577614562147
    Total Energy =                        -39.3557761456214692
  @DF-UKS Final Energy:   -39.35585220797844
    Total Energy =                        -39.3558522079784439
  Basis Set: (CC-PVDZ AUX)
    Blend: CC-PVDZ-JKFIT + DEF2-UNIVERSAL-JKFIT
  Basis Set: CC-PVDZ
    Blend: CC-PVDZ
  Basis Set: (CC-PVDZ AUX)
    Blend: CC-PVDZ-JKFIT + DEF2-UNIVERSAL-JKFIT
  @DF-UKS Final Energy:   -39.35585955158287
    Total Energy =                        -39.3558595515828813
  Basis Set: CC-PVDZ
    Blend: CC-PVDZ
  Basis Set: (CC-PVDZ AUX)
    Blend: CC-PVDZ-JKFIT + DEF2-UNIVERSAL-JKFIT
  Charge       = -1
  Multiplicity = 3
  Basis Set: CC-PVDZ
    Blend: CC-PVDZ
  Basis Set: (CC-PVDZ AUX)
    Blend: CC-PVDZ-JKFIT + DEF2-UNIVERSAL-JKFIT

    Orbital Energies [Eh]
    ---------------------

    Alpha Occupied:

       1A1    -6.561107     2A1    -3.833769     3A1    -0.188244
       4A1    -0.014569     1B1     0.035509     1B2     0.059689

    Alpha Virtual:

       5A1     0.091596     2B1     0.199738     2B2     0.214894
       6A1     0.254482     7A1     0.357368     3B1     0.377222
       3B2     0.388886     8A1     0.467894     4B1     0.535196
       4B2     0.552306     9A1     0.604685    10A1     0.676322
       1A2     0.676416     5B1     0.754612     5B2     0.773630
      11A1     0.809335     2A2     1.002263    12A1     1.002559
      13A1     1.154277     6B1     1.219556     6B2     1.238747
      14A1     1.471277

    Beta Occupied:

       1A1    -6.551609     2A1    -3.824373     3A1    -0.149381
       1B2     0.074608

    Beta Virtual:

       4A1     0.087183     1B1     0.138747     5A1     0.140029
       2B2     0.232328     2B1     0.250521     6A1     0.268065
       7A1     0.390839     3B2     0.403266     3B1     0.416050
       8A1     0.493025     4B2     0.561585     4B1     0.576746
       9A1     0.650243     1A2     0.710904    10A1     0.717643
       5B2     0.797748     5B1     0.814849    11A1     0.839008
       2A2     1.037925    12A1     1.042828    13A1     1.186059
       6B2     1.263324     6B1     1.277041    14A1     1.498522

    Final Occupation by Irrep:
             A1    A2    B1    B2
    DOCC [     3,    0,    0,    1 ]
    SOCC [     1,    0,    1,    0 ]
    NA   [     4,    0,    1,    1 ]
    NB   [     3,    0,    0,    1 ]

  @DF-UKS Final Energy:   -39.35586033891973

   => Energetics <=

    Nuclear Repulsion Energy =              6.2543868688461055
    One-Electron Energy =                 -66.2046080806579766
    Two-Electron Energy =                  26.2171906630069174
    DFT Exchange-Correlation Energy =      -5.6228297901147783
    Empirical Dispersion Energy =           0.0000000000000000
    VV10 Nonlocal Energy =                  0.0000000000000000
    Total Energy =                        -39.3558603389197330

  UHF NO Occupations:
  HONO-2 :    3 A1 1.9917811
  HONO-1 :    4 A1 1.0000000
  HONO-0 :    1 B1 1.0000000
  LUNO+0 :    5 A1 0.0082189
  LUNO+1 :    2 B2 0.0004961
  LUNO+2 :    6 A1 0.0000001
  LUNO+3 :    7 A1 0.0000001

Computation Completed

Properties will be evaluated at   0.000000,   0.000000,   0.000000 [a0]

Properties computed using the SCF density matrix

 Multipole Moments:

 ------------------------------------------------------------------------------------
     Multipole            Electronic (a.u.)      Nuclear  (a.u.)        Total (a.u.)
 ------------------------------------------------------------------------------------

 L = 1.  Multiply by 2.5417464519 to convert [e a0] to [Debye]
 Dipole X            :          0.0000000            0.0000000            0.0000000
 Dipole Y            :          0.0000000            0.0000000            0.0000000
 Dipole Z            :          0.1618466           -0.1635005           -0.0016539
 Magnitude           :                                                    0.0016539

 ------------------------------------------------------------------------------------

*** tstop() called on Joses-MacBook-Pro-2.local at Thu Jul 17 09:39:25 2025
Module time:
	user time   =       3.51 seconds =       0.06 minutes
	system time =       3.29 seconds =       0.05 minutes
	total time  =          0 seconds =       0.00 minutes
Total time:
	user time   =      45.15 seconds =       0.75 minutes
	system time =      44.65 seconds =       0.74 minutes
	total time  =          8 seconds =       0.13 minutes

*** tstart() called on Joses-MacBook-Pro-2.local
*** at Thu Jul 17 09:39:25 2025

         ------------------------------------------------------------
                                   SCF GRAD
                          Rob Parrish, Justin Turney,
                       Andy Simmonett, and Alex Sokolov
         ------------------------------------------------------------

  ==> Geometry <==

    Molecular point group: c2v
    Full point group: C_inf_v

    Geometry (in Angstrom), charge = -1, multiplicity = 3:

       Center              X                  Y                   Z               Mass
    ------------   -----------------  -----------------  -----------------  -----------------
         BE           0.000000000000     0.000000000000     0.930486217055     9.012183065000
         B            0.000000000000     0.000000000000    -0.761693118080    11.009305360000

  Nuclear repulsion =    6.254386868846106

  ==> Basis Set <==

  Basis Set: CC-PVDZ
    Blend: CC-PVDZ
    Number of shells: 12
    Number of basis functions: 28
    Number of Cartesian functions: 30
    Spherical Harmonics?: true
    Max angular momentum: 2

  ==> DFJKGrad: Density-Fitted SCF Gradients <==

    Gradient:                    1
    J tasked:                  Yes
    K tasked:                  Yes
    wK tasked:                  No
    OpenMP threads:              1
    Integrals threads:           1
    Memory [MiB]:              375
    Schwarz Cutoff:          1E-12
    Fitting Condition:       1E-10

   => Auxiliary Basis Set <=

  Basis Set: (CC-PVDZ AUX)
    Blend: CC-PVDZ-JKFIT + DEF2-UNIVERSAL-JKFIT
    Number of shells: 41
    Number of basis functions: 121
    Number of Cartesian functions: 141
    Spherical Harmonics?: true
    Max angular momentum: 3

  ==> DFT Potential <==

   => LibXC <=

    Version 6.2.2
    S. Lehtola, C. Steigemann, M. J.T. Oliveira, and M. A.L. Marques.,  SoftwareX 7, 1â€“5 (2018) (10.1016/j.softx.2017.11.002)

   => Composite Functional: B3LYP <=

    B3LYP Hyb-GGA Exchange-Correlation Functional

    P. J. Stephens, F. J. Devlin, C. F. Chabalowski, and M. J. Frisch.,  J. Phys. Chem. 98, 11623 (1994) (10.1021/j100096a001)

    Deriv               =              1
    GGA                 =           TRUE
    Meta                =          FALSE

    Exchange Hybrid     =           TRUE
    MP2 Hybrid          =          FALSE

   => Exchange Functionals <=

    0.0800   Slater exchange
    0.7200         Becke 88

   => Exact (HF) Exchange <=

    0.2000               HF

   => Correlation Functionals <=

    0.1900   Vosko, Wilk & Nusair (VWN5_RPA)
    0.8100   Lee, Yang & Parr

   => LibXC Density Thresholds  <==

    XC_HYB_GGA_XC_B3LYP:  1.00E-15

   => Molecular Quadrature <=

    Radial Scheme          =       TREUTLER
    Pruning Scheme         =           NONE
    Nuclear Scheme         =       TREUTLER

    Blocking Scheme        =         OCTREE
    BS radius alpha        =              1
    Pruning alpha          =              1
    Radial Points          =             75
    Spherical Points       =            302
    Total Points           =          43069
    Total Blocks           =            400
    Max Points             =            256
    Max Functions          =             28
    Weights Tolerance      =       1.00E-15

  -Total Gradient:
     Atom            X                  Y                   Z
    ------   -----------------  -----------------  -----------------
       1        0.000000000000     0.000000000000    -0.000078600626
       2        0.000000000000     0.000000000000     0.000084963090

*** tstop() called on Joses-MacBook-Pro-2.local at Thu Jul 17 09:39:25 2025
Module time:
	user time   =       0.43 seconds =       0.01 minutes
	system time =       1.37 seconds =       0.02 minutes
	total time  =          0 seconds =       0.00 minutes
Total time:
	user time   =      45.58 seconds =       0.76 minutes
	system time =      46.02 seconds =       0.77 minutes
	total time  =          8 seconds =       0.13 minutes

    			-----------------------------------------

    			 OPTKING 3.0: for geometry optimizations

    			     By R.A. King, Bethel University

    			        with contributions from

    			    A.V. Copan, J. Cayton, A. Heide

    			-----------------------------------------

	                            ===> Fragment 1 <==

	 Z (Atomic Numbers)          Masses                          Geom
	       4.000000             9.012183          0.00000000  0.00000000  1.75836411
	       5.000000            11.009305          0.00000000  0.00000000 -1.43939138

	 - Coordinate -           - BOHR/RAD -       - ANG/DEG -
	 R(1,2)           =         3.197755           1.692179

	        --- Internal Coordinate Step in ANG or DEG, aJ/ANG or AJ/DEG ---
	-------------------------------------------------------------------------------
	           Coordinate      Previous         Force          Change          New
	           ----------      --------        ------          ------        ------
	               R(1,2)       1.69218        0.00067        0.00024       1.69242
	-------------------------------------------------------------------------------

	                                 ==> Convergence Check <==

	Measures of convergence in internal coordinates in au.

	Criteria marked as inactive (o), active & met (*), and active & unmet ( ).

	----------------------------------------------------------------------------------------------
	   Step    Total Energy     Delta E     Max Force     RMS Force      Max Disp      RMS Disp
	----------------------------------------------------------------------------------------------
	  Convergence Criteria     1.00e-06 *    3.00e-04 *             o    1.20e-03 *             o
	----------------------------------------------------------------------------------------------
	     9     -39.35586034   -7.87e-07 *    8.18e-05 *    8.18e-05 o    4.47e-04 *    4.47e-04 o  ~
	----------------------------------------------------------------------------------------------

Next Geometry in Ang
	Fragment 1 (Ang)

	   Be   0.0000000000   0.0000000000   0.9306043737
	    B   0.0000000000   0.0000000000  -0.7618112747

    Final optimized geometry and variables:
    Molecular point group: c2v
    Full point group: C_inf_v

    Geometry (in Angstrom), charge = -1, multiplicity = 3:

    BE           0.000000000000     0.000000000000     0.930486217055
    B            0.000000000000     0.000000000000    -0.761693118080

    Psi4 stopped on: Thursday, 17 July 2025 09:39AM
    Psi4 wall time for execution: 0:00:09.22

*** Psi4 exiting successfully. Buy a developer a beer!
