                               Psi4 1.9.1 release

  ==> Input File <==

--------------------------------------------------------------------------
molecule {
-1 3
N   0.00000        0.60000        0.00000
Si   0.00000       -0.60000        0.00000
}

set {
basis              cc-pvdz
reference          uks
maxiter            500
geom_maxiter       500
DAMPING_PERCENTAGE 1
guess              SAP
}

optimize('b3lyp')
--------------------------------------------------------------------------

    Molecular point group: c2v
  Charge       = -1
  Multiplicity = 3
  Basis Set: CC-PVDZ
    Blend: CC-PVDZ
  Basis Set: (CC-PVDZ AUX)
    Blend: CC-PVDZ-JKFIT
  @DF-UKS Final Energy:  -343.79333634141398
    Total Energy =                       -343.7933363414139762
 Dipole X            :          0.0000000            0.0000000            0.0000000
 Dipole Y            :          0.0000000            0.0000000            0.0000000
 Dipole Z            :          0.2042728           -0.0110494            0.1932234
 Magnitude           :                                                    0.1932234
    Molecular point group: c2v
  Basis Set: CC-PVDZ
    Blend: CC-PVDZ
  Basis Set: (CC-PVDZ AUX)
    Blend: CC-PVDZ-JKFIT
  Basis Set: CC-PVDZ
    Blend: CC-PVDZ
  Basis Set: (CC-PVDZ AUX)
    Blend: CC-PVDZ-JKFIT
  @DF-UKS Final Energy:  -343.98187772645110
    Total Energy =                       -343.9818777264511027
  Basis Set: CC-PVDZ
    Blend: CC-PVDZ
  Basis Set: (CC-PVDZ AUX)
    Blend: CC-PVDZ-JKFIT
  Basis Set: CC-PVDZ
    Blend: CC-PVDZ
  @DF-UKS Final Energy:  -344.06496221409810
    Total Energy =                       -344.0649622140981023
  @DF-UKS Final Energy:  -344.09064688732030
    Total Energy =                       -344.0906468873203039
  @DF-UKS Final Energy:  -344.10319437625901
    Total Energy =                       -344.1031943762589549
  @DF-UKS Final Energy:  -344.10672713119374
    Total Energy =                       -344.1067271311937361
  @DF-UKS Final Energy:  -344.10815020780132
    Total Energy =                       -344.1081502078012591
  @DF-UKS Final Energy:  -344.10842509486423
    Total Energy =                       -344.1084250948642307
  @DF-UKS Final Energy:  -344.10848958420360
    Total Energy =                       -344.1084895842035962
  Basis Set: (CC-PVDZ AUX)
    Blend: CC-PVDZ-JKFIT
  Basis Set: CC-PVDZ
    Blend: CC-PVDZ
  Basis Set: (CC-PVDZ AUX)
    Blend: CC-PVDZ-JKFIT
  @DF-UKS Final Energy:  -344.10849801413161
    Total Energy =                       -344.1084980141316123
  Basis Set: CC-PVDZ
    Blend: CC-PVDZ
  Basis Set: (CC-PVDZ AUX)
    Blend: CC-PVDZ-JKFIT
  Charge       = -1
  Multiplicity = 3
  Basis Set: CC-PVDZ
    Blend: CC-PVDZ
  Basis Set: (CC-PVDZ AUX)
    Blend: CC-PVDZ-JKFIT

    Orbital Energies [Eh]
    ---------------------

    Alpha Occupied:

       1A1   -65.891616     2A1   -14.084361     3A1    -5.034383
       4A1    -3.395512     1B2    -3.393081     1B1    -3.390559
       5A1    -0.517719     6A1    -0.180535     7A1    -0.057441
       2B1    -0.039355     2B2    -0.027349     3B1     0.116576

    Alpha Virtual:

       3B2     0.174913     8A1     0.280971     9A1     0.474520
       4B1     0.537209     4B2     0.539763    10A1     0.591686
       1A2     0.614832    11A1     0.617185     5B1     0.686029
       5B2     0.689004    12A1     0.830007     6B1     1.033850
       6B2     1.037380    13A1     1.114794    14A1     1.478109
       2A2     2.044170    15A1     2.044742     7B2     2.164402
       7B1     2.165247    16A1     2.557533

    Beta Occupied:

       1A1   -65.889284     2A1   -14.060896     3A1    -5.031883
       1B2    -3.392804     4A1    -3.389659     1B1    -3.385053
       5A1    -0.450878     6A1    -0.111436     2B2    -0.001635
       2B1     0.018408

    Beta Virtual:

       7A1     0.086148     3B2     0.195626     3B1     0.219475
       8A1     0.300779     9A1     0.493585     4B2     0.540095
       4B1     0.559719    10A1     0.621923     1A2     0.635525
      11A1     0.639019     5B2     0.706746     5B1     0.728988
      12A1     0.864462     6B2     1.061931     6B1     1.076371
      13A1     1.176765    14A1     1.519135    15A1     2.086205
       2A2     2.086222     7B2     2.223010     7B1     2.239148
      16A1     2.623275

    Final Occupation by Irrep:
             A1    A2    B1    B2
    DOCC [     6,    0,    2,    2 ]
    SOCC [     1,    0,    1,    0 ]
    NA   [     7,    0,    3,    2 ]
    NB   [     6,    0,    2,    2 ]

  @DF-UKS Final Energy:  -344.10849843652295

   => Energetics <=

    Nuclear Repulsion Energy =             30.9686390691997957
    One-Electron Energy =                -542.4700575957921274
    Two-Electron Energy =                 189.9230647179495293
    DFT Exchange-Correlation Energy =     -22.5301446278801443
    Empirical Dispersion Energy =           0.0000000000000000
    VV10 Nonlocal Energy =                  0.0000000000000000
    Total Energy =                       -344.1084984365228934

  UHF NO Occupations:
  HONO-2 :    2 B2 1.9920369
  HONO-1 :    3 B1 1.0000000
  HONO-0 :    7 A1 1.0000000
  LUNO+0 :    3 B2 0.0079631
  LUNO+1 :    8 A1 0.0022932
  LUNO+2 :    4 B1 0.0016108
  LUNO+3 :    9 A1 0.0004247

Computation Completed

Properties will be evaluated at   0.000000,   0.000000,   0.000000 [a0]

Properties computed using the SCF density matrix

 Multipole Moments:

 ------------------------------------------------------------------------------------
     Multipole            Electronic (a.u.)      Nuclear  (a.u.)        Total (a.u.)
 ------------------------------------------------------------------------------------

 L = 1.  Multiply by 2.5417464519 to convert [e a0] to [Debye]
 Dipole X            :          0.0000000            0.0000000            0.0000000
 Dipole Y            :          0.0000000            0.0000000            0.0000000
 Dipole Z            :         -0.2375210           -0.0154192           -0.2529402
 Magnitude           :                                                    0.2529402

 ------------------------------------------------------------------------------------

*** tstop() called on Joses-MacBook-Pro-2.local at Thu Jul 17 10:31:22 2025
Module time:
	user time   =       4.33 seconds =       0.07 minutes
	system time =       3.51 seconds =       0.06 minutes
	total time  =          1 seconds =       0.02 minutes
Total time:
	user time   =      68.33 seconds =       1.14 minutes
	system time =      63.06 seconds =       1.05 minutes
	total time  =         13 seconds =       0.22 minutes

*** tstart() called on Joses-MacBook-Pro-2.local
*** at Thu Jul 17 10:31:22 2025

         ------------------------------------------------------------
                                   SCF GRAD
                          Rob Parrish, Justin Turney,
                       Andy Simmonett, and Alex Sokolov
         ------------------------------------------------------------

  ==> Geometry <==

    Molecular point group: c2v
    Full point group: C_inf_v

    Geometry (in Angstrom), charge = -1, multiplicity = 3:

       Center              X                  Y                   Z               Mass
    ------------   -----------------  -----------------  -----------------  -----------------
         N            0.000000000000     0.000000000000     1.115996032286    14.003074004430
         SI           0.000000000000     0.000000000000    -0.558580836583    27.976926534650

  Nuclear repulsion =   30.968639069199796

  ==> Basis Set <==

  Basis Set: CC-PVDZ
    Blend: CC-PVDZ
    Number of shells: 14
    Number of basis functions: 32
    Number of Cartesian functions: 34
    Spherical Harmonics?: true
    Max angular momentum: 2

  ==> DFJKGrad: Density-Fitted SCF Gradients <==

    Gradient:                    1
    J tasked:                  Yes
    K tasked:                  Yes
    wK tasked:                  No
    OpenMP threads:              1
    Integrals threads:           1
    Memory [MiB]:              375
    Schwarz Cutoff:          1E-12
    Fitting Condition:       1E-10

   => Auxiliary Basis Set <=

  Basis Set: (CC-PVDZ AUX)
    Blend: CC-PVDZ-JKFIT
    Number of shells: 60
    Number of basis functions: 182
    Number of Cartesian functions: 211
    Spherical Harmonics?: true
    Max angular momentum: 3

  ==> DFT Potential <==

   => LibXC <=

    Version 6.2.2
    S. Lehtola, C. Steigemann, M. J.T. Oliveira, and M. A.L. Marques.,  SoftwareX 7, 1â€“5 (2018) (10.1016/j.softx.2017.11.002)

   => Composite Functional: B3LYP <=

    B3LYP Hyb-GGA Exchange-Correlation Functional

    P. J. Stephens, F. J. Devlin, C. F. Chabalowski, and M. J. Frisch.,  J. Phys. Chem. 98, 11623 (1994) (10.1021/j100096a001)

    Deriv               =              1
    GGA                 =           TRUE
    Meta                =          FALSE

    Exchange Hybrid     =           TRUE
    MP2 Hybrid          =          FALSE

   => Exchange Functionals <=

    0.0800   Slater exchange
    0.7200         Becke 88

   => Exact (HF) Exchange <=

    0.2000               HF

   => Correlation Functionals <=

    0.1900   Vosko, Wilk & Nusair (VWN5_RPA)
    0.8100   Lee, Yang & Parr

   => LibXC Density Thresholds  <==

    XC_HYB_GGA_XC_B3LYP:  1.00E-15

   => Molecular Quadrature <=

    Radial Scheme          =       TREUTLER
    Pruning Scheme         =           NONE
    Nuclear Scheme         =       TREUTLER

    Blocking Scheme        =         OCTREE
    BS radius alpha        =              1
    Pruning alpha          =              1
    Radial Points          =             75
    Spherical Points       =            302
    Total Points           =          42649
    Total Blocks           =            393
    Max Points             =            255
    Max Functions          =             32
    Weights Tolerance      =       1.00E-15

  -Total Gradient:
     Atom            X                  Y                   Z
    ------   -----------------  -----------------  -----------------
       1       -0.000000000000     0.000000000000    -0.000078994691
       2       -0.000000000000    -0.000000000000     0.000063032547

*** tstop() called on Joses-MacBook-Pro-2.local at Thu Jul 17 10:31:22 2025
Module time:
	user time   =       0.66 seconds =       0.01 minutes
	system time =       2.02 seconds =       0.03 minutes
	total time  =          0 seconds =       0.00 minutes
Total time:
	user time   =      68.99 seconds =       1.15 minutes
	system time =      65.08 seconds =       1.08 minutes
	total time  =         13 seconds =       0.22 minutes

    			-----------------------------------------

    			 OPTKING 3.0: for geometry optimizations

    			     By R.A. King, Bethel University

    			        with contributions from

    			    A.V. Copan, J. Cayton, A. Heide

    			-----------------------------------------

	                            ===> Fragment 1 <==

	 Z (Atomic Numbers)          Masses                          Geom
	       7.000000            14.003074          0.00000000  0.00000000  2.10892686
	      14.000000            27.976927          0.00000000  0.00000000 -1.05556480

	 - Coordinate -           - BOHR/RAD -       - ANG/DEG -
	 R(1,2)           =         3.164492           1.674577

	        --- Internal Coordinate Step in ANG or DEG, aJ/ANG or AJ/DEG ---
	-------------------------------------------------------------------------------
	           Coordinate      Previous         Force          Change          New
	           ----------      --------        ------          ------        ------
	               R(1,2)       1.67458        0.00059        0.00012       1.67469
	-------------------------------------------------------------------------------

	                                 ==> Convergence Check <==

	Measures of convergence in internal coordinates in au.

	Criteria marked as inactive (o), active & met (*), and active & unmet ( ).

	----------------------------------------------------------------------------------------------
	   Step    Total Energy     Delta E     Max Force     RMS Force      Max Disp      RMS Disp
	----------------------------------------------------------------------------------------------
	  Convergence Criteria     1.00e-06 *    3.00e-04 *             o    1.20e-03 *             o
	----------------------------------------------------------------------------------------------
	    11    -344.10849844   -4.22e-07 *    7.10e-05 *    7.10e-05 o    2.20e-04 *    2.20e-04 o  ~
	----------------------------------------------------------------------------------------------

Next Geometry in Ang
	Fragment 1 (Ang)

	    N   0.0000000000   0.0000000000   1.1160543051
	   Si   0.0000000000   0.0000000000  -0.5586391094

    Final optimized geometry and variables:
    Molecular point group: c2v
    Full point group: C_inf_v

    Geometry (in Angstrom), charge = -1, multiplicity = 3:

    N            0.000000000000     0.000000000000     1.115996032286
    SI           0.000000000000     0.000000000000    -0.558580836583

    Psi4 stopped on: Thursday, 17 July 2025 10:31AM
    Psi4 wall time for execution: 0:00:13.60

*** Psi4 exiting successfully. Buy a developer a beer!
