                               Psi4 1.9.1 release

  ==> Input File <==

--------------------------------------------------------------------------
molecule {
-1 3
Be   0.00000        0.60000        0.00000
Cl   0.00000       -0.60000        0.00000
}

set {
basis              cc-pvdz
reference          uks
maxiter            500
geom_maxiter       500
DAMPING_PERCENTAGE 1
guess              SAP
}

optimize('b3lyp')
--------------------------------------------------------------------------

    Molecular point group: c2v
  Charge       = -1
  Multiplicity = 3
  Basis Set: CC-PVDZ
    Blend: CC-PVDZ
  Basis Set: (CC-PVDZ AUX)
    Blend: CC-PVDZ-JKFIT + DEF2-UNIVERSAL-JKFIT
  @DF-UKS Final Energy:  -474.50157987745433
    Total Energy =                       -474.5015798774543327
 Dipole X            :          0.0000000            0.0000000            0.0000000
 Dipole Y            :          0.0000000            0.0000000            0.0000000
 Dipole Z            :         -1.8970781           -0.6873853           -2.5844634
 Magnitude           :                                                    2.5844634
    Molecular point group: c2v
  Basis Set: CC-PVDZ
    Blend: CC-PVDZ
  Basis Set: (CC-PVDZ AUX)
    Blend: CC-PVDZ-JKFIT + DEF2-UNIVERSAL-JKFIT
  Basis Set: CC-PVDZ
    Blend: CC-PVDZ
  Basis Set: (CC-PVDZ AUX)
    Blend: CC-PVDZ-JKFIT + DEF2-UNIVERSAL-JKFIT
  @DF-UKS Final Energy:  -474.71957871647021
    Total Energy =                       -474.7195787164702097
  Basis Set: CC-PVDZ
    Blend: CC-PVDZ
  Basis Set: (CC-PVDZ AUX)
    Blend: CC-PVDZ-JKFIT + DEF2-UNIVERSAL-JKFIT
  Basis Set: CC-PVDZ
    Blend: CC-PVDZ
  @DF-UKS Final Energy:  -474.84772916232947
    Total Energy =                       -474.8477291623294150
  @DF-UKS Final Energy:  -474.90837469577707
    Total Energy =                       -474.9083746957770131
  @DF-UKS Final Energy:  -474.93468726998037
    Total Energy =                       -474.9346872699804294
  @DF-UKS Final Energy:  -474.94446882574795
    Total Energy =                       -474.9444688257479470
  @DF-UKS Final Energy:  -474.94673816937490
    Total Energy =                       -474.9467381693748393
  @DF-UKS Final Energy:  -474.94749440765190
    Total Energy =                       -474.9474944076517886
  @DF-UKS Final Energy:  -474.94761291151747
    Total Energy =                       -474.9476129115174672
  @DF-UKS Final Energy:  -474.94763312190423
    Total Energy =                       -474.9476331219042322
  Basis Set: (CC-PVDZ AUX)
    Blend: CC-PVDZ-JKFIT + DEF2-UNIVERSAL-JKFIT
  Basis Set: CC-PVDZ
    Blend: CC-PVDZ
  Basis Set: (CC-PVDZ AUX)
    Blend: CC-PVDZ-JKFIT + DEF2-UNIVERSAL-JKFIT
  @DF-UKS Final Energy:  -474.94763718634243
    Total Energy =                       -474.9476371863424902
  Basis Set: CC-PVDZ
    Blend: CC-PVDZ
  Basis Set: (CC-PVDZ AUX)
    Blend: CC-PVDZ-JKFIT + DEF2-UNIVERSAL-JKFIT
  Charge       = -1
  Multiplicity = 3
  Basis Set: CC-PVDZ
    Blend: CC-PVDZ
  Basis Set: (CC-PVDZ AUX)
    Blend: CC-PVDZ-JKFIT + DEF2-UNIVERSAL-JKFIT

    Orbital Energies [Eh]
    ---------------------

    Alpha Occupied:

       1A1  -101.301631     2A1    -9.219266     3A1    -6.977914
       1B1    -6.974961     1B2    -6.974083     4A1    -3.848543
       5A1    -0.577199     6A1    -0.165743     2B1    -0.108181
       2B2    -0.107851     7A1    -0.004109     3B2     0.105086

    Alpha Virtual:

       3B1     0.161594     8A1     0.237801     4B2     0.367125
       9A1     0.367915     4B1     0.383985    10A1     0.429962
      11A1     0.630090     5B2     0.654219     5B1     0.657638
       1A2     0.663903    12A1     0.670537     6B1     0.793795
       6B2     0.797465    13A1     0.966595     2A2     0.978770
      14A1     0.979336    15A1     1.046142     7B2     1.147851
       7B1     1.148704    16A1     1.442694

    Beta Occupied:

       1A1  -101.300755     2A1    -9.218372     3A1    -6.976499
       1B1    -6.974508     1B2    -6.972264     4A1    -3.836877
       5A1    -0.572080     6A1    -0.156066     2B1    -0.106840
       2B2    -0.098764

    Beta Virtual:

       7A1     0.128598     3B1     0.193198     3B2     0.214786
       8A1     0.258110     4B1     0.400352     4B2     0.420348
       9A1     0.420717    10A1     0.454230    11A1     0.657235
       5B1     0.695873     5B2     0.715208     1A2     0.724474
      12A1     0.725444     6B1     0.795048     6B2     0.802004
      13A1     0.986521     2A2     0.986603    14A1     0.988041
      15A1     1.067830     7B1     1.162600     7B2     1.174458
      16A1     1.450656

    Final Occupation by Irrep:
             A1    A2    B1    B2
    DOCC [     6,    0,    2,    2 ]
    SOCC [     1,    0,    0,    1 ]
    NA   [     7,    0,    2,    3 ]
    NB   [     6,    0,    2,    2 ]

  @DF-UKS Final Energy:  -474.94763744912609

   => Energetics <=

    Nuclear Repulsion Energy =             18.2202974902460362
    One-Electron Energy =                -696.0180029586524597
    Two-Electron Energy =                 228.0739785147672478
    DFT Exchange-Correlation Energy =     -25.2239104954868800
    Empirical Dispersion Energy =           0.0000000000000000
    VV10 Nonlocal Energy =                  0.0000000000000000
    Total Energy =                       -474.9476374491260913

  UHF NO Occupations:
  HONO-2 :    2 B1 1.9998363
  HONO-1 :    3 B2 1.0000000
  HONO-0 :    7 A1 1.0000000
  LUNO+0 :    3 B1 0.0001637
  LUNO+1 :    8 A1 0.0001308
  LUNO+2 :    4 B2 0.0001265
  LUNO+3 :    9 A1 0.0000045

Computation Completed

Properties will be evaluated at   0.000000,   0.000000,   0.000000 [a0]

Properties computed using the SCF density matrix

 Multipole Moments:

 ------------------------------------------------------------------------------------
     Multipole            Electronic (a.u.)      Nuclear  (a.u.)        Total (a.u.)
 ------------------------------------------------------------------------------------

 L = 1.  Multiply by 2.5417464519 to convert [e a0] to [Debye]
 Dipole X            :          0.0000000            0.0000000            0.0000000
 Dipole Y            :          0.0000000            0.0000000            0.0000000
 Dipole Z            :         -0.8747423           -1.1312890           -2.0060313
 Magnitude           :                                                    2.0060313

 ------------------------------------------------------------------------------------

*** tstop() called on Joses-MacBook-Pro-2.local at Thu Jul 17 09:47:24 2025
Module time:
	user time   =       3.47 seconds =       0.06 minutes
	system time =       3.12 seconds =       0.05 minutes
	total time  =          1 seconds =       0.02 minutes
Total time:
	user time   =      52.97 seconds =       0.88 minutes
	system time =      70.34 seconds =       1.17 minutes
	total time  =         12 seconds =       0.20 minutes

*** tstart() called on Joses-MacBook-Pro-2.local
*** at Thu Jul 17 09:47:24 2025

         ------------------------------------------------------------
                                   SCF GRAD
                          Rob Parrish, Justin Turney,
                       Andy Simmonett, and Alex Sokolov
         ------------------------------------------------------------

  ==> Geometry <==

    Molecular point group: c2v
    Full point group: C_inf_v

    Geometry (in Angstrom), charge = -1, multiplicity = 3:

       Center              X                  Y                   Z               Mass
    ------------   -----------------  -----------------  -----------------  -----------------
         BE           0.000000000000     0.000000000000     1.570256184734     9.012183065000
         CL           0.000000000000     0.000000000000    -0.404686888771    34.968852682000

  Nuclear repulsion =   18.220297490246036

  ==> Basis Set <==

  Basis Set: CC-PVDZ
    Blend: CC-PVDZ
    Number of shells: 14
    Number of basis functions: 32
    Number of Cartesian functions: 34
    Spherical Harmonics?: true
    Max angular momentum: 2

  ==> DFJKGrad: Density-Fitted SCF Gradients <==

    Gradient:                    1
    J tasked:                  Yes
    K tasked:                  Yes
    wK tasked:                  No
    OpenMP threads:              1
    Integrals threads:           1
    Memory [MiB]:              375
    Schwarz Cutoff:          1E-12
    Fitting Condition:       1E-10

   => Auxiliary Basis Set <=

  Basis Set: (CC-PVDZ AUX)
    Blend: CC-PVDZ-JKFIT + DEF2-UNIVERSAL-JKFIT
    Number of shells: 53
    Number of basis functions: 163
    Number of Cartesian functions: 190
    Spherical Harmonics?: true
    Max angular momentum: 3

  ==> DFT Potential <==

   => LibXC <=

    Version 6.2.2
    S. Lehtola, C. Steigemann, M. J.T. Oliveira, and M. A.L. Marques.,  SoftwareX 7, 1â€“5 (2018) (10.1016/j.softx.2017.11.002)

   => Composite Functional: B3LYP <=

    B3LYP Hyb-GGA Exchange-Correlation Functional

    P. J. Stephens, F. J. Devlin, C. F. Chabalowski, and M. J. Frisch.,  J. Phys. Chem. 98, 11623 (1994) (10.1021/j100096a001)

    Deriv               =              1
    GGA                 =           TRUE
    Meta                =          FALSE

    Exchange Hybrid     =           TRUE
    MP2 Hybrid          =          FALSE

   => Exchange Functionals <=

    0.0800   Slater exchange
    0.7200         Becke 88

   => Exact (HF) Exchange <=

    0.2000               HF

   => Correlation Functionals <=

    0.1900   Vosko, Wilk & Nusair (VWN5_RPA)
    0.8100   Lee, Yang & Parr

   => LibXC Density Thresholds  <==

    XC_HYB_GGA_XC_B3LYP:  1.00E-15

   => Molecular Quadrature <=

    Radial Scheme          =       TREUTLER
    Pruning Scheme         =           NONE
    Nuclear Scheme         =       TREUTLER

    Blocking Scheme        =         OCTREE
    BS radius alpha        =              1
    Pruning alpha          =              1
    Radial Points          =             75
    Spherical Points       =            302
    Total Points           =          42759
    Total Blocks           =            399
    Max Points             =            255
    Max Functions          =             32
    Weights Tolerance      =       1.00E-15

  -Total Gradient:
     Atom            X                  Y                   Z
    ------   -----------------  -----------------  -----------------
       1       -0.000000000000    -0.000000000000    -0.000027011744
       2       -0.000000000000     0.000000000000     0.000043979572

*** tstop() called on Joses-MacBook-Pro-2.local at Thu Jul 17 09:47:24 2025
Module time:
	user time   =       0.54 seconds =       0.01 minutes
	system time =       1.86 seconds =       0.03 minutes
	total time  =          0 seconds =       0.00 minutes
Total time:
	user time   =      53.51 seconds =       0.89 minutes
	system time =      72.20 seconds =       1.20 minutes
	total time  =         12 seconds =       0.20 minutes

    			-----------------------------------------

    			 OPTKING 3.0: for geometry optimizations

    			     By R.A. King, Bethel University

    			        with contributions from

    			    A.V. Copan, J. Cayton, A. Heide

    			-----------------------------------------

	                            ===> Fragment 1 <==

	 Z (Atomic Numbers)          Masses                          Geom
	       4.000000             9.012183          0.00000000  0.00000000  2.96735414
	      17.000000            34.968853          0.00000000  0.00000000 -0.76474739

	 - Coordinate -           - BOHR/RAD -       - ANG/DEG -
	 R(1,2)           =         3.732102           1.974943

	        --- Internal Coordinate Step in ANG or DEG, aJ/ANG or AJ/DEG ---
	-------------------------------------------------------------------------------
	           Coordinate      Previous         Force          Change          New
	           ----------      --------        ------          ------        ------
	               R(1,2)       1.97494        0.00029        0.00018       1.97513
	-------------------------------------------------------------------------------

	                                 ==> Convergence Check <==

	Measures of convergence in internal coordinates in au.

	Criteria marked as inactive (o), active & met (*), and active & unmet ( ).

	----------------------------------------------------------------------------------------------
	   Step    Total Energy     Delta E     Max Force     RMS Force      Max Disp      RMS Disp
	----------------------------------------------------------------------------------------------
	  Convergence Criteria     1.00e-06 *    3.00e-04 *             o    1.20e-03 *             o
	----------------------------------------------------------------------------------------------
	    12    -474.94763745   -2.63e-07 *    3.55e-05 *    3.55e-05 o    3.45e-04 *    3.45e-04 o  ~
	----------------------------------------------------------------------------------------------

Next Geometry in Ang
	Fragment 1 (Ang)

	   Be   0.0000000000   0.0000000000   1.5703475845
	   Cl   0.0000000000   0.0000000000  -0.4047782885

    Final optimized geometry and variables:
    Molecular point group: c2v
    Full point group: C_inf_v

    Geometry (in Angstrom), charge = -1, multiplicity = 3:

    BE           0.000000000000     0.000000000000     1.570256184734
    CL           0.000000000000     0.000000000000    -0.404686888771

    Psi4 stopped on: Thursday, 17 July 2025 09:47AM
    Psi4 wall time for execution: 0:00:12.72

*** Psi4 exiting successfully. Buy a developer a beer!
