                               Psi4 1.9.1 release

  ==> Input File <==

--------------------------------------------------------------------------
molecule {
-1 3
He   0.00000        0.60000        0.00000
Na   0.00000       -0.60000        0.00000
}

set {
basis              cc-pvdz
reference          uks
maxiter            500
geom_maxiter       500
DAMPING_PERCENTAGE 1
guess              SAP
}

optimize('b3lyp')
--------------------------------------------------------------------------

    Molecular point group: c2v
  Charge       = -1
  Multiplicity = 3
  Basis Set: CC-PVDZ
    Blend: CC-PVDZ
  Basis Set: (CC-PVDZ AUX)
    Blend: DEF2-UNIVERSAL-JKFIT
  @DF-UKS Final Energy:  -165.02419845952352
    Total Energy =                       -165.0241984595235181
 Dipole X            :          0.0000000            0.0000000            0.0000000
 Dipole Y            :          0.0000000            0.0000000            0.0000000
 Dipole Z            :          1.0079599            0.1638984            1.1718583
 Magnitude           :                                                    1.1718583
    Molecular point group: c2v
  Basis Set: CC-PVDZ
    Blend: CC-PVDZ
  Basis Set: (CC-PVDZ AUX)
    Blend: DEF2-UNIVERSAL-JKFIT
  Basis Set: CC-PVDZ
    Blend: CC-PVDZ
  Basis Set: (CC-PVDZ AUX)
    Blend: DEF2-UNIVERSAL-JKFIT
  @DF-UKS Final Energy:  -165.13088075407953
    Total Energy =                       -165.1308807540795272
  Basis Set: CC-PVDZ
    Blend: CC-PVDZ
  Basis Set: (CC-PVDZ AUX)
    Blend: DEF2-UNIVERSAL-JKFIT
  Basis Set: CC-PVDZ
    Blend: CC-PVDZ
  @DF-UKS Final Energy:  -165.14855687701461
    Total Energy =                       -165.1485568770145846
  @DF-UKS Final Energy:  -165.16305062898849
    Total Energy =                       -165.1630506289884579
  @DF-UKS Final Energy:  -165.17007697628893
    Total Energy =                       -165.1700769762889252
  @DF-UKS Final Energy:  -165.17424336929966
    Total Energy =                       -165.1742433692996599
  @DF-UKS Final Energy:  -165.17678819694328
    Total Energy =                       -165.1767881969432779
  @DF-UKS Final Energy:  -165.17860898777548
    Total Energy =                       -165.1786089877754762
  @DF-UKS Final Energy:  -165.18011116914158
    Total Energy =                       -165.1801111691416111
  @DF-UKS Final Energy:  -165.18133623001813
    Total Energy =                       -165.1813362300181325
  @DF-UKS Final Energy:  -165.18135946845109
    Total Energy =                       -165.1813594684510633
  @DF-UKS Final Energy:  -165.18219616503623
    Total Energy =                       -165.1821961650362312
  @DF-UKS Final Energy:  -165.18220517846336
    Total Energy =                       -165.1822051784633629
  @DF-UKS Final Energy:  -165.18221405550764
    Total Energy =                       -165.1822140555076146
  @DF-UKS Final Energy:  -165.18263055779627
    Total Energy =                       -165.1826305577962728
  @DF-UKS Final Energy:  -165.18263333471782
    Total Energy =                       -165.1826333347178206
  @DF-UKS Final Energy:  -165.18263607909793
    Total Energy =                       -165.1826360790979322
  @DF-UKS Final Energy:  -165.18263879085521
    Total Energy =                       -165.1826387908552078
  Basis Set: (CC-PVDZ AUX)
    Blend: DEF2-UNIVERSAL-JKFIT
  Basis Set: CC-PVDZ
    Blend: CC-PVDZ
  Basis Set: (CC-PVDZ AUX)
    Blend: DEF2-UNIVERSAL-JKFIT
  @DF-UKS Final Energy:  -165.18283672377271
    Total Energy =                       -165.1828367237727093
  Basis Set: CC-PVDZ
    Blend: CC-PVDZ
  Basis Set: (CC-PVDZ AUX)
    Blend: DEF2-UNIVERSAL-JKFIT
  Charge       = -1
  Multiplicity = 3
  Basis Set: CC-PVDZ
    Blend: CC-PVDZ
  Basis Set: (CC-PVDZ AUX)
    Blend: DEF2-UNIVERSAL-JKFIT

    Orbital Energies [Eh]
    ---------------------

    Alpha Occupied:

       1A1   -38.340923     2A1    -2.085808     3A1    -1.017162
       1B1    -1.017120     1B2    -1.015969     4A1    -0.551355
       5A1     0.000148     2B2     0.053861

    Alpha Virtual:

       2B1     0.088369     6A1     0.093599     7A1     0.159693
       3B2     0.185473     8A1     0.192176     3B1     0.192844
       1A2     0.288247     4B2     0.288464     9A1     0.290231
       4B1     0.293009    10A1     0.294600    11A1     1.271983
       5B1     2.288187     5B2     2.288578    12A1     2.292401

    Beta Occupied:

       1A1   -38.339531     2A1    -2.083105     3A1    -1.015507
       1B1    -1.015462     1B2    -1.013673     4A1    -0.550958

    Beta Virtual:

       5A1     0.067258     2B1     0.113051     6A1     0.113546
       2B2     0.116639     7A1     0.181041     8A1     0.210457
       3B1     0.212631     3B2     0.220803     9A1     0.317474
       4B1     0.317936     1A2     0.326776     4B2     0.326893
      10A1     0.330395    11A1     1.273077     5B1     2.288410
       5B2     2.288846    12A1     2.292705

    Final Occupation by Irrep:
             A1    A2    B1    B2
    DOCC [     4,    0,    1,    1 ]
    SOCC [     1,    0,    0,    1 ]
    NA   [     5,    0,    1,    2 ]
    NB   [     4,    0,    1,    1 ]

  @DF-UKS Final Energy:  -165.18283743322857

   => Energetics <=

    Nuclear Repulsion Energy =              2.8740183124500867
    One-Electron Energy =                -239.1200423980622531
    Two-Electron Energy =                  83.6435118158037199
    DFT Exchange-Correlation Energy =     -12.5803251634201203
    Empirical Dispersion Energy =           0.0000000000000000
    VV10 Nonlocal Energy =                  0.0000000000000000
    Total Energy =                       -165.1828374332285705

  UHF NO Occupations:
  HONO-2 :    4 A1 1.9999995
  HONO-1 :    2 B2 1.0000000
  HONO-0 :    5 A1 1.0000000
  LUNO+0 :    6 A1 0.0000005
  LUNO+1 :    2 B1 0.0000005
  LUNO+2 :    3 B2 0.0000003
  LUNO+3 :    7 A1 0.0000003

Computation Completed

Properties will be evaluated at   0.000000,   0.000000,   0.000000 [a0]

Properties computed using the SCF density matrix

 Multipole Moments:

 ------------------------------------------------------------------------------------
     Multipole            Electronic (a.u.)      Nuclear  (a.u.)        Total (a.u.)
 ------------------------------------------------------------------------------------

 L = 1.  Multiply by 2.5417464519 to convert [e a0] to [Debye]
 Dipole X            :          0.0000000            0.0000000            0.0000000
 Dipole Y            :          0.0000000            0.0000000            0.0000000
 Dipole Z            :          0.7306298            0.5532580            1.2838878
 Magnitude           :                                                    1.2838878

 ------------------------------------------------------------------------------------

*** tstop() called on Joses-MacBook-Pro-2.local at Thu Jul 17 09:21:25 2025
Module time:
	user time   =       0.95 seconds =       0.02 minutes
	system time =       2.31 seconds =       0.04 minutes
	total time  =          0 seconds =       0.00 minutes
Total time:
	user time   =      61.48 seconds =       1.02 minutes
	system time =      93.65 seconds =       1.56 minutes
	total time  =         16 seconds =       0.27 minutes

*** tstart() called on Joses-MacBook-Pro-2.local
*** at Thu Jul 17 09:21:25 2025

         ------------------------------------------------------------
                                   SCF GRAD
                          Rob Parrish, Justin Turney,
                       Andy Simmonett, and Alex Sokolov
         ------------------------------------------------------------

  ==> Geometry <==

    Molecular point group: c2v
    Full point group: C_inf_v

    Geometry (in Angstrom), charge = -1, multiplicity = 3:

       Center              X                  Y                   Z               Mass
    ------------   -----------------  -----------------  -----------------  -----------------
         HE           0.000000000000     0.000000000000     3.450069439607     4.002603254130
         NA           0.000000000000     0.000000000000    -0.600669758646    22.989769282000

  Nuclear repulsion =    2.874018312450087

  ==> Basis Set <==

  Basis Set: CC-PVDZ
    Blend: CC-PVDZ
    Number of shells: 11
    Number of basis functions: 23
    Number of Cartesian functions: 24
    Spherical Harmonics?: true
    Max angular momentum: 2

  ==> DFJKGrad: Density-Fitted SCF Gradients <==

    Gradient:                    1
    J tasked:                  Yes
    K tasked:                  Yes
    wK tasked:                  No
    OpenMP threads:              1
    Integrals threads:           1
    Memory [MiB]:              375
    Schwarz Cutoff:          1E-12
    Fitting Condition:       1E-10

   => Auxiliary Basis Set <=

  Basis Set: (CC-PVDZ AUX)
    Blend: DEF2-UNIVERSAL-JKFIT
    Number of shells: 43
    Number of basis functions: 135
    Number of Cartesian functions: 162
    Spherical Harmonics?: true
    Max angular momentum: 4

  ==> DFT Potential <==

   => LibXC <=

    Version 6.2.2
    S. Lehtola, C. Steigemann, M. J.T. Oliveira, and M. A.L. Marques.,  SoftwareX 7, 1â€“5 (2018) (10.1016/j.softx.2017.11.002)

   => Composite Functional: B3LYP <=

    B3LYP Hyb-GGA Exchange-Correlation Functional

    P. J. Stephens, F. J. Devlin, C. F. Chabalowski, and M. J. Frisch.,  J. Phys. Chem. 98, 11623 (1994) (10.1021/j100096a001)

    Deriv               =              1
    GGA                 =           TRUE
    Meta                =          FALSE

    Exchange Hybrid     =           TRUE
    MP2 Hybrid          =          FALSE

   => Exchange Functionals <=

    0.0800   Slater exchange
    0.7200         Becke 88

   => Exact (HF) Exchange <=

    0.2000               HF

   => Correlation Functionals <=

    0.1900   Vosko, Wilk & Nusair (VWN5_RPA)
    0.8100   Lee, Yang & Parr

   => LibXC Density Thresholds  <==

    XC_HYB_GGA_XC_B3LYP:  1.00E-15

   => Molecular Quadrature <=

    Radial Scheme          =       TREUTLER
    Pruning Scheme         =           NONE
    Nuclear Scheme         =       TREUTLER

    Blocking Scheme        =         OCTREE
    BS radius alpha        =              1
    Pruning alpha          =              1
    Radial Points          =             75
    Spherical Points       =            302
    Total Points           =          43910
    Total Blocks           =            424
    Max Points             =            253
    Max Functions          =             23
    Weights Tolerance      =       1.00E-15

  -Total Gradient:
     Atom            X                  Y                   Z
    ------   -----------------  -----------------  -----------------
       1        0.000000000000    -0.000000000000    -0.000223551602
       2        0.000000000000    -0.000000000000     0.000220136085

*** tstop() called on Joses-MacBook-Pro-2.local at Thu Jul 17 09:21:25 2025
Module time:
	user time   =       1.06 seconds =       0.02 minutes
	system time =       0.98 seconds =       0.02 minutes
	total time  =          0 seconds =       0.00 minutes
Total time:
	user time   =      62.54 seconds =       1.04 minutes
	system time =      94.64 seconds =       1.58 minutes
	total time  =         16 seconds =       0.27 minutes

    			-----------------------------------------

    			 OPTKING 3.0: for geometry optimizations

    			     By R.A. King, Bethel University

    			        with contributions from

    			    A.V. Copan, J. Cayton, A. Heide

    			-----------------------------------------

	                            ===> Fragment 1 <==

	 Z (Atomic Numbers)          Masses                          Geom
	       2.000000             4.002603          0.00000000  0.00000000  6.51968635
	      11.000000            22.989769          0.00000000  0.00000000 -1.13510134

	 - Coordinate -           - BOHR/RAD -       - ANG/DEG -
	 R(1,2)           =         7.654788           4.050739

	        --- Internal Coordinate Step in ANG or DEG, aJ/ANG or AJ/DEG ---
	-------------------------------------------------------------------------------
	           Coordinate      Previous         Force          Change          New
	           ----------      --------        ------          ------        ------
	               R(1,2)       4.05074        0.00183        0.00172       4.05246
	-------------------------------------------------------------------------------

	                                 ==> Convergence Check <==

	Measures of convergence in internal coordinates in au.

	Criteria marked as inactive (o), active & met (*), and active & unmet ( ).

	----------------------------------------------------------------------------------------------
	   Step    Total Energy     Delta E     Max Force     RMS Force      Max Disp      RMS Disp
	----------------------------------------------------------------------------------------------
	  Convergence Criteria     1.00e-06 *    3.00e-04 *             o    1.20e-03 *             o
	----------------------------------------------------------------------------------------------
	    20    -165.18283743   -7.09e-07 *    2.22e-04 *    2.22e-04 o    3.25e-03      3.25e-03 o  ~
	----------------------------------------------------------------------------------------------

Next Geometry in Ang
	Fragment 1 (Ang)

	   He   0.0000000000   0.0000000000   3.4509284294
	   Na   0.0000000000   0.0000000000  -0.6015287484

    Final optimized geometry and variables:
    Molecular point group: c2v
    Full point group: C_inf_v

    Geometry (in Angstrom), charge = -1, multiplicity = 3:

    HE           0.000000000000     0.000000000000     3.450069439607
    NA           0.000000000000     0.000000000000    -0.600669758646

    Psi4 stopped on: Thursday, 17 July 2025 09:21AM
    Psi4 wall time for execution: 0:00:16.60

*** Psi4 exiting successfully. Buy a developer a beer!
