                               Psi4 1.9.1 release

  ==> Input File <==

--------------------------------------------------------------------------
molecule {
-1 3
F   0.00000        0.60000        0.00000
Ar   0.00000       -0.60000        0.00000
}

set {
basis              cc-pvdz
reference          uks
maxiter            500
geom_maxiter       500
DAMPING_PERCENTAGE 1
guess              SAP
}

optimize('b3lyp')
--------------------------------------------------------------------------

    Molecular point group: c2v
  Charge       = -1
  Multiplicity = 3
  Basis Set: CC-PVDZ
    Blend: CC-PVDZ
  Basis Set: (CC-PVDZ AUX)
    Blend: CC-PVDZ-JKFIT
  @DF-UKS Final Energy:  -626.03058386940211
    Total Energy =                       -626.0305838694021077
 Dipole X            :          0.0000000            0.0000000            0.0000000
 Dipole Y            :          0.0000000            0.0000000            0.0000000
 Dipole Z            :          0.2375692            0.6803766            0.9179458
 Magnitude           :                                                    0.9179458
    Molecular point group: c2v
  Basis Set: CC-PVDZ
    Blend: CC-PVDZ
  Basis Set: (CC-PVDZ AUX)
    Blend: CC-PVDZ-JKFIT
  Basis Set: CC-PVDZ
    Blend: CC-PVDZ
  Basis Set: (CC-PVDZ AUX)
    Blend: CC-PVDZ-JKFIT
  @DF-UKS Final Energy:  -626.26210453469366
    Total Energy =                       -626.2621045346936626
  Basis Set: CC-PVDZ
    Blend: CC-PVDZ
  Basis Set: (CC-PVDZ AUX)
    Blend: CC-PVDZ-JKFIT
  Basis Set: CC-PVDZ
    Blend: CC-PVDZ
  @DF-UKS Final Energy:  -626.41650611040063
    Total Energy =                       -626.4165061104006327
  @DF-UKS Final Energy:  -626.51172195029415
    Total Energy =                       -626.5117219502941452
  @DF-UKS Final Energy:  -626.56177193188830
    Total Energy =                       -626.5617719318883019
  @DF-UKS Final Energy:  -626.58458927214883
    Total Energy =                       -626.5845892721487189
  @DF-UKS Final Energy:  -626.59353798654865
    Total Energy =                       -626.5935379865486539
  @DF-UKS Final Energy:  -626.59641217317437
    Total Energy =                       -626.5964121731742580
  @DF-UKS Final Energy:  -626.59697678304906
    Total Energy =                       -626.5969767830489445
  @DF-UKS Final Energy:  -626.59713341237841
    Total Energy =                       -626.5971334123784118
  @DF-UKS Final Energy:  -626.59715283357082
    Total Energy =                       -626.5971528335708172
  Basis Set: (CC-PVDZ AUX)
    Blend: CC-PVDZ-JKFIT
  Basis Set: CC-PVDZ
    Blend: CC-PVDZ
  Basis Set: (CC-PVDZ AUX)
    Blend: CC-PVDZ-JKFIT
  @DF-UKS Final Energy:  -626.59715552172577
    Total Energy =                       -626.5971555217257674
  Basis Set: CC-PVDZ
    Blend: CC-PVDZ
  Basis Set: (CC-PVDZ AUX)
    Blend: CC-PVDZ-JKFIT
  Charge       = -1
  Multiplicity = 3
  Basis Set: CC-PVDZ
    Blend: CC-PVDZ
  Basis Set: (CC-PVDZ AUX)
    Blend: CC-PVDZ-JKFIT

    Orbital Energies [Eh]
    ---------------------

    Alpha Occupied:

       1A1  -114.708615     2A1   -24.456941     3A1   -10.772601
       4A1    -8.328296     1B2    -8.321083     1B1    -8.317409
       5A1    -0.900403     6A1    -0.660616     7A1    -0.232728
       2B2    -0.153276     2B1    -0.152285     3B2    -0.118258
       3B1    -0.114826     8A1    -0.110235     4B1     0.775663

    Alpha Virtual:

       4B2     0.850114     9A1     0.878009    10A1     0.992469
      11A1     1.088493     5B2     1.123337     5B1     1.136100
       1A2     1.154241    12A1     1.156876     6B2     1.388213
       6B1     1.388878    13A1     1.462416    14A1     1.924711
      15A1     3.780792     7B2     3.781491     7B1     3.782316
      16A1     3.832599     2A2     3.832780

    Beta Occupied:

       1A1  -114.697589     2A1   -24.432482     3A1   -10.762288
       4A1    -8.315889     1B2    -8.314899     1B1    -8.290011
       5A1    -0.832686     6A1    -0.624074     2B2    -0.131446
       2B1    -0.125818     7A1    -0.119904     3B2    -0.103269
       3B1    -0.069147

    Beta Virtual:

       8A1     0.048093     4B2     0.866439     4B1     0.898773
       9A1     0.907265    10A1     1.037524    11A1     1.118906
       5B2     1.143555     5B1     1.170716     1A2     1.175194
      12A1     1.179557     6B2     1.402356     6B1     1.406394
      13A1     1.528524    14A1     1.967554    15A1     3.845186
       2A2     3.845379     7B2     3.853771     7B1     3.855107
      16A1     3.879033

    Final Occupation by Irrep:
             A1    A2    B1    B2
    DOCC [     7,    0,    3,    3 ]
    SOCC [     1,    0,    1,    0 ]
    NA   [     8,    0,    4,    3 ]
    NB   [     7,    0,    3,    3 ]

  @DF-UKS Final Energy:  -626.59715598052082

   => Energetics <=

    Nuclear Repulsion Energy =             36.5067912872278129
    One-Electron Energy =                -948.9097307728609394
    Two-Electron Energy =                 319.3916515599811419
    DFT Exchange-Correlation Energy =     -33.5858680548688824
    Empirical Dispersion Energy =           0.0000000000000000
    VV10 Nonlocal Energy =                  0.0000000000000000
    Total Energy =                       -626.5971559805209381

  UHF NO Occupations:
  HONO-2 :    7 A1 1.9992830
  HONO-1 :    4 B1 1.0000000
  HONO-0 :    8 A1 1.0000000
  LUNO+0 :    9 A1 0.0007170
  LUNO+1 :   10 A1 0.0001706
  LUNO+2 :   11 A1 0.0000951
  LUNO+3 :    5 B1 0.0000520

Computation Completed

Properties will be evaluated at   0.000000,   0.000000,   0.000000 [a0]

Properties computed using the SCF density matrix

 Multipole Moments:

 ------------------------------------------------------------------------------------
     Multipole            Electronic (a.u.)      Nuclear  (a.u.)        Total (a.u.)
 ------------------------------------------------------------------------------------

 L = 1.  Multiply by 2.5417464519 to convert [e a0] to [Debye]
 Dipole X            :          0.0000000            0.0000000            0.0000000
 Dipole Y            :          0.0000000            0.0000000            0.0000000
 Dipole Z            :         -1.0214772            1.3314063            0.3099291
 Magnitude           :                                                    0.3099291

 ------------------------------------------------------------------------------------

*** tstop() called on Joses-MacBook-Pro-2.local at Thu Jul 17 10:56:57 2025
Module time:
	user time   =       2.25 seconds =       0.04 minutes
	system time =       3.53 seconds =       0.06 minutes
	total time  =          0 seconds =       0.00 minutes
Total time:
	user time   =      64.39 seconds =       1.07 minutes
	system time =      73.77 seconds =       1.23 minutes
	total time  =         14 seconds =       0.23 minutes

*** tstart() called on Joses-MacBook-Pro-2.local
*** at Thu Jul 17 10:56:57 2025

         ------------------------------------------------------------
                                   SCF GRAD
                          Rob Parrish, Justin Turney,
                       Andy Simmonett, and Alex Sokolov
         ------------------------------------------------------------

  ==> Geometry <==

    Molecular point group: c2v
    Full point group: C_inf_v

    Geometry (in Angstrom), charge = -1, multiplicity = 3:

       Center              X                  Y                   Z               Mass
    ------------   -----------------  -----------------  -----------------  -----------------
         F            0.000000000000     0.000000000000     1.591587783436    18.998403162730
         AR           0.000000000000     0.000000000000    -0.756652231800    39.962383123700

  Nuclear repulsion =   36.506791287227813

  ==> Basis Set <==

  Basis Set: CC-PVDZ
    Blend: CC-PVDZ
    Number of shells: 14
    Number of basis functions: 32
    Number of Cartesian functions: 34
    Spherical Harmonics?: true
    Max angular momentum: 2

  ==> DFJKGrad: Density-Fitted SCF Gradients <==

    Gradient:                    1
    J tasked:                  Yes
    K tasked:                  Yes
    wK tasked:                  No
    OpenMP threads:              1
    Integrals threads:           1
    Memory [MiB]:              375
    Schwarz Cutoff:          1E-12
    Fitting Condition:       1E-10

   => Auxiliary Basis Set <=

  Basis Set: (CC-PVDZ AUX)
    Blend: CC-PVDZ-JKFIT
    Number of shells: 60
    Number of basis functions: 182
    Number of Cartesian functions: 211
    Spherical Harmonics?: true
    Max angular momentum: 3

  ==> DFT Potential <==

   => LibXC <=

    Version 6.2.2
    S. Lehtola, C. Steigemann, M. J.T. Oliveira, and M. A.L. Marques.,  SoftwareX 7, 1â€“5 (2018) (10.1016/j.softx.2017.11.002)

   => Composite Functional: B3LYP <=

    B3LYP Hyb-GGA Exchange-Correlation Functional

    P. J. Stephens, F. J. Devlin, C. F. Chabalowski, and M. J. Frisch.,  J. Phys. Chem. 98, 11623 (1994) (10.1021/j100096a001)

    Deriv               =              1
    GGA                 =           TRUE
    Meta                =          FALSE

    Exchange Hybrid     =           TRUE
    MP2 Hybrid          =          FALSE

   => Exchange Functionals <=

    0.0800   Slater exchange
    0.7200         Becke 88

   => Exact (HF) Exchange <=

    0.2000               HF

   => Correlation Functionals <=

    0.1900   Vosko, Wilk & Nusair (VWN5_RPA)
    0.8100   Lee, Yang & Parr

   => LibXC Density Thresholds  <==

    XC_HYB_GGA_XC_B3LYP:  1.00E-15

   => Molecular Quadrature <=

    Radial Scheme          =       TREUTLER
    Pruning Scheme         =           NONE
    Nuclear Scheme         =       TREUTLER

    Blocking Scheme        =         OCTREE
    BS radius alpha        =              1
    Pruning alpha          =              1
    Radial Points          =             75
    Spherical Points       =            302
    Total Points           =          41431
    Total Blocks           =            372
    Max Points             =            254
    Max Functions          =             32
    Weights Tolerance      =       1.00E-15

  -Total Gradient:
     Atom            X                  Y                   Z
    ------   -----------------  -----------------  -----------------
       1       -0.000000000000     0.000000000000    -0.000004586313
       2        0.000000000000     0.000000000000     0.000064950207

*** tstop() called on Joses-MacBook-Pro-2.local at Thu Jul 17 10:56:57 2025
Module time:
	user time   =       0.92 seconds =       0.02 minutes
	system time =       1.17 seconds =       0.02 minutes
	total time  =          0 seconds =       0.00 minutes
Total time:
	user time   =      65.31 seconds =       1.09 minutes
	system time =      74.95 seconds =       1.25 minutes
	total time  =         14 seconds =       0.23 minutes

    			-----------------------------------------

    			 OPTKING 3.0: for geometry optimizations

    			     By R.A. King, Bethel University

    			        with contributions from

    			    A.V. Copan, J. Cayton, A. Heide

    			-----------------------------------------

	                            ===> Fragment 1 <==

	 Z (Atomic Numbers)          Masses                          Geom
	       9.000000            18.998403          0.00000000  0.00000000  3.00766502
	      18.000000            39.962383          0.00000000  0.00000000 -1.42986549

	 - Coordinate -           - BOHR/RAD -       - ANG/DEG -
	 R(1,2)           =         4.437531           2.348240

	        --- Internal Coordinate Step in ANG or DEG, aJ/ANG or AJ/DEG ---
	-------------------------------------------------------------------------------
	           Coordinate      Previous         Force          Change          New
	           ----------      --------        ------          ------        ------
	               R(1,2)       2.34824        0.00029        0.00046       2.34870
	-------------------------------------------------------------------------------

	                                 ==> Convergence Check <==

	Measures of convergence in internal coordinates in au.

	Criteria marked as inactive (o), active & met (*), and active & unmet ( ).

	----------------------------------------------------------------------------------------------
	   Step    Total Energy     Delta E     Max Force     RMS Force      Max Disp      RMS Disp
	----------------------------------------------------------------------------------------------
	  Convergence Criteria     1.00e-06 *    3.00e-04 *             o    1.20e-03 *             o
	----------------------------------------------------------------------------------------------
	    13    -626.59715598   -4.59e-07 *    3.48e-05 *    3.48e-05 o    8.72e-04 *    8.72e-04 o  ~
	----------------------------------------------------------------------------------------------

Next Geometry in Ang
	Fragment 1 (Ang)

	    F   0.0000000000   0.0000000000   1.5918184942
	   Ar   0.0000000000   0.0000000000  -0.7568829425

    Final optimized geometry and variables:
    Molecular point group: c2v
    Full point group: C_inf_v

    Geometry (in Angstrom), charge = -1, multiplicity = 3:

    F            0.000000000000     0.000000000000     1.591587783436
    AR           0.000000000000     0.000000000000    -0.756652231800

    Psi4 stopped on: Thursday, 17 July 2025 10:56AM
    Psi4 wall time for execution: 0:00:15.27

*** Psi4 exiting successfully. Buy a developer a beer!
