                               Psi4 1.9.1 release

  ==> Input File <==

--------------------------------------------------------------------------
molecule {
-1 3
B   0.00000        0.60000        0.00000
Mg   0.00000       -0.60000        0.00000
}

set {
basis              cc-pvdz
reference          uks
maxiter            500
geom_maxiter       500
DAMPING_PERCENTAGE 1
guess              SAP
}

optimize('b3lyp')
--------------------------------------------------------------------------

    Molecular point group: c2v
  Charge       = -1
  Multiplicity = 3
  Basis Set: CC-PVDZ
    Blend: CC-PVDZ
  Basis Set: (CC-PVDZ AUX)
    Blend: CC-PVDZ-JKFIT + DEF2-UNIVERSAL-JKFIT
  @DF-UKS Final Energy:  -224.31387106565279
    Total Energy =                       -224.3138710656527905
 Dipole X            :          0.0000000            0.0000000            0.0000000
 Dipole Y            :          0.0000000            0.0000000            0.0000000
 Dipole Z            :          0.4815766           -0.7896955           -0.3081188
 Magnitude           :                                                    0.3081188
    Molecular point group: c2v
  Basis Set: CC-PVDZ
    Blend: CC-PVDZ
  Basis Set: (CC-PVDZ AUX)
    Blend: CC-PVDZ-JKFIT + DEF2-UNIVERSAL-JKFIT
  Basis Set: CC-PVDZ
    Blend: CC-PVDZ
  Basis Set: (CC-PVDZ AUX)
    Blend: CC-PVDZ-JKFIT + DEF2-UNIVERSAL-JKFIT
  @DF-UKS Final Energy:  -224.44011657164546
    Total Energy =                       -224.4401165716454614
  Basis Set: CC-PVDZ
    Blend: CC-PVDZ
  Basis Set: (CC-PVDZ AUX)
    Blend: CC-PVDZ-JKFIT + DEF2-UNIVERSAL-JKFIT
  Basis Set: CC-PVDZ
    Blend: CC-PVDZ
  @DF-UKS Final Energy:  -224.56842163512505
    Total Energy =                       -224.5684216351250484
  @DF-UKS Final Energy:  -224.67118229203274
    Total Energy =                       -224.6711822920327108
  @DF-UKS Final Energy:  -224.71350304525279
    Total Energy =                       -224.7135030452527928
  @DF-UKS Final Energy:  -224.78485151210805
    Total Energy =                       -224.7848515121080482
  @DF-UKS Final Energy:  -224.80186231089422
    Total Energy =                       -224.8018623108942222
  @DF-UKS Final Energy:  -224.80192429821381
    Total Energy =                       -224.8019242982137769
  Basis Set: (CC-PVDZ AUX)
    Blend: CC-PVDZ-JKFIT + DEF2-UNIVERSAL-JKFIT
  Basis Set: CC-PVDZ
    Blend: CC-PVDZ
  Basis Set: (CC-PVDZ AUX)
    Blend: CC-PVDZ-JKFIT + DEF2-UNIVERSAL-JKFIT
  @DF-UKS Final Energy:  -224.80211309463937
    Total Energy =                       -224.8021130946393669
  Basis Set: CC-PVDZ
    Blend: CC-PVDZ
  Basis Set: (CC-PVDZ AUX)
    Blend: CC-PVDZ-JKFIT + DEF2-UNIVERSAL-JKFIT
  Charge       = -1
  Multiplicity = 3
  Basis Set: CC-PVDZ
    Blend: CC-PVDZ
  Basis Set: (CC-PVDZ AUX)
    Blend: CC-PVDZ-JKFIT + DEF2-UNIVERSAL-JKFIT

    Orbital Energies [Eh]
    ---------------------

    Alpha Occupied:

       1A1   -46.628460     2A1    -6.590335     3A1    -2.911127
       1B1    -1.655105     1B2    -1.655105     4A1    -1.653952
       5A1    -0.199231     6A1    -0.014052     2B1     0.030865
       2B2     0.030865

    Alpha Virtual:

       7A1     0.094514     3B1     0.147457     3B2     0.147457
       8A1     0.186133     9A1     0.260902     4B2     0.320355
       4B1     0.320355    10A1     0.410786    11A1     0.445203
       1A2     0.495018    12A1     0.495018     5B1     0.508310
       5B2     0.508310     6B1     0.533791     6B2     0.533791
      13A1     0.724088    14A1     0.764096     2A2     0.915503
      15A1     0.915506     7B1     1.043612     7B2     1.043612
      16A1     1.278149

    Beta Occupied:

       1A1   -46.628099     2A1    -6.578414     3A1    -2.910635
       4A1    -1.654265     1B1    -1.653976     1B2    -1.653976
       5A1    -0.137231     6A1    -0.001244

    Beta Virtual:

       7A1     0.113954     2B1     0.114049     2B2     0.114049
       3B1     0.185328     3B2     0.185328     8A1     0.196483
       9A1     0.260670     4B2     0.327910     4B1     0.327910
      10A1     0.418415    11A1     0.461264     1A2     0.508307
      12A1     0.508307     5B1     0.543857     5B2     0.543857
       6B1     0.557416     6B2     0.557416    13A1     0.751973
      14A1     0.785555     2A2     0.983368    15A1     0.983372
       7B1     1.084442     7B2     1.084442    16A1     1.306546

    Final Occupation by Irrep:
             A1    A2    B1    B2
    DOCC [     6,    0,    1,    1 ]
    SOCC [     0,    0,    1,    1 ]
    NA   [     6,    0,    2,    2 ]
    NB   [     6,    0,    1,    1 ]

  @DF-UKS Final Energy:  -224.80211521619711

   => Energetics <=

    Nuclear Repulsion Energy =             13.9110679745874091
    One-Electron Energy =                -343.0824373856486318
    Two-Electron Energy =                 120.9676843613419805
    DFT Exchange-Correlation Energy =     -16.5984301664778719
    Empirical Dispersion Energy =           0.0000000000000000
    VV10 Nonlocal Energy =                  0.0000000000000000
    Total Energy =                       -224.8021152161971088

  UHF NO Occupations:
  HONO-2 :    6 A1 1.9632222
  HONO-1 :    2 B1 1.0000000
  HONO-0 :    2 B2 1.0000000
  LUNO+0 :    7 A1 0.0367778
  LUNO+1 :    8 A1 0.0007692
  LUNO+2 :    9 A1 0.0000002
  LUNO+3 :    3 B1 0.0000001

Computation Completed

Properties will be evaluated at   0.000000,   0.000000,   0.000000 [a0]

Properties computed using the SCF density matrix

 Multipole Moments:

 ------------------------------------------------------------------------------------
     Multipole            Electronic (a.u.)      Nuclear  (a.u.)        Total (a.u.)
 ------------------------------------------------------------------------------------

 L = 1.  Multiply by 2.5417464519 to convert [e a0] to [Debye]
 Dipole X            :          0.0000000            0.0000000            0.0000000
 Dipole Y            :          0.0000000            0.0000000            0.0000000
 Dipole Z            :          0.9676949           -1.5020013           -0.5343064
 Magnitude           :                                                    0.5343064

 ------------------------------------------------------------------------------------

*** tstop() called on Joses-MacBook-Pro-2.local at Thu Jul 17 09:53:00 2025
Module time:
	user time   =       4.03 seconds =       0.07 minutes
	system time =       3.77 seconds =       0.06 minutes
	total time  =          1 seconds =       0.02 minutes
Total time:
	user time   =      57.51 seconds =       0.96 minutes
	system time =      64.97 seconds =       1.08 minutes
	total time  =         12 seconds =       0.20 minutes

*** tstart() called on Joses-MacBook-Pro-2.local
*** at Thu Jul 17 09:53:00 2025

         ------------------------------------------------------------
                                   SCF GRAD
                          Rob Parrish, Justin Turney,
                       Andy Simmonett, and Alex Sokolov
         ------------------------------------------------------------

  ==> Geometry <==

    Molecular point group: c2v
    Full point group: C_inf_v

    Geometry (in Angstrom), charge = -1, multiplicity = 3:

       Center              X                  Y                   Z               Mass
    ------------   -----------------  -----------------  -----------------  -----------------
         B            0.000000000000     0.000000000000     1.564352042624    11.009305360000
         MG           0.000000000000     0.000000000000    -0.718048754943    23.985041697000

  Nuclear repulsion =   13.911067974587409

  ==> Basis Set <==

  Basis Set: CC-PVDZ
    Blend: CC-PVDZ
    Number of shells: 14
    Number of basis functions: 32
    Number of Cartesian functions: 34
    Spherical Harmonics?: true
    Max angular momentum: 2

  ==> DFJKGrad: Density-Fitted SCF Gradients <==

    Gradient:                    1
    J tasked:                  Yes
    K tasked:                  Yes
    wK tasked:                  No
    OpenMP threads:              1
    Integrals threads:           1
    Memory [MiB]:              375
    Schwarz Cutoff:          1E-12
    Fitting Condition:       1E-10

   => Auxiliary Basis Set <=

  Basis Set: (CC-PVDZ AUX)
    Blend: CC-PVDZ-JKFIT + DEF2-UNIVERSAL-JKFIT
    Number of shells: 58
    Number of basis functions: 182
    Number of Cartesian functions: 218
    Spherical Harmonics?: true
    Max angular momentum: 4

  ==> DFT Potential <==

   => LibXC <=

    Version 6.2.2
    S. Lehtola, C. Steigemann, M. J.T. Oliveira, and M. A.L. Marques.,  SoftwareX 7, 1â€“5 (2018) (10.1016/j.softx.2017.11.002)

   => Composite Functional: B3LYP <=

    B3LYP Hyb-GGA Exchange-Correlation Functional

    P. J. Stephens, F. J. Devlin, C. F. Chabalowski, and M. J. Frisch.,  J. Phys. Chem. 98, 11623 (1994) (10.1021/j100096a001)

    Deriv               =              1
    GGA                 =           TRUE
    Meta                =          FALSE

    Exchange Hybrid     =           TRUE
    MP2 Hybrid          =          FALSE

   => Exchange Functionals <=

    0.0800   Slater exchange
    0.7200         Becke 88

   => Exact (HF) Exchange <=

    0.2000               HF

   => Correlation Functionals <=

    0.1900   Vosko, Wilk & Nusair (VWN5_RPA)
    0.8100   Lee, Yang & Parr

   => LibXC Density Thresholds  <==

    XC_HYB_GGA_XC_B3LYP:  1.00E-15

   => Molecular Quadrature <=

    Radial Scheme          =       TREUTLER
    Pruning Scheme         =           NONE
    Nuclear Scheme         =       TREUTLER

    Blocking Scheme        =         OCTREE
    BS radius alpha        =              1
    Pruning alpha          =              1
    Radial Points          =             75
    Spherical Points       =            302
    Total Points           =          43270
    Total Blocks           =            418
    Max Points             =            256
    Max Functions          =             32
    Weights Tolerance      =       1.00E-15

  -Total Gradient:
     Atom            X                  Y                   Z
    ------   -----------------  -----------------  -----------------
       1        0.000000000000     0.000000000000    -0.000054636568
       2        0.000000000000     0.000000000000     0.000042018196

*** tstop() called on Joses-MacBook-Pro-2.local at Thu Jul 17 09:53:00 2025
Module time:
	user time   =       1.02 seconds =       0.02 minutes
	system time =       1.56 seconds =       0.03 minutes
	total time  =          0 seconds =       0.00 minutes
Total time:
	user time   =      58.53 seconds =       0.98 minutes
	system time =      66.53 seconds =       1.11 minutes
	total time  =         12 seconds =       0.20 minutes

    			-----------------------------------------

    			 OPTKING 3.0: for geometry optimizations

    			     By R.A. King, Bethel University

    			        with contributions from

    			    A.V. Copan, J. Cayton, A. Heide

    			-----------------------------------------

	                            ===> Fragment 1 <==

	 Z (Atomic Numbers)          Masses                          Geom
	       5.000000            11.009305          0.00000000  0.00000000  2.95619692
	      12.000000            23.985042          0.00000000  0.00000000 -1.35691549

	 - Coordinate -           - BOHR/RAD -       - ANG/DEG -
	 R(1,2)           =         4.313112           2.282401

	        --- Internal Coordinate Step in ANG or DEG, aJ/ANG or AJ/DEG ---
	-------------------------------------------------------------------------------
	           Coordinate      Previous         Force          Change          New
	           ----------      --------        ------          ------        ------
	               R(1,2)       2.28240        0.00040        0.00050       2.28290
	-------------------------------------------------------------------------------

	                                 ==> Convergence Check <==

	Measures of convergence in internal coordinates in au.

	Criteria marked as inactive (o), active & met (*), and active & unmet ( ).

	----------------------------------------------------------------------------------------------
	   Step    Total Energy     Delta E     Max Force     RMS Force      Max Disp      RMS Disp
	----------------------------------------------------------------------------------------------
	  Convergence Criteria     1.00e-06 *    3.00e-04 *             o    1.20e-03 *             o
	----------------------------------------------------------------------------------------------
	    10    -224.80211522   -2.12e-06      4.83e-05 *    4.83e-05 o    9.40e-04 *    9.40e-04 o  ~
	----------------------------------------------------------------------------------------------

Next Geometry in Ang
	Fragment 1 (Ang)

	    B   0.0000000000   0.0000000000   1.5646008300
	   Mg   0.0000000000   0.0000000000  -0.7182975423

    Final optimized geometry and variables:
    Molecular point group: c2v
    Full point group: C_inf_v

    Geometry (in Angstrom), charge = -1, multiplicity = 3:

    B            0.000000000000     0.000000000000     1.564352042624
    MG           0.000000000000     0.000000000000    -0.718048754943

    Psi4 stopped on: Thursday, 17 July 2025 09:53AM
    Psi4 wall time for execution: 0:00:12.90

*** Psi4 exiting successfully. Buy a developer a beer!
