                               Psi4 1.9.1 release

  ==> Input File <==

--------------------------------------------------------------------------
molecule {
-1 3
B   0.00000        0.60000        0.00000
S   0.00000       -0.60000        0.00000
}

set {
basis              cc-pvdz
reference          uks
maxiter            500
geom_maxiter       500
DAMPING_PERCENTAGE 1
guess              SAP
}

optimize('b3lyp')
--------------------------------------------------------------------------

    Molecular point group: c2v
  Charge       = -1
  Multiplicity = 3
  Basis Set: CC-PVDZ
    Blend: CC-PVDZ
  Basis Set: (CC-PVDZ AUX)
    Blend: CC-PVDZ-JKFIT
  @DF-UKS Final Energy:  -422.57439286619564
    Total Energy =                       -422.5743928661956943
 Dipole X            :          0.0000000            0.0000000            0.0000000
 Dipole Y            :          0.0000000            0.0000000            0.0000000
 Dipole Z            :         -0.1810406           -0.8593730           -1.0404136
 Magnitude           :                                                    1.0404136
    Molecular point group: c2v
  Basis Set: CC-PVDZ
    Blend: CC-PVDZ
  Basis Set: (CC-PVDZ AUX)
    Blend: CC-PVDZ-JKFIT
  Basis Set: CC-PVDZ
    Blend: CC-PVDZ
  Basis Set: (CC-PVDZ AUX)
    Blend: CC-PVDZ-JKFIT
  @DF-UKS Final Energy:  -422.80309246648653
    Total Energy =                       -422.8030924664865324
  Basis Set: CC-PVDZ
    Blend: CC-PVDZ
  Basis Set: (CC-PVDZ AUX)
    Blend: CC-PVDZ-JKFIT
  Basis Set: CC-PVDZ
    Blend: CC-PVDZ
  @DF-UKS Final Energy:  -422.90736227963293
    Total Energy =                       -422.9073622796328777
  @DF-UKS Final Energy:  -422.94815580953212
    Total Energy =                       -422.9481558095321816
  @DF-UKS Final Energy:  -422.95905194071690
    Total Energy =                       -422.9590519407169040
  @DF-UKS Final Energy:  -422.96350188360799
    Total Energy =                       -422.9635018836080462
  @DF-UKS Final Energy:  -422.96446175921892
    Total Energy =                       -422.9644617592189775
  @DF-UKS Final Energy:  -422.96469530081822
    Total Energy =                       -422.9646953008182209
  @DF-UKS Final Energy:  -422.96476782204559
    Total Energy =                       -422.9647678220455873
  Basis Set: (CC-PVDZ AUX)
    Blend: CC-PVDZ-JKFIT
  Basis Set: CC-PVDZ
    Blend: CC-PVDZ
  Basis Set: (CC-PVDZ AUX)
    Blend: CC-PVDZ-JKFIT
  @DF-UKS Final Energy:  -422.96477744708534
    Total Energy =                       -422.9647774470853392
  Basis Set: CC-PVDZ
    Blend: CC-PVDZ
  Basis Set: (CC-PVDZ AUX)
    Blend: CC-PVDZ-JKFIT
  Charge       = -1
  Multiplicity = 3
  Basis Set: CC-PVDZ
    Blend: CC-PVDZ
  Basis Set: (CC-PVDZ AUX)
    Blend: CC-PVDZ-JKFIT

    Orbital Energies [Eh]
    ---------------------

    Alpha Occupied:

       1A1   -88.605706     2A1    -7.666173     3A1    -6.559014
       4A1    -5.629989     1B2    -5.625843     1B1    -5.623845
       5A1    -0.446298     6A1    -0.169545     7A1    -0.041386
       2B1    -0.038505     2B2    -0.031075     3B1     0.116701

    Alpha Virtual:

       3B2     0.182187     8A1     0.335385     9A1     0.479979
       4B1     0.503404     4B2     0.517474    10A1     0.553378
      11A1     0.705834     5B2     0.735841     5B1     0.736684
       6B1     0.819799     1A2     0.820561     6B2     0.820992
      12A1     0.821901    13A1     0.975514     2A2     1.000391
      14A1     1.003165    15A1     1.252076     7B1     1.276939
       7B2     1.278319    16A1     1.492151

    Beta Occupied:

       1A1   -88.604000     2A1    -7.664442     3A1    -6.541266
       4A1    -5.626217     1B2    -5.625643     1B1    -5.620108
       5A1    -0.430777     6A1    -0.124817     2B2    -0.026436
       2B1    -0.008832

    Beta Virtual:

       7A1     0.108811     3B2     0.212619     3B1     0.236990
       8A1     0.355651     9A1     0.503449     4B2     0.535132
       4B1     0.555952    10A1     0.617193    11A1     0.734114
       5B2     0.748337     5B1     0.761469     6B2     0.838479
       1A2     0.839597    12A1     0.839697     6B1     0.857053
      13A1     0.993594     2A2     1.046113    14A1     1.046407
      15A1     1.288088     7B2     1.310517     7B1     1.332098
      16A1     1.526536

    Final Occupation by Irrep:
             A1    A2    B1    B2
    DOCC [     6,    0,    2,    2 ]
    SOCC [     1,    0,    1,    0 ]
    NA   [     7,    0,    3,    2 ]
    NB   [     6,    0,    2,    2 ]

  @DF-UKS Final Energy:  -422.96477801831338

   => Energetics <=

    Nuclear Repulsion Energy =             24.2383106578482987
    One-Electron Energy =                -636.6329553980519904
    Two-Electron Energy =                 213.5409107532998405
    DFT Exchange-Correlation Energy =     -24.1110440314095094
    Empirical Dispersion Energy =           0.0000000000000000
    VV10 Nonlocal Energy =                  0.0000000000000000
    Total Energy =                       -422.9647780183133818

  UHF NO Occupations:
  HONO-2 :    2 B2 1.9973737
  HONO-1 :    7 A1 1.0000000
  HONO-0 :    3 B1 1.0000000
  LUNO+0 :    3 B2 0.0026263
  LUNO+1 :    4 B1 0.0007969
  LUNO+2 :    8 A1 0.0004431
  LUNO+3 :    9 A1 0.0000749

Computation Completed

Properties will be evaluated at   0.000000,   0.000000,   0.000000 [a0]

Properties computed using the SCF density matrix

 Multipole Moments:

 ------------------------------------------------------------------------------------
     Multipole            Electronic (a.u.)      Nuclear  (a.u.)        Total (a.u.)
 ------------------------------------------------------------------------------------

 L = 1.  Multiply by 2.5417464519 to convert [e a0] to [Debye]
 Dipole X            :          0.0000000            0.0000000            0.0000000
 Dipole Y            :          0.0000000            0.0000000            0.0000000
 Dipole Z            :          0.5432450           -1.2508038           -0.7075589
 Magnitude           :                                                    0.7075589

 ------------------------------------------------------------------------------------

*** tstop() called on Joses-MacBook-Pro-2.local at Thu Jul 17 09:55:37 2025
Module time:
	user time   =       2.82 seconds =       0.05 minutes
	system time =       4.31 seconds =       0.07 minutes
	total time  =          1 seconds =       0.02 minutes
Total time:
	user time   =      56.22 seconds =       0.94 minutes
	system time =      68.04 seconds =       1.13 minutes
	total time  =         12 seconds =       0.20 minutes

*** tstart() called on Joses-MacBook-Pro-2.local
*** at Thu Jul 17 09:55:37 2025

         ------------------------------------------------------------
                                   SCF GRAD
                          Rob Parrish, Justin Turney,
                       Andy Simmonett, and Alex Sokolov
         ------------------------------------------------------------

  ==> Geometry <==

    Molecular point group: c2v
    Full point group: C_inf_v

    Geometry (in Angstrom), charge = -1, multiplicity = 3:

       Center              X                  Y                   Z               Mass
    ------------   -----------------  -----------------  -----------------  -----------------
         B            0.000000000000     0.000000000000     1.299209606692    11.009305360000
         S            0.000000000000     0.000000000000    -0.447371557779    31.972071174400

  Nuclear repulsion =   24.238310657848299

  ==> Basis Set <==

  Basis Set: CC-PVDZ
    Blend: CC-PVDZ
    Number of shells: 14
    Number of basis functions: 32
    Number of Cartesian functions: 34
    Spherical Harmonics?: true
    Max angular momentum: 2

  ==> DFJKGrad: Density-Fitted SCF Gradients <==

    Gradient:                    1
    J tasked:                  Yes
    K tasked:                  Yes
    wK tasked:                  No
    OpenMP threads:              1
    Integrals threads:           1
    Memory [MiB]:              375
    Schwarz Cutoff:          1E-12
    Fitting Condition:       1E-10

   => Auxiliary Basis Set <=

  Basis Set: (CC-PVDZ AUX)
    Blend: CC-PVDZ-JKFIT
    Number of shells: 60
    Number of basis functions: 182
    Number of Cartesian functions: 211
    Spherical Harmonics?: true
    Max angular momentum: 3

  ==> DFT Potential <==

   => LibXC <=

    Version 6.2.2
    S. Lehtola, C. Steigemann, M. J.T. Oliveira, and M. A.L. Marques.,  SoftwareX 7, 1â€“5 (2018) (10.1016/j.softx.2017.11.002)

   => Composite Functional: B3LYP <=

    B3LYP Hyb-GGA Exchange-Correlation Functional

    P. J. Stephens, F. J. Devlin, C. F. Chabalowski, and M. J. Frisch.,  J. Phys. Chem. 98, 11623 (1994) (10.1021/j100096a001)

    Deriv               =              1
    GGA                 =           TRUE
    Meta                =          FALSE

    Exchange Hybrid     =           TRUE
    MP2 Hybrid          =          FALSE

   => Exchange Functionals <=

    0.0800   Slater exchange
    0.7200         Becke 88

   => Exact (HF) Exchange <=

    0.2000               HF

   => Correlation Functionals <=

    0.1900   Vosko, Wilk & Nusair (VWN5_RPA)
    0.8100   Lee, Yang & Parr

   => LibXC Density Thresholds  <==

    XC_HYB_GGA_XC_B3LYP:  1.00E-15

   => Molecular Quadrature <=

    Radial Scheme          =       TREUTLER
    Pruning Scheme         =           NONE
    Nuclear Scheme         =       TREUTLER

    Blocking Scheme        =         OCTREE
    BS radius alpha        =              1
    Pruning alpha          =              1
    Radial Points          =             75
    Spherical Points       =            302
    Total Points           =          41988
    Total Blocks           =            380
    Max Points             =            256
    Max Functions          =             32
    Weights Tolerance      =       1.00E-15

  -Total Gradient:
     Atom            X                  Y                   Z
    ------   -----------------  -----------------  -----------------
       1        0.000000000000     0.000000000000    -0.000073716756
       2        0.000000000000    -0.000000000000     0.000063900194

*** tstop() called on Joses-MacBook-Pro-2.local at Thu Jul 17 09:55:37 2025
Module time:
	user time   =       0.89 seconds =       0.01 minutes
	system time =       1.71 seconds =       0.03 minutes
	total time  =          0 seconds =       0.00 minutes
Total time:
	user time   =      57.11 seconds =       0.95 minutes
	system time =      69.76 seconds =       1.16 minutes
	total time  =         12 seconds =       0.20 minutes

    			-----------------------------------------

    			 OPTKING 3.0: for geometry optimizations

    			     By R.A. King, Bethel University

    			        with contributions from

    			    A.V. Copan, J. Cayton, A. Heide

    			-----------------------------------------

	                            ===> Fragment 1 <==

	 Z (Atomic Numbers)          Masses                          Geom
	       5.000000            11.009305          0.00000000  0.00000000  2.45515034
	      16.000000            31.972071          0.00000000  0.00000000 -0.84540972

	 - Coordinate -           - BOHR/RAD -       - ANG/DEG -
	 R(1,2)           =         3.300560           1.746581

	        --- Internal Coordinate Step in ANG or DEG, aJ/ANG or AJ/DEG ---
	-------------------------------------------------------------------------------
	           Coordinate      Previous         Force          Change          New
	           ----------      --------        ------          ------        ------
	               R(1,2)       1.74658        0.00057        0.00013       1.74672
	-------------------------------------------------------------------------------

	                                 ==> Convergence Check <==

	Measures of convergence in internal coordinates in au.

	Criteria marked as inactive (o), active & met (*), and active & unmet ( ).

	----------------------------------------------------------------------------------------------
	   Step    Total Energy     Delta E     Max Force     RMS Force      Max Disp      RMS Disp
	----------------------------------------------------------------------------------------------
	  Convergence Criteria     1.00e-06 *    3.00e-04 *             o    1.20e-03 *             o
	----------------------------------------------------------------------------------------------
	    11    -422.96477802   -5.71e-07 *    6.88e-05 *    6.88e-05 o    2.53e-04 *    2.53e-04 o  ~
	----------------------------------------------------------------------------------------------

Next Geometry in Ang
	Fragment 1 (Ang)

	    B   0.0000000000   0.0000000000   1.2992765582
	    S   0.0000000000   0.0000000000  -0.4474385093

    Final optimized geometry and variables:
    Molecular point group: c2v
    Full point group: C_inf_v

    Geometry (in Angstrom), charge = -1, multiplicity = 3:

    B            0.000000000000     0.000000000000     1.299209606692
    S            0.000000000000     0.000000000000    -0.447371557779

    Psi4 stopped on: Thursday, 17 July 2025 09:55AM
    Psi4 wall time for execution: 0:00:13.19

*** Psi4 exiting successfully. Buy a developer a beer!
