                               Psi4 1.9.1 release

  ==> Input File <==

--------------------------------------------------------------------------
molecule {
-1 3
O   0.00000        0.60000        0.00000
Na   0.00000       -0.60000        0.00000
}

set {
basis              cc-pvdz
reference          uks
maxiter            500
geom_maxiter       500
DAMPING_PERCENTAGE 1
guess              SAP
}

optimize('b3lyp')
--------------------------------------------------------------------------

    Molecular point group: c2v
  Charge       = -1
  Multiplicity = 3
  Basis Set: CC-PVDZ
    Blend: CC-PVDZ
  Basis Set: (CC-PVDZ AUX)
    Blend: CC-PVDZ-JKFIT + DEF2-UNIVERSAL-JKFIT
  @DF-UKS Final Energy:  -237.03002040214898
    Total Energy =                       -237.0300204021489776
 Dipole X            :          0.0000000            0.0000000            0.0000000
 Dipole Y            :          0.0000000            0.0000000            0.0000000
 Dipole Z            :          0.9767109            0.4638392            1.4405501
 Magnitude           :                                                    1.4405501
    Molecular point group: c2v
  Basis Set: CC-PVDZ
    Blend: CC-PVDZ
  Basis Set: (CC-PVDZ AUX)
    Blend: CC-PVDZ-JKFIT + DEF2-UNIVERSAL-JKFIT
  Basis Set: CC-PVDZ
    Blend: CC-PVDZ
  Basis Set: (CC-PVDZ AUX)
    Blend: CC-PVDZ-JKFIT + DEF2-UNIVERSAL-JKFIT
  @DF-UKS Final Energy:  -237.23049005921871
    Total Energy =                       -237.2304900592187096
  Basis Set: CC-PVDZ
    Blend: CC-PVDZ
  Basis Set: (CC-PVDZ AUX)
    Blend: CC-PVDZ-JKFIT + DEF2-UNIVERSAL-JKFIT
  Basis Set: CC-PVDZ
    Blend: CC-PVDZ
  @DF-UKS Final Energy:  -237.35945432487557
    Total Energy =                       -237.3594543248755713
  @DF-UKS Final Energy:  -237.42305836197352
    Total Energy =                       -237.4230583619735171
  @DF-UKS Final Energy:  -237.45031684491167
    Total Energy =                       -237.4503168449116686
  @DF-UKS Final Energy:  -237.46098605434929
    Total Energy =                       -237.4609860543492914
  @DF-UKS Final Energy:  -237.46368718732276
    Total Energy =                       -237.4636871873227619
  @DF-UKS Final Energy:  -237.46470355944240
    Total Energy =                       -237.4647035594423983
  @DF-UKS Final Energy:  -237.46489500807061
    Total Energy =                       -237.4648950080706129
  @DF-UKS Final Energy:  -237.46493442254683
    Total Energy =                       -237.4649344225468326
  Basis Set: (CC-PVDZ AUX)
    Blend: CC-PVDZ-JKFIT + DEF2-UNIVERSAL-JKFIT
  Basis Set: CC-PVDZ
    Blend: CC-PVDZ
  Basis Set: (CC-PVDZ AUX)
    Blend: CC-PVDZ-JKFIT + DEF2-UNIVERSAL-JKFIT
  @DF-UKS Final Energy:  -237.46494401752261
    Total Energy =                       -237.4649440175226118
  Basis Set: CC-PVDZ
    Blend: CC-PVDZ
  Basis Set: (CC-PVDZ AUX)
    Blend: CC-PVDZ-JKFIT + DEF2-UNIVERSAL-JKFIT
  Charge       = -1
  Multiplicity = 3
  Basis Set: CC-PVDZ
    Blend: CC-PVDZ
  Basis Set: (CC-PVDZ AUX)
    Blend: CC-PVDZ-JKFIT + DEF2-UNIVERSAL-JKFIT

    Orbital Energies [Eh]
    ---------------------

    Alpha Occupied:

       1A1   -38.280680     2A1   -18.901750     3A1    -2.031007
       4A1    -0.963799     1B2    -0.962533     1B1    -0.962533
       5A1    -0.647913     6A1    -0.124632     2B1    -0.049166
       2B2    -0.049166     7A1     0.036056

    Alpha Virtual:

       3B1     0.109148     3B2     0.109148     8A1     0.131831
       9A1     0.187667     4B1     0.227282     4B2     0.227282
      10A1     0.272890     1A2     0.329219    11A1     0.329219
       5B1     0.371455     5B2     0.371455    12A1     0.431573
      13A1     1.167954     6B1     1.273290     6B2     1.273290
      14A1     1.846924    15A1     2.790684     7B2     2.821964
       7B1     2.821964     2A2     2.874757    16A1     2.874947

    Beta Occupied:

       1A1   -38.279352     2A1   -18.877376     3A1    -2.028565
       1B2    -0.961247     1B1    -0.961247     4A1    -0.959723
       5A1    -0.569314     2B1    -0.021278     2B2    -0.021278

    Beta Virtual:

       6A1     0.083264     7A1     0.111863     3B1     0.119089
       3B2     0.119089     8A1     0.141504     9A1     0.211649
       4B1     0.246996     4B2     0.246996    10A1     0.300974
       1A2     0.341510    11A1     0.341516     5B1     0.390549
       5B2     0.390549    12A1     0.448403    13A1     1.265313
       6B1     1.291645     6B2     1.291645    14A1     1.886648
       2A2     2.891235    15A1     2.891437     7B2     2.903066
       7B1     2.903066    16A1     2.903707

    Final Occupation by Irrep:
             A1    A2    B1    B2
    DOCC [     5,    0,    2,    2 ]
    SOCC [     2,    0,    0,    0 ]
    NA   [     7,    0,    2,    2 ]
    NB   [     5,    0,    2,    2 ]

  @DF-UKS Final Energy:  -237.46494467504354

   => Energetics <=

    Nuclear Repulsion Energy =             23.2237973427108244
    One-Electron Energy =                -382.3568857135238659
    Two-Electron Energy =                 140.3792749856487774
    DFT Exchange-Correlation Energy =     -18.7111312898793010
    Empirical Dispersion Energy =           0.0000000000000000
    VV10 Nonlocal Energy =                  0.0000000000000000
    Total Energy =                       -237.4649446750435402

  UHF NO Occupations:
  HONO-2 :    2 B2 1.9987953
  HONO-1 :    6 A1 1.0000000
  HONO-0 :    7 A1 1.0000000
  LUNO+0 :    3 B2 0.0012047
  LUNO+1 :    3 B1 0.0012047
  LUNO+2 :    8 A1 0.0005087
  LUNO+3 :    9 A1 0.0000010

Computation Completed

Properties will be evaluated at   0.000000,   0.000000,   0.000000 [a0]

Properties computed using the SCF density matrix

 Multipole Moments:

 ------------------------------------------------------------------------------------
     Multipole            Electronic (a.u.)      Nuclear  (a.u.)        Total (a.u.)
 ------------------------------------------------------------------------------------

 L = 1.  Multiply by 2.5417464519 to convert [e a0] to [Debye]
 Dipole X            :          0.0000000            0.0000000            0.0000000
 Dipole Y            :          0.0000000            0.0000000            0.0000000
 Dipole Z            :          0.3829456            0.7750625            1.1580081
 Magnitude           :                                                    1.1580081

 ------------------------------------------------------------------------------------

*** tstop() called on Joses-MacBook-Pro-2.local at Thu Jul 17 10:40:15 2025
Module time:
	user time   =       2.67 seconds =       0.04 minutes
	system time =       3.50 seconds =       0.06 minutes
	total time  =          1 seconds =       0.02 minutes
Total time:
	user time   =      54.98 seconds =       0.92 minutes
	system time =      68.90 seconds =       1.15 minutes
	total time  =         13 seconds =       0.22 minutes

*** tstart() called on Joses-MacBook-Pro-2.local
*** at Thu Jul 17 10:40:15 2025

         ------------------------------------------------------------
                                   SCF GRAD
                          Rob Parrish, Justin Turney,
                       Andy Simmonett, and Alex Sokolov
         ------------------------------------------------------------

  ==> Geometry <==

    Molecular point group: c2v
    Full point group: C_inf_v

    Geometry (in Angstrom), charge = -1, multiplicity = 3:

       Center              X                  Y                   Z               Mass
    ------------   -----------------  -----------------  -----------------  -----------------
         O            0.000000000000     0.000000000000     1.182472821527    15.994914619570
         NA           0.000000000000     0.000000000000    -0.822694285805    22.989769282000

  Nuclear repulsion =   23.223797342710824

  ==> Basis Set <==

  Basis Set: CC-PVDZ
    Blend: CC-PVDZ
    Number of shells: 14
    Number of basis functions: 32
    Number of Cartesian functions: 34
    Spherical Harmonics?: true
    Max angular momentum: 2

  ==> DFJKGrad: Density-Fitted SCF Gradients <==

    Gradient:                    1
    J tasked:                  Yes
    K tasked:                  Yes
    wK tasked:                  No
    OpenMP threads:              1
    Integrals threads:           1
    Memory [MiB]:              375
    Schwarz Cutoff:          1E-12
    Fitting Condition:       1E-10

   => Auxiliary Basis Set <=

  Basis Set: (CC-PVDZ AUX)
    Blend: CC-PVDZ-JKFIT + DEF2-UNIVERSAL-JKFIT
    Number of shells: 58
    Number of basis functions: 182
    Number of Cartesian functions: 218
    Spherical Harmonics?: true
    Max angular momentum: 4

  ==> DFT Potential <==

   => LibXC <=

    Version 6.2.2
    S. Lehtola, C. Steigemann, M. J.T. Oliveira, and M. A.L. Marques.,  SoftwareX 7, 1â€“5 (2018) (10.1016/j.softx.2017.11.002)

   => Composite Functional: B3LYP <=

    B3LYP Hyb-GGA Exchange-Correlation Functional

    P. J. Stephens, F. J. Devlin, C. F. Chabalowski, and M. J. Frisch.,  J. Phys. Chem. 98, 11623 (1994) (10.1021/j100096a001)

    Deriv               =              1
    GGA                 =           TRUE
    Meta                =          FALSE

    Exchange Hybrid     =           TRUE
    MP2 Hybrid          =          FALSE

   => Exchange Functionals <=

    0.0800   Slater exchange
    0.7200         Becke 88

   => Exact (HF) Exchange <=

    0.2000               HF

   => Correlation Functionals <=

    0.1900   Vosko, Wilk & Nusair (VWN5_RPA)
    0.8100   Lee, Yang & Parr

   => LibXC Density Thresholds  <==

    XC_HYB_GGA_XC_B3LYP:  1.00E-15

   => Molecular Quadrature <=

    Radial Scheme          =       TREUTLER
    Pruning Scheme         =           NONE
    Nuclear Scheme         =       TREUTLER

    Blocking Scheme        =         OCTREE
    BS radius alpha        =              1
    Pruning alpha          =              1
    Radial Points          =             75
    Spherical Points       =            302
    Total Points           =          43783
    Total Blocks           =            424
    Max Points             =            256
    Max Functions          =             32
    Weights Tolerance      =       1.00E-15

  -Total Gradient:
     Atom            X                  Y                   Z
    ------   -----------------  -----------------  -----------------
       1        0.000000000000    -0.000000000000    -0.000131137377
       2       -0.000000000000     0.000000000000     0.000034073711

*** tstop() called on Joses-MacBook-Pro-2.local at Thu Jul 17 10:40:15 2025
Module time:
	user time   =       1.16 seconds =       0.02 minutes
	system time =       1.60 seconds =       0.03 minutes
	total time  =          0 seconds =       0.00 minutes
Total time:
	user time   =      56.14 seconds =       0.94 minutes
	system time =      70.50 seconds =       1.18 minutes
	total time  =         13 seconds =       0.22 minutes

    			-----------------------------------------

    			 OPTKING 3.0: for geometry optimizations

    			     By R.A. King, Bethel University

    			        with contributions from

    			    A.V. Copan, J. Cayton, A. Heide

    			-----------------------------------------

	                            ===> Fragment 1 <==

	 Z (Atomic Numbers)          Masses                          Geom
	       8.000000            15.994915          0.00000000  0.00000000  2.23454978
	      11.000000            22.989769          0.00000000  0.00000000 -1.55466689

	 - Coordinate -           - BOHR/RAD -       - ANG/DEG -
	 R(1,2)           =         3.789217           2.005167

	        --- Internal Coordinate Step in ANG or DEG, aJ/ANG or AJ/DEG ---
	-------------------------------------------------------------------------------
	           Coordinate      Previous         Force          Change          New
	           ----------      --------        ------          ------        ------
	               R(1,2)       2.00517        0.00068        0.00050       2.00567
	-------------------------------------------------------------------------------

	                                 ==> Convergence Check <==

	Measures of convergence in internal coordinates in au.

	Criteria marked as inactive (o), active & met (*), and active & unmet ( ).

	----------------------------------------------------------------------------------------------
	   Step    Total Energy     Delta E     Max Force     RMS Force      Max Disp      RMS Disp
	----------------------------------------------------------------------------------------------
	  Convergence Criteria     1.00e-06 *    3.00e-04 *             o    1.20e-03 *             o
	----------------------------------------------------------------------------------------------
	    12    -237.46494468   -6.58e-07 *    8.26e-05 *    8.26e-05 o    9.45e-04 *    9.45e-04 o  ~
	----------------------------------------------------------------------------------------------

Next Geometry in Ang
	Fragment 1 (Ang)

	    O   0.0000000000   0.0000000000   1.1827229136
	   Na   0.0000000000   0.0000000000  -0.8229443778

    Final optimized geometry and variables:
    Molecular point group: c2v
    Full point group: C_inf_v

    Geometry (in Angstrom), charge = -1, multiplicity = 3:

    O            0.000000000000     0.000000000000     1.182472821527
    NA           0.000000000000     0.000000000000    -0.822694285805

    Psi4 stopped on: Thursday, 17 July 2025 10:40AM
    Psi4 wall time for execution: 0:00:13.83

*** Psi4 exiting successfully. Buy a developer a beer!
