                               Psi4 1.9.1 release

  ==> Input File <==

--------------------------------------------------------------------------
molecule {
-1 3
C   0.00000        0.60000        0.00000
P   0.00000       -0.60000        0.00000
}

set {
basis              cc-pvdz
reference          uks
maxiter            500
geom_maxiter       500
DAMPING_PERCENTAGE 1
guess              SAP
}

optimize('b3lyp')
--------------------------------------------------------------------------

    Molecular point group: c2v
  Charge       = -1
  Multiplicity = 3
  Basis Set: CC-PVDZ
    Blend: CC-PVDZ
  Basis Set: (CC-PVDZ AUX)
    Blend: CC-PVDZ-JKFIT
  @DF-UKS Final Energy:  -378.95338216599185
    Total Energy =                       -378.9533821659917976
 Dipole X            :          0.0000000            0.0000000            0.0000000
 Dipole Y            :          0.0000000            0.0000000            0.0000000
 Dipole Z            :         -0.3479229            0.3083052           -0.0396178
 Magnitude           :                                                    0.0396178
    Molecular point group: c2v
  Basis Set: CC-PVDZ
    Blend: CC-PVDZ
  Basis Set: (CC-PVDZ AUX)
    Blend: CC-PVDZ-JKFIT
  Basis Set: CC-PVDZ
    Blend: CC-PVDZ
  Basis Set: (CC-PVDZ AUX)
    Blend: CC-PVDZ-JKFIT
  @DF-UKS Final Energy:  -379.15722421363603
    Total Energy =                       -379.1572242136360273
  Basis Set: CC-PVDZ
    Blend: CC-PVDZ
  Basis Set: (CC-PVDZ AUX)
    Blend: CC-PVDZ-JKFIT
  Basis Set: CC-PVDZ
    Blend: CC-PVDZ
  @DF-UKS Final Energy:  -379.24441704451959
    Total Energy =                       -379.2444170445195937
  @DF-UKS Final Energy:  -379.27037215667872
    Total Energy =                       -379.2703721566787181
  @DF-UKS Final Energy:  -379.28261633739146
    Total Energy =                       -379.2826163373915165
  @DF-UKS Final Energy:  -379.28598536637685
    Total Energy =                       -379.2859853663768490
  @DF-UKS Final Energy:  -379.28731965727172
    Total Energy =                       -379.2873196572717234
  @DF-UKS Final Energy:  -379.28757255334745
    Total Energy =                       -379.2875725533474451
  @DF-UKS Final Energy:  -379.28763087064215
    Total Energy =                       -379.2876308706422037
  Basis Set: (CC-PVDZ AUX)
    Blend: CC-PVDZ-JKFIT
  Basis Set: CC-PVDZ
    Blend: CC-PVDZ
  Basis Set: (CC-PVDZ AUX)
    Blend: CC-PVDZ-JKFIT
  @DF-UKS Final Energy:  -379.28763827192660
    Total Energy =                       -379.2876382719265962
  Basis Set: CC-PVDZ
    Blend: CC-PVDZ
  Basis Set: (CC-PVDZ AUX)
    Blend: CC-PVDZ-JKFIT
  Charge       = -1
  Multiplicity = 3
  Basis Set: CC-PVDZ
    Blend: CC-PVDZ
  Basis Set: (CC-PVDZ AUX)
    Blend: CC-PVDZ-JKFIT

    Orbital Energies [Eh]
    ---------------------

    Alpha Occupied:

       1A1   -76.815505     2A1    -9.971322     3A1    -6.283263
       4A1    -4.448326     1B1    -4.443896     1B2    -4.441341
       5A1    -0.426812     6A1    -0.199757     7A1    -0.052609
       2B2    -0.026853     2B1    -0.013184     3B2     0.122406

    Alpha Virtual:

       3B1     0.187071     8A1     0.339114     9A1     0.603018
      10A1     0.643097     4B1     0.659214     4B2     0.661715
      11A1     0.701302     1A2     0.748085    12A1     0.749300
       5B2     0.752501     5B1     0.764030     6B2     0.800157
       6B1     0.802251    13A1     1.090150    14A1     1.207502
       2A2     1.434524    15A1     1.436158     7B2     1.643816
       7B1     1.644595    16A1     2.008624

    Beta Occupied:

       1A1   -76.813356     2A1    -9.949203     3A1    -6.281082
       1B1    -4.444265     4A1    -4.442559     1B2    -4.436418
       5A1    -0.383410     6A1    -0.131544     2B1     0.001592
       2B2     0.025336

    Beta Virtual:

       7A1     0.095333     3B1     0.213622     3B2     0.239487
       8A1     0.360158     9A1     0.616694     4B1     0.660111
       4B2     0.677162    10A1     0.697849    11A1     0.736823
       1A2     0.759469    12A1     0.760177     5B1     0.789967
       5B2     0.810047     6B1     0.819712     6B2     0.841592
      13A1     1.130277    14A1     1.243817     2A2     1.488947
      15A1     1.489018     7B1     1.696365     7B2     1.718277
      16A1     2.073898

    Final Occupation by Irrep:
             A1    A2    B1    B2
    DOCC [     6,    0,    2,    2 ]
    SOCC [     1,    0,    0,    1 ]
    NA   [     7,    0,    2,    3 ]
    NB   [     6,    0,    2,    2 ]

  @DF-UKS Final Energy:  -379.28763862701180

   => Energetics <=

    Nuclear Repulsion Energy =             28.4310233507750034
    One-Electron Energy =                -585.0277323631364652
    Two-Electron Energy =                 200.5122149020024551
    DFT Exchange-Correlation Energy =     -23.2031445166527917
    Empirical Dispersion Energy =           0.0000000000000000
    VV10 Nonlocal Energy =                  0.0000000000000000
    Total Energy =                       -379.2876386270117450

  UHF NO Occupations:
  HONO-2 :    2 B1 1.9897163
  HONO-1 :    3 B2 1.0000000
  HONO-0 :    7 A1 1.0000000
  LUNO+0 :    3 B1 0.0102837
  LUNO+1 :    4 B2 0.0015243
  LUNO+2 :    8 A1 0.0009967
  LUNO+3 :    9 A1 0.0004046

Computation Completed

Properties will be evaluated at   0.000000,   0.000000,   0.000000 [a0]

Properties computed using the SCF density matrix

 Multipole Moments:

 ------------------------------------------------------------------------------------
     Multipole            Electronic (a.u.)      Nuclear  (a.u.)        Total (a.u.)
 ------------------------------------------------------------------------------------

 L = 1.  Multiply by 2.5417464519 to convert [e a0] to [Debye]
 Dipole X            :          0.0000000            0.0000000            0.0000000
 Dipole Y            :          0.0000000            0.0000000            0.0000000
 Dipole Z            :         -0.8756600            0.4303786           -0.4452813
 Magnitude           :                                                    0.4452813

 ------------------------------------------------------------------------------------

*** tstop() called on Joses-MacBook-Pro-2.local at Thu Jul 17 10:21:24 2025
Module time:
	user time   =       5.51 seconds =       0.09 minutes
	system time =       2.94 seconds =       0.05 minutes
	total time  =          1 seconds =       0.02 minutes
Total time:
	user time   =      71.41 seconds =       1.19 minutes
	system time =      53.22 seconds =       0.89 minutes
	total time  =         13 seconds =       0.22 minutes

*** tstart() called on Joses-MacBook-Pro-2.local
*** at Thu Jul 17 10:21:24 2025

         ------------------------------------------------------------
                                   SCF GRAD
                          Rob Parrish, Justin Turney,
                       Andy Simmonett, and Alex Sokolov
         ------------------------------------------------------------

  ==> Geometry <==

    Molecular point group: c2v
    Full point group: C_inf_v

    Geometry (in Angstrom), charge = -1, multiplicity = 3:

       Center              X                  Y                   Z               Mass
    ------------   -----------------  -----------------  -----------------  -----------------
         C            0.000000000000     0.000000000000     1.207373759441    12.000000000000
         P            0.000000000000     0.000000000000    -0.467766398994    30.973761998420

  Nuclear repulsion =   28.431023350775003

  ==> Basis Set <==

  Basis Set: CC-PVDZ
    Blend: CC-PVDZ
    Number of shells: 14
    Number of basis functions: 32
    Number of Cartesian functions: 34
    Spherical Harmonics?: true
    Max angular momentum: 2

  ==> DFJKGrad: Density-Fitted SCF Gradients <==

    Gradient:                    1
    J tasked:                  Yes
    K tasked:                  Yes
    wK tasked:                  No
    OpenMP threads:              1
    Integrals threads:           1
    Memory [MiB]:              375
    Schwarz Cutoff:          1E-12
    Fitting Condition:       1E-10

   => Auxiliary Basis Set <=

  Basis Set: (CC-PVDZ AUX)
    Blend: CC-PVDZ-JKFIT
    Number of shells: 60
    Number of basis functions: 182
    Number of Cartesian functions: 211
    Spherical Harmonics?: true
    Max angular momentum: 3

  ==> DFT Potential <==

   => LibXC <=

    Version 6.2.2
    S. Lehtola, C. Steigemann, M. J.T. Oliveira, and M. A.L. Marques.,  SoftwareX 7, 1â€“5 (2018) (10.1016/j.softx.2017.11.002)

   => Composite Functional: B3LYP <=

    B3LYP Hyb-GGA Exchange-Correlation Functional

    P. J. Stephens, F. J. Devlin, C. F. Chabalowski, and M. J. Frisch.,  J. Phys. Chem. 98, 11623 (1994) (10.1021/j100096a001)

    Deriv               =              1
    GGA                 =           TRUE
    Meta                =          FALSE

    Exchange Hybrid     =           TRUE
    MP2 Hybrid          =          FALSE

   => Exchange Functionals <=

    0.0800   Slater exchange
    0.7200         Becke 88

   => Exact (HF) Exchange <=

    0.2000               HF

   => Correlation Functionals <=

    0.1900   Vosko, Wilk & Nusair (VWN5_RPA)
    0.8100   Lee, Yang & Parr

   => LibXC Density Thresholds  <==

    XC_HYB_GGA_XC_B3LYP:  1.00E-15

   => Molecular Quadrature <=

    Radial Scheme          =       TREUTLER
    Pruning Scheme         =           NONE
    Nuclear Scheme         =       TREUTLER

    Blocking Scheme        =         OCTREE
    BS radius alpha        =              1
    Pruning alpha          =              1
    Radial Points          =             75
    Spherical Points       =            302
    Total Points           =          41901
    Total Blocks           =            377
    Max Points             =            256
    Max Functions          =             32
    Weights Tolerance      =       1.00E-15

  -Total Gradient:
     Atom            X                  Y                   Z
    ------   -----------------  -----------------  -----------------
       1        0.000000000000    -0.000000000000    -0.000073635889
       2        0.000000000000     0.000000000000     0.000057384111

*** tstop() called on Joses-MacBook-Pro-2.local at Thu Jul 17 10:21:24 2025
Module time:
	user time   =       2.42 seconds =       0.04 minutes
	system time =       0.70 seconds =       0.01 minutes
	total time  =          0 seconds =       0.00 minutes
Total time:
	user time   =      73.83 seconds =       1.23 minutes
	system time =      53.93 seconds =       0.90 minutes
	total time  =         13 seconds =       0.22 minutes

    			-----------------------------------------

    			 OPTKING 3.0: for geometry optimizations

    			     By R.A. King, Bethel University

    			        with contributions from

    			    A.V. Copan, J. Cayton, A. Heide

    			-----------------------------------------

	                            ===> Fragment 1 <==

	 Z (Atomic Numbers)          Masses                          Geom
	       6.000000            12.000000          0.00000000  0.00000000  2.28160574
	      15.000000            30.973762          0.00000000  0.00000000 -0.88395038

	 - Coordinate -           - BOHR/RAD -       - ANG/DEG -
	 R(1,2)           =         3.165556           1.675140

	        --- Internal Coordinate Step in ANG or DEG, aJ/ANG or AJ/DEG ---
	-------------------------------------------------------------------------------
	           Coordinate      Previous         Force          Change          New
	           ----------      --------        ------          ------        ------
	               R(1,2)       1.67514        0.00054        0.00010       1.67524
	-------------------------------------------------------------------------------

	                                 ==> Convergence Check <==

	Measures of convergence in internal coordinates in au.

	Criteria marked as inactive (o), active & met (*), and active & unmet ( ).

	----------------------------------------------------------------------------------------------
	   Step    Total Energy     Delta E     Max Force     RMS Force      Max Disp      RMS Disp
	----------------------------------------------------------------------------------------------
	  Convergence Criteria     1.00e-06 *    3.00e-04 *             o    1.20e-03 *             o
	----------------------------------------------------------------------------------------------
	    11    -379.28763863   -3.55e-07 *    6.55e-05 *    6.55e-05 o    1.93e-04 *    1.93e-04 o  ~
	----------------------------------------------------------------------------------------------

Next Geometry in Ang
	Fragment 1 (Ang)

	    C   0.0000000000   0.0000000000   1.2074248020
	    P   0.0000000000   0.0000000000  -0.4678174415

    Final optimized geometry and variables:
    Molecular point group: c2v
    Full point group: C_inf_v

    Geometry (in Angstrom), charge = -1, multiplicity = 3:

    C            0.000000000000     0.000000000000     1.207373759441
    P            0.000000000000     0.000000000000    -0.467766398994

    Psi4 stopped on: Thursday, 17 July 2025 10:21AM
    Psi4 wall time for execution: 0:00:13.97

*** Psi4 exiting successfully. Buy a developer a beer!
