                               Psi4 1.9.1 release

  ==> Input File <==

--------------------------------------------------------------------------
molecule {
-1 3
Cl   0.00000        0.60000        0.00000
Ar   0.00000       -0.60000        0.00000
}

set {
basis              cc-pvdz
reference          uks
maxiter            500
geom_maxiter       500
DAMPING_PERCENTAGE 1
guess              SAP
}

optimize('b3lyp')
--------------------------------------------------------------------------

    Molecular point group: c2v
  Charge       = -1
  Multiplicity = 3
  Basis Set: CC-PVDZ
    Blend: CC-PVDZ
  Basis Set: (CC-PVDZ AUX)
    Blend: CC-PVDZ-JKFIT
  @DF-UKS Final Energy:  -985.70411302568095
    Total Energy =                       -985.7041130256809538
 Dipole X            :          0.0000000            0.0000000            0.0000000
 Dipole Y            :          0.0000000            0.0000000            0.0000000
 Dipole Z            :         -2.1370266            1.5107824           -0.6262442
 Magnitude           :                                                    0.6262442
    Molecular point group: c2v
  Basis Set: CC-PVDZ
    Blend: CC-PVDZ
  Basis Set: (CC-PVDZ AUX)
    Blend: CC-PVDZ-JKFIT
  Basis Set: CC-PVDZ
    Blend: CC-PVDZ
  Basis Set: (CC-PVDZ AUX)
    Blend: CC-PVDZ-JKFIT
  @DF-UKS Final Energy:  -985.75516679960924
    Total Energy =                       -985.7551667996092419
  Basis Set: CC-PVDZ
    Blend: CC-PVDZ
  Basis Set: (CC-PVDZ AUX)
    Blend: CC-PVDZ-JKFIT
  Basis Set: CC-PVDZ
    Blend: CC-PVDZ
  @DF-UKS Final Energy:  -985.84826963920568
    Total Energy =                       -985.8482696392056823
  @DF-UKS Final Energy:  -986.13898464504211
    Total Energy =                       -986.1389846450421146
  @DF-UKS Final Energy:  -986.64904488233333
    Total Energy =                       -986.6490448823333281
  @DF-UKS Final Energy:  -986.83858998925461
    Total Energy =                       -986.8385899892546149
  @DF-UKS Final Energy:  -986.96015930696888
    Total Energy =                       -986.9601593069688761
  @DF-UKS Final Energy:  -987.00705948606310
    Total Energy =                       -987.0070594860630990
  @DF-UKS Final Energy:  -987.02529239482772
    Total Energy =                       -987.0252923948277157
  @DF-UKS Final Energy:  -987.03114010153513
    Total Energy =                       -987.0311401015351294
  @DF-UKS Final Energy:  -987.03282407561528
    Total Energy =                       -987.0328240756152809
  @DF-UKS Final Energy:  -987.03737460616651
    Total Energy =                       -987.0373746061665088
  @DF-UKS Final Energy:  -987.09133040942152
    Total Energy =                       -987.0913304094215164
  @DF-UKS Final Energy:  -987.09213656513418
    Total Energy =                       -987.0921365651341830
  @DF-UKS Final Energy:  -987.09538944653298
    Total Energy =                       -987.0953894465329768
  @DF-UKS Final Energy:  -987.09554097696537
    Total Energy =                       -987.0955409769653670
  Basis Set: (CC-PVDZ AUX)
    Blend: CC-PVDZ-JKFIT
  Basis Set: CC-PVDZ
    Blend: CC-PVDZ
  Basis Set: (CC-PVDZ AUX)
    Blend: CC-PVDZ-JKFIT
  @DF-UKS Final Energy:  -987.09554695273255
    Total Energy =                       -987.0955469527325477
  Basis Set: CC-PVDZ
    Blend: CC-PVDZ
  Basis Set: (CC-PVDZ AUX)
    Blend: CC-PVDZ-JKFIT
  Charge       = -1
  Multiplicity = 3
  Basis Set: CC-PVDZ
    Blend: CC-PVDZ
  Basis Set: (CC-PVDZ AUX)
    Blend: CC-PVDZ-JKFIT

    Orbital Energies [Eh]
    ---------------------

    Alpha Occupied:

       1A1  -114.856173     2A1  -101.232324     3A1   -10.901325
       4A1    -9.160748     5A1    -8.451934     1B2    -8.450252
       1B1    -8.450252     6A1    -6.931054     2B1    -6.911419
       2B2    -6.911419     7A1    -0.756858     8A1    -0.541484
       9A1    -0.236441     3B2    -0.214436     3B1    -0.214436
      10A1    -0.068257     4B2    -0.059343     4B1    -0.059343
      11A1     0.683998

    Alpha Virtual:

       5B1     0.738792     5B2     0.738792    12A1     0.813992
       6B1     0.821288     6B2     0.821288    13A1     0.845785
      14A1     0.907196     7B2     0.983345     7B1     0.983345
      15A1     0.998198    16A1     1.006898     1A2     1.006902
       2A2     1.048794    17A1     1.048801     8B2     1.079186
       8B1     1.079186    18A1     1.439760

    Beta Occupied:

       1A1  -114.852079     2A1  -101.221351     3A1   -10.897228
       4A1    -9.149683     1B2    -8.447656     1B1    -8.447656
       5A1    -8.441047     2B1    -6.904558     2B2    -6.904558
       6A1    -6.898287     7A1    -0.742324     8A1    -0.481698
       3B2    -0.208248     3B1    -0.208248     9A1    -0.198897
       4B2    -0.038593     4B1    -0.038593

    Beta Virtual:

      10A1     0.093015     5B1     0.751292     5B2     0.751292
      11A1     0.794794     6B1     0.837520     6B2     0.837520
      12A1     0.845130    13A1     0.908539    14A1     0.980355
      15A1     1.015352    16A1     1.019296     1A2     1.019300
       7B2     1.029339     7B1     1.029339     2A2     1.052860
      17A1     1.052867     8B2     1.102085     8B1     1.102085
      18A1     1.465967

    Final Occupation by Irrep:
             A1    A2    B1    B2
    DOCC [     9,    0,    4,    4 ]
    SOCC [     2,    0,    0,    0 ]
    NA   [    11,    0,    4,    4 ]
    NB   [     9,    0,    4,    4 ]

  @DF-UKS Final Energy:  -987.09554717471804

   => Energetics <=

    Nuclear Repulsion Energy =             65.1133578858320163
    One-Electron Energy =               -1502.5867555771710613
    Two-Electron Energy =                 498.2869415651488794
    DFT Exchange-Correlation Energy =     -47.9090910485279053
    Empirical Dispersion Energy =           0.0000000000000000
    VV10 Nonlocal Energy =                  0.0000000000000000
    Total Energy =                       -987.0955471747179217

  UHF NO Occupations:
  HONO-2 :    9 A1 1.9991259
  HONO-1 :   10 A1 1.0000000
  HONO-0 :   11 A1 1.0000000
  LUNO+0 :   12 A1 0.0008741
  LUNO+1 :   13 A1 0.0001495
  LUNO+2 :    5 B1 0.0000677
  LUNO+3 :    5 B2 0.0000677

Computation Completed

Properties will be evaluated at   0.000000,   0.000000,   0.000000 [a0]

Properties computed using the SCF density matrix

 Multipole Moments:

 ------------------------------------------------------------------------------------
     Multipole            Electronic (a.u.)      Nuclear  (a.u.)        Total (a.u.)
 ------------------------------------------------------------------------------------

 L = 1.  Multiply by 2.5417464519 to convert [e a0] to [Debye]
 Dipole X            :          0.0000000            0.0000000            0.0000000
 Dipole Y            :          0.0000000            0.0000000            0.0000000
 Dipole Z            :         -4.6217204            3.1309285           -1.4907919
 Magnitude           :                                                    1.4907919

 ------------------------------------------------------------------------------------

*** tstop() called on Joses-MacBook-Pro-2.local at Thu Jul 17 12:11:47 2025
Module time:
	user time   =       6.38 seconds =       0.11 minutes
	system time =       1.92 seconds =       0.03 minutes
	total time  =          1 seconds =       0.02 minutes
Total time:
	user time   =     298.26 seconds =       4.97 minutes
	system time =      50.67 seconds =       0.84 minutes
	total time  =         33 seconds =       0.55 minutes

*** tstart() called on Joses-MacBook-Pro-2.local
*** at Thu Jul 17 12:11:47 2025

         ------------------------------------------------------------
                                   SCF GRAD
                          Rob Parrish, Justin Turney,
                       Andy Simmonett, and Alex Sokolov
         ------------------------------------------------------------

  ==> Geometry <==

    Molecular point group: c2v
    Full point group: C_inf_v

    Geometry (in Angstrom), charge = -1, multiplicity = 3:

       Center              X                  Y                   Z               Mass
    ------------   -----------------  -----------------  -----------------  -----------------
         CL           0.000000000000     0.000000000000     1.326297498989    34.968852682000
         AR           0.000000000000     0.000000000000    -1.160568970852    39.962383123700

  Nuclear repulsion =   65.113357885832016

  ==> Basis Set <==

  Basis Set: CC-PVDZ
    Blend: CC-PVDZ
    Number of shells: 16
    Number of basis functions: 36
    Number of Cartesian functions: 38
    Spherical Harmonics?: true
    Max angular momentum: 2

  ==> DFJKGrad: Density-Fitted SCF Gradients <==

    Gradient:                    1
    J tasked:                  Yes
    K tasked:                  Yes
    wK tasked:                  No
    OpenMP threads:              1
    Integrals threads:           1
    Memory [MiB]:              375
    Schwarz Cutoff:          1E-12
    Fitting Condition:       1E-10

   => Auxiliary Basis Set <=

  Basis Set: (CC-PVDZ AUX)
    Blend: CC-PVDZ-JKFIT
    Number of shells: 72
    Number of basis functions: 224
    Number of Cartesian functions: 260
    Spherical Harmonics?: true
    Max angular momentum: 3

  ==> DFT Potential <==

   => LibXC <=

    Version 6.2.2
    S. Lehtola, C. Steigemann, M. J.T. Oliveira, and M. A.L. Marques.,  SoftwareX 7, 1â€“5 (2018) (10.1016/j.softx.2017.11.002)

   => Composite Functional: B3LYP <=

    B3LYP Hyb-GGA Exchange-Correlation Functional

    P. J. Stephens, F. J. Devlin, C. F. Chabalowski, and M. J. Frisch.,  J. Phys. Chem. 98, 11623 (1994) (10.1021/j100096a001)

    Deriv               =              1
    GGA                 =           TRUE
    Meta                =          FALSE

    Exchange Hybrid     =           TRUE
    MP2 Hybrid          =          FALSE

   => Exchange Functionals <=

    0.0800   Slater exchange
    0.7200         Becke 88

   => Exact (HF) Exchange <=

    0.2000               HF

   => Correlation Functionals <=

    0.1900   Vosko, Wilk & Nusair (VWN5_RPA)
    0.8100   Lee, Yang & Parr

   => LibXC Density Thresholds  <==

    XC_HYB_GGA_XC_B3LYP:  1.00E-15

   => Molecular Quadrature <=

    Radial Scheme          =       TREUTLER
    Pruning Scheme         =           NONE
    Nuclear Scheme         =       TREUTLER

    Blocking Scheme        =         OCTREE
    BS radius alpha        =              1
    Pruning alpha          =              1
    Radial Points          =             75
    Spherical Points       =            302
    Total Points           =          39740
    Total Blocks           =            360
    Max Points             =            253
    Max Functions          =             36
    Weights Tolerance      =       1.00E-15

  -Total Gradient:
     Atom            X                  Y                   Z
    ------   -----------------  -----------------  -----------------
       1        0.000000000000    -0.000000000000    -0.000038747364
       2        0.000000000000     0.000000000000     0.000047072011

*** tstop() called on Joses-MacBook-Pro-2.local at Thu Jul 17 12:11:48 2025
Module time:
	user time   =       2.28 seconds =       0.04 minutes
	system time =       1.50 seconds =       0.03 minutes
	total time  =          1 seconds =       0.02 minutes
Total time:
	user time   =     300.54 seconds =       5.01 minutes
	system time =      52.17 seconds =       0.87 minutes
	total time  =         34 seconds =       0.57 minutes

    			-----------------------------------------

    			 OPTKING 3.0: for geometry optimizations

    			     By R.A. King, Bethel University

    			        with contributions from

    			    A.V. Copan, J. Cayton, A. Heide

    			-----------------------------------------

	                            ===> Fragment 1 <==

	 Z (Atomic Numbers)          Masses                          Geom
	      17.000000            34.968853          0.00000000  0.00000000  2.50633903
	      18.000000            39.962383          0.00000000  0.00000000 -2.19315750

	 - Coordinate -           - BOHR/RAD -       - ANG/DEG -
	 R(1,2)           =         4.699497           2.486866

	        --- Internal Coordinate Step in ANG or DEG, aJ/ANG or AJ/DEG ---
	-------------------------------------------------------------------------------
	           Coordinate      Previous         Force          Change          New
	           ----------      --------        ------          ------        ------
	               R(1,2)       2.48687        0.00035        0.00022       2.48709
	-------------------------------------------------------------------------------

	                                 ==> Convergence Check <==

	Measures of convergence in internal coordinates in au.

	Criteria marked as inactive (o), active & met (*), and active & unmet ( ).

	----------------------------------------------------------------------------------------------
	   Step    Total Energy     Delta E     Max Force     RMS Force      Max Disp      RMS Disp
	----------------------------------------------------------------------------------------------
	  Convergence Criteria     1.00e-06 *    3.00e-04 *             o    1.20e-03 *             o
	----------------------------------------------------------------------------------------------
	    18    -987.09554717   -2.22e-07 *    4.29e-05 *    4.29e-05 o    4.18e-04 *    4.18e-04 o  ~
	----------------------------------------------------------------------------------------------

Next Geometry in Ang
	Fragment 1 (Ang)

	   Cl   0.0000000000   0.0000000000   1.3264079985
	   Ar   0.0000000000   0.0000000000  -1.1606794703

    Final optimized geometry and variables:
    Molecular point group: c2v
    Full point group: C_inf_v

    Geometry (in Angstrom), charge = -1, multiplicity = 3:

    CL           0.000000000000     0.000000000000     1.326297498989
    AR           0.000000000000     0.000000000000    -1.160568970852

    Psi4 stopped on: Thursday, 17 July 2025 12:11PM
    Psi4 wall time for execution: 0:00:34.57

*** Psi4 exiting successfully. Buy a developer a beer!
