                               Psi4 1.9.1 release

  ==> Input File <==

--------------------------------------------------------------------------
molecule {
-1 3
B   0.00000        0.60000        0.00000
Ne   0.00000       -0.60000        0.00000
}

set {
basis              cc-pvdz
reference          uks
maxiter            500
geom_maxiter       500
DAMPING_PERCENTAGE 1
guess              SAP
}

optimize('b3lyp')
--------------------------------------------------------------------------

    Molecular point group: c2v
  Charge       = -1
  Multiplicity = 3
  Basis Set: CC-PVDZ
    Blend: CC-PVDZ
  Basis Set: (CC-PVDZ AUX)
    Blend: CC-PVDZ-JKFIT
  @DF-UKS Final Energy:  -153.33876075392112
    Total Energy =                       -153.3387607539211501
 Dipole X            :          0.0000000            0.0000000            0.0000000
 Dipole Y            :          0.0000000            0.0000000            0.0000000
 Dipole Z            :         -2.2392118           -0.7410371           -2.9802489
 Magnitude           :                                                    2.9802489
    Molecular point group: c2v
  Basis Set: CC-PVDZ
    Blend: CC-PVDZ
  Basis Set: (CC-PVDZ AUX)
    Blend: CC-PVDZ-JKFIT
  Basis Set: CC-PVDZ
    Blend: CC-PVDZ
  Basis Set: (CC-PVDZ AUX)
    Blend: CC-PVDZ-JKFIT
  @DF-UKS Final Energy:  -153.43427134276681
    Total Energy =                       -153.4342713427668059
  Basis Set: CC-PVDZ
    Blend: CC-PVDZ
  Basis Set: (CC-PVDZ AUX)
    Blend: CC-PVDZ-JKFIT
  Basis Set: CC-PVDZ
    Blend: CC-PVDZ
  @DF-UKS Final Energy:  -153.48043644441171
    Total Energy =                       -153.4804364444117084
  @DF-UKS Final Energy:  -153.51514900942669
    Total Energy =                       -153.5151490094266933
  @DF-UKS Final Energy:  -153.53670566189314
    Total Energy =                       -153.5367056618931372
  @DF-UKS Final Energy:  -153.54863131413887
    Total Energy =                       -153.5486313141389019
  @DF-UKS Final Energy:  -153.55474989454794
    Total Energy =                       -153.5547498945479390
  @DF-UKS Final Energy:  -153.55773970883661
    Total Energy =                       -153.5577397088366070
  @DF-UKS Final Energy:  -153.55901843752889
    Total Energy =                       -153.5590184375288914
  @DF-UKS Final Energy:  -153.55947711580907
    Total Energy =                       -153.5594771158090737
  @DF-UKS Final Energy:  -153.55961018125689
    Total Energy =                       -153.5596101812568577
  @DF-UKS Final Energy:  -153.55963268574862
    Total Energy =                       -153.5596326857485963
  Basis Set: (CC-PVDZ AUX)
    Blend: CC-PVDZ-JKFIT
  Basis Set: CC-PVDZ
    Blend: CC-PVDZ
  Basis Set: (CC-PVDZ AUX)
    Blend: CC-PVDZ-JKFIT
  @DF-UKS Final Energy:  -153.55963787533000
    Total Energy =                       -153.5596378753299689
  Basis Set: CC-PVDZ
    Blend: CC-PVDZ
  Basis Set: (CC-PVDZ AUX)
    Blend: CC-PVDZ-JKFIT
  Charge       = -1
  Multiplicity = 3
  Basis Set: CC-PVDZ
    Blend: CC-PVDZ
  Basis Set: (CC-PVDZ AUX)
    Blend: CC-PVDZ-JKFIT

    Orbital Energies [Eh]
    ---------------------

    Alpha Occupied:

       1A1   -30.808819     2A1    -6.495584     3A1    -1.273658
       1B2    -0.382392     1B1    -0.382392     4A1    -0.381657
       5A1    -0.089203     2B1     0.120434     2B2     0.120434

    Alpha Virtual:

       6A1     0.198655     3B1     0.553536     3B2     0.553536
       7A1     0.583436     8A1     0.620724     9A1     0.986466
       1A2     0.986466     4B1     0.992805     4B2     0.992805
      10A1     0.998348     5B2     1.519514     5B1     1.519514
      11A1     1.567850    12A1     2.028304     2A2     4.883060
      13A1     4.883211     6B1     4.883786     6B2     4.883786
      14A1     4.884920

    Beta Occupied:

       1A1   -30.808790     2A1    -6.483844     3A1    -1.273615
       1B2    -0.382321     1B1    -0.382321     4A1    -0.381696
       5A1    -0.018444

    Beta Virtual:

       6A1     0.215000     2B1     0.242550     2B2     0.242550
       7A1     0.592607     3B2     0.612304     3B1     0.612304
       8A1     0.659718     9A1     1.024775     4B1     1.039357
       4B2     1.039357    10A1     1.067482     1A2     1.067482
       5B2     1.519592     5B1     1.519592    11A1     1.568717
      12A1     2.028963     2A2     4.883123    13A1     4.883275
       6B2     4.883811     6B1     4.883811    14A1     4.884936

    Final Occupation by Irrep:
             A1    A2    B1    B2
    DOCC [     5,    0,    1,    1 ]
    SOCC [     0,    0,    1,    1 ]
    NA   [     5,    0,    2,    2 ]
    NB   [     5,    0,    1,    1 ]

  @DF-UKS Final Energy:  -153.55963846338005

   => Energetics <=

    Nuclear Repulsion Energy =              8.4865124680695683
    One-Electron Energy =                -235.1346112098413528
    Two-Electron Energy =                  86.5435614344585247
    DFT Exchange-Correlation Energy =     -13.4551011560667941
    Empirical Dispersion Energy =           0.0000000000000000
    VV10 Nonlocal Energy =                  0.0000000000000000
    Total Energy =                       -153.5596384633800540

  UHF NO Occupations:
  HONO-2 :    5 A1 1.9988578
  HONO-1 :    2 B1 1.0000000
  HONO-0 :    2 B2 1.0000000
  LUNO+0 :    6 A1 0.0011422
  LUNO+1 :    7 A1 0.0000002
  LUNO+2 :    8 A1 0.0000000
  LUNO+3 :    3 B1 0.0000000

Computation Completed

Properties will be evaluated at   0.000000,   0.000000,   0.000000 [a0]

Properties computed using the SCF density matrix

 Multipole Moments:

 ------------------------------------------------------------------------------------
     Multipole            Electronic (a.u.)      Nuclear  (a.u.)        Total (a.u.)
 ------------------------------------------------------------------------------------

 L = 1.  Multiply by 2.5417464519 to convert [e a0] to [Debye]
 Dipole X            :          0.0000000            0.0000000            0.0000000
 Dipole Y            :          0.0000000            0.0000000            0.0000000
 Dipole Z            :         -1.9114677           -1.9253097           -3.8367775
 Magnitude           :                                                    3.8367775

 ------------------------------------------------------------------------------------

*** tstop() called on Joses-MacBook-Pro-2.local at Thu Jul 17 09:51:19 2025
Module time:
	user time   =       3.30 seconds =       0.05 minutes
	system time =       2.58 seconds =       0.04 minutes
	total time  =          1 seconds =       0.02 minutes
Total time:
	user time   =      55.98 seconds =       0.93 minutes
	system time =      66.17 seconds =       1.10 minutes
	total time  =         12 seconds =       0.20 minutes

*** tstart() called on Joses-MacBook-Pro-2.local
*** at Thu Jul 17 09:51:19 2025

         ------------------------------------------------------------
                                   SCF GRAD
                          Rob Parrish, Justin Turney,
                       Andy Simmonett, and Alex Sokolov
         ------------------------------------------------------------

  ==> Geometry <==

    Molecular point group: c2v
    Full point group: C_inf_v

    Geometry (in Angstrom), charge = -1, multiplicity = 3:

       Center              X                  Y                   Z               Mass
    ------------   -----------------  -----------------  -----------------  -----------------
         B            0.000000000000     0.000000000000     2.010580848397    11.009305360000
         NE           0.000000000000     0.000000000000    -1.107173427350    19.992440176200

  Nuclear repulsion =    8.486512468069568

  ==> Basis Set <==

  Basis Set: CC-PVDZ
    Blend: CC-PVDZ
    Number of shells: 12
    Number of basis functions: 28
    Number of Cartesian functions: 30
    Spherical Harmonics?: true
    Max angular momentum: 2

  ==> DFJKGrad: Density-Fitted SCF Gradients <==

    Gradient:                    1
    J tasked:                  Yes
    K tasked:                  Yes
    wK tasked:                  No
    OpenMP threads:              1
    Integrals threads:           1
    Memory [MiB]:              375
    Schwarz Cutoff:          1E-12
    Fitting Condition:       1E-10

   => Auxiliary Basis Set <=

  Basis Set: (CC-PVDZ AUX)
    Blend: CC-PVDZ-JKFIT
    Number of shells: 48
    Number of basis functions: 140
    Number of Cartesian functions: 162
    Spherical Harmonics?: true
    Max angular momentum: 3

  ==> DFT Potential <==

   => LibXC <=

    Version 6.2.2
    S. Lehtola, C. Steigemann, M. J.T. Oliveira, and M. A.L. Marques.,  SoftwareX 7, 1â€“5 (2018) (10.1016/j.softx.2017.11.002)

   => Composite Functional: B3LYP <=

    B3LYP Hyb-GGA Exchange-Correlation Functional

    P. J. Stephens, F. J. Devlin, C. F. Chabalowski, and M. J. Frisch.,  J. Phys. Chem. 98, 11623 (1994) (10.1021/j100096a001)

    Deriv               =              1
    GGA                 =           TRUE
    Meta                =          FALSE

    Exchange Hybrid     =           TRUE
    MP2 Hybrid          =          FALSE

   => Exchange Functionals <=

    0.0800   Slater exchange
    0.7200         Becke 88

   => Exact (HF) Exchange <=

    0.2000               HF

   => Correlation Functionals <=

    0.1900   Vosko, Wilk & Nusair (VWN5_RPA)
    0.8100   Lee, Yang & Parr

   => LibXC Density Thresholds  <==

    XC_HYB_GGA_XC_B3LYP:  1.00E-15

   => Molecular Quadrature <=

    Radial Scheme          =       TREUTLER
    Pruning Scheme         =           NONE
    Nuclear Scheme         =       TREUTLER

    Blocking Scheme        =         OCTREE
    BS radius alpha        =              1
    Pruning alpha          =              1
    Radial Points          =             75
    Spherical Points       =            302
    Total Points           =          43659
    Total Blocks           =            392
    Max Points             =            255
    Max Functions          =             28
    Weights Tolerance      =       1.00E-15

  -Total Gradient:
     Atom            X                  Y                   Z
    ------   -----------------  -----------------  -----------------
       1        0.000000000000     0.000000000000    -0.000007481980
       2        0.000000000000    -0.000000000000     0.000020427005

*** tstop() called on Joses-MacBook-Pro-2.local at Thu Jul 17 09:51:19 2025
Module time:
	user time   =       0.58 seconds =       0.01 minutes
	system time =       0.94 seconds =       0.02 minutes
	total time  =          0 seconds =       0.00 minutes
Total time:
	user time   =      56.57 seconds =       0.94 minutes
	system time =      67.11 seconds =       1.12 minutes
	total time  =         12 seconds =       0.20 minutes

    			-----------------------------------------

    			 OPTKING 3.0: for geometry optimizations

    			     By R.A. King, Bethel University

    			        with contributions from

    			    A.V. Copan, J. Cayton, A. Heide

    			-----------------------------------------

	                            ===> Fragment 1 <==

	 Z (Atomic Numbers)          Masses                          Geom
	       5.000000            11.009305          0.00000000  0.00000000  3.79944716
	      10.000000            19.992440          0.00000000  0.00000000 -2.09225455

	 - Coordinate -           - BOHR/RAD -       - ANG/DEG -
	 R(1,2)           =         5.891702           3.117754

	        --- Internal Coordinate Step in ANG or DEG, aJ/ANG or AJ/DEG ---
	-------------------------------------------------------------------------------
	           Coordinate      Previous         Force          Change          New
	           ----------      --------        ------          ------        ------
	               R(1,2)       3.11775        0.00011        0.00245       3.12021
	-------------------------------------------------------------------------------

	                                 ==> Convergence Check <==

	Measures of convergence in internal coordinates in au.

	Criteria marked as inactive (o), active & met (*), and active & unmet ( ).

	----------------------------------------------------------------------------------------------
	   Step    Total Energy     Delta E     Max Force     RMS Force      Max Disp      RMS Disp
	----------------------------------------------------------------------------------------------
	  Convergence Criteria     1.00e-06 *    3.00e-04 *             o    1.20e-03 *             o
	----------------------------------------------------------------------------------------------
	    14    -153.55963846   -5.88e-07 *    1.40e-05 *    1.40e-05 o    4.63e-03      4.63e-03 o  ~
	----------------------------------------------------------------------------------------------

Next Geometry in Ang
	Fragment 1 (Ang)

	    B   0.0000000000   0.0000000000   2.0118065230
	   Ne   0.0000000000   0.0000000000  -1.1083991020

    Final optimized geometry and variables:
    Molecular point group: c2v
    Full point group: C_inf_v

    Geometry (in Angstrom), charge = -1, multiplicity = 3:

    B            0.000000000000     0.000000000000     2.010580848397
    NE           0.000000000000     0.000000000000    -1.107173427350

    Psi4 stopped on: Thursday, 17 July 2025 09:51AM
    Psi4 wall time for execution: 0:00:12.22

*** Psi4 exiting successfully. Buy a developer a beer!
