                               Psi4 1.9.1 release

  ==> Input File <==

--------------------------------------------------------------------------
molecule {
-1 3
O   0.00000        0.60000        0.00000
Al   0.00000       -0.60000        0.00000
}

set {
basis              cc-pvdz
reference          uks
maxiter            500
geom_maxiter       500
DAMPING_PERCENTAGE 1
guess              SAP
}

optimize('b3lyp')
--------------------------------------------------------------------------

    Molecular point group: c2v
  Charge       = -1
  Multiplicity = 3
  Basis Set: CC-PVDZ
    Blend: CC-PVDZ
  Basis Set: (CC-PVDZ AUX)
    Blend: CC-PVDZ-JKFIT
  @DF-UKS Final Energy:  -317.26570047671964
    Total Energy =                       -317.2657004767196440
 Dipole X            :          0.0000000            0.0000000            0.0000000
 Dipole Y            :          0.0000000            0.0000000            0.0000000
 Dipole Z            :         -0.4770461            0.4178188           -0.0592273
 Magnitude           :                                                    0.0592273
    Molecular point group: c2v
  Basis Set: CC-PVDZ
    Blend: CC-PVDZ
  Basis Set: (CC-PVDZ AUX)
    Blend: CC-PVDZ-JKFIT
  Basis Set: CC-PVDZ
    Blend: CC-PVDZ
  Basis Set: (CC-PVDZ AUX)
    Blend: CC-PVDZ-JKFIT
  @DF-UKS Final Energy:  -317.47012238243013
    Total Energy =                       -317.4701223824301337
  Basis Set: CC-PVDZ
    Blend: CC-PVDZ
  Basis Set: (CC-PVDZ AUX)
    Blend: CC-PVDZ-JKFIT
  Basis Set: CC-PVDZ
    Blend: CC-PVDZ
  @DF-UKS Final Energy:  -317.55390532756792
    Total Energy =                       -317.5539053275679180
  @DF-UKS Final Energy:  -317.58206086255387
    Total Energy =                       -317.5820608625538739
  @DF-UKS Final Energy:  -317.59740692631135
    Total Energy =                       -317.5974069263114075
  @DF-UKS Final Energy:  -317.60212739624052
    Total Energy =                       -317.6021273962405189
  @DF-UKS Final Energy:  -317.60426819858162
    Total Energy =                       -317.6042681985816216
  @DF-UKS Final Energy:  -317.60478498884567
    Total Energy =                       -317.6047849888456653
  @DF-UKS Final Energy:  -317.60494351603904
    Total Energy =                       -317.6049435160390431
  Basis Set: (CC-PVDZ AUX)
    Blend: CC-PVDZ-JKFIT
  Basis Set: CC-PVDZ
    Blend: CC-PVDZ
  Basis Set: (CC-PVDZ AUX)
    Blend: CC-PVDZ-JKFIT
  @DF-UKS Final Energy:  -317.60497487432468
    Total Energy =                       -317.6049748743246823
  Basis Set: CC-PVDZ
    Blend: CC-PVDZ
  Basis Set: (CC-PVDZ AUX)
    Blend: CC-PVDZ-JKFIT
  Charge       = -1
  Multiplicity = 3
  Basis Set: CC-PVDZ
    Blend: CC-PVDZ
  Basis Set: (CC-PVDZ AUX)
    Blend: CC-PVDZ-JKFIT

    Orbital Energies [Eh]
    ---------------------

    Alpha Occupied:

       1A1   -55.829022     2A1   -18.877838     3A1    -3.912156
       1B1    -2.466114     4A1    -2.465072     1B2    -2.463585
       5A1    -0.653605     6A1    -0.146645     2B2    -0.060179
       2B1    -0.052471     7A1    -0.048602     3B2     0.101406

    Alpha Virtual:

       3B1     0.150905     8A1     0.223560     9A1     0.353656
       4B2     0.409670     4B1     0.415287     1A2     0.475900
      10A1     0.475949    11A1     0.479634     5B2     0.552710
       5B1     0.555029    12A1     0.756286    13A1     1.259104
       6B2     1.281542     6B1     1.282654    14A1     2.028159
       2A2     2.880769    15A1     2.880903     7B1     2.908671
       7B2     2.909425    16A1     3.060857

    Beta Occupied:

       1A1   -55.826455     2A1   -18.862194     3A1    -3.908715
       1B1    -2.464406     4A1    -2.459849     1B2    -2.458336
       5A1    -0.609491     6A1    -0.080812     2B1    -0.037259
       2B2    -0.024693

    Beta Virtual:

       7A1     0.065604     3B1     0.171482     3B2     0.190559
       8A1     0.240557     9A1     0.380212     4B1     0.426179
       4B2     0.443775    10A1     0.501762     1A2     0.509027
      11A1     0.515539     5B1     0.570329     5B2     0.588977
      12A1     0.777849     6B1     1.294799    13A1     1.303761
       6B2     1.304867    14A1     2.054264    15A1     2.900192
       2A2     2.900321     7B1     2.947374     7B2     2.957249
      16A1     3.107729

    Final Occupation by Irrep:
             A1    A2    B1    B2
    DOCC [     6,    0,    2,    2 ]
    SOCC [     1,    0,    0,    1 ]
    NA   [     7,    0,    2,    3 ]
    NB   [     6,    0,    2,    2 ]

  @DF-UKS Final Energy:  -317.60497765973480

   => Energetics <=

    Nuclear Repulsion Energy =             32.1200846171413517
    One-Electron Energy =                -510.0366307155493359
    Two-Electron Energy =                 182.4214181467651485
    DFT Exchange-Correlation Energy =     -22.1098497080919358
    Empirical Dispersion Energy =           0.0000000000000000
    VV10 Nonlocal Energy =                  0.0000000000000000
    Total Energy =                       -317.6049776597348000

  UHF NO Occupations:
  HONO-2 :    6 A1 1.9967711
  HONO-1 :    7 A1 1.0000000
  HONO-0 :    3 B2 1.0000000
  LUNO+0 :    8 A1 0.0032289
  LUNO+1 :    4 B2 0.0007055
  LUNO+2 :    3 B1 0.0003906
  LUNO+3 :    9 A1 0.0001115

Computation Completed

Properties will be evaluated at   0.000000,   0.000000,   0.000000 [a0]

Properties computed using the SCF density matrix

 Multipole Moments:

 ------------------------------------------------------------------------------------
     Multipole            Electronic (a.u.)      Nuclear  (a.u.)        Total (a.u.)
 ------------------------------------------------------------------------------------

 L = 1.  Multiply by 2.5417464519 to convert [e a0] to [Debye]
 Dipole X            :          0.0000000            0.0000000            0.0000000
 Dipole Y            :          0.0000000            0.0000000            0.0000000
 Dipole Z            :         -0.8309705            0.5965743           -0.2343963
 Magnitude           :                                                    0.2343963

 ------------------------------------------------------------------------------------

*** tstop() called on Joses-MacBook-Pro-2.local at Thu Jul 17 10:42:12 2025
Module time:
	user time   =       3.72 seconds =       0.06 minutes
	system time =       3.55 seconds =       0.06 minutes
	total time  =          1 seconds =       0.02 minutes
Total time:
	user time   =      58.51 seconds =       0.98 minutes
	system time =      71.09 seconds =       1.18 minutes
	total time  =         13 seconds =       0.22 minutes

*** tstart() called on Joses-MacBook-Pro-2.local
*** at Thu Jul 17 10:42:12 2025

         ------------------------------------------------------------
                                   SCF GRAD
                          Rob Parrish, Justin Turney,
                       Andy Simmonett, and Alex Sokolov
         ------------------------------------------------------------

  ==> Geometry <==

    Molecular point group: c2v
    Full point group: C_inf_v

    Geometry (in Angstrom), charge = -1, multiplicity = 3:

       Center              X                  Y                   Z               Mass
    ------------   -----------------  -----------------  -----------------  -----------------
         O            0.000000000000     0.000000000000     1.075706842821    15.994914619570
         AL           0.000000000000     0.000000000000    -0.637689325517    26.981538530000

  Nuclear repulsion =   32.120084617141352

  ==> Basis Set <==

  Basis Set: CC-PVDZ
    Blend: CC-PVDZ
    Number of shells: 14
    Number of basis functions: 32
    Number of Cartesian functions: 34
    Spherical Harmonics?: true
    Max angular momentum: 2

  ==> DFJKGrad: Density-Fitted SCF Gradients <==

    Gradient:                    1
    J tasked:                  Yes
    K tasked:                  Yes
    wK tasked:                  No
    OpenMP threads:              1
    Integrals threads:           1
    Memory [MiB]:              375
    Schwarz Cutoff:          1E-12
    Fitting Condition:       1E-10

   => Auxiliary Basis Set <=

  Basis Set: (CC-PVDZ AUX)
    Blend: CC-PVDZ-JKFIT
    Number of shells: 60
    Number of basis functions: 182
    Number of Cartesian functions: 211
    Spherical Harmonics?: true
    Max angular momentum: 3

  ==> DFT Potential <==

   => LibXC <=

    Version 6.2.2
    S. Lehtola, C. Steigemann, M. J.T. Oliveira, and M. A.L. Marques.,  SoftwareX 7, 1â€“5 (2018) (10.1016/j.softx.2017.11.002)

   => Composite Functional: B3LYP <=

    B3LYP Hyb-GGA Exchange-Correlation Functional

    P. J. Stephens, F. J. Devlin, C. F. Chabalowski, and M. J. Frisch.,  J. Phys. Chem. 98, 11623 (1994) (10.1021/j100096a001)

    Deriv               =              1
    GGA                 =           TRUE
    Meta                =          FALSE

    Exchange Hybrid     =           TRUE
    MP2 Hybrid          =          FALSE

   => Exchange Functionals <=

    0.0800   Slater exchange
    0.7200         Becke 88

   => Exact (HF) Exchange <=

    0.2000               HF

   => Correlation Functionals <=

    0.1900   Vosko, Wilk & Nusair (VWN5_RPA)
    0.8100   Lee, Yang & Parr

   => LibXC Density Thresholds  <==

    XC_HYB_GGA_XC_B3LYP:  1.00E-15

   => Molecular Quadrature <=

    Radial Scheme          =       TREUTLER
    Pruning Scheme         =           NONE
    Nuclear Scheme         =       TREUTLER

    Blocking Scheme        =         OCTREE
    BS radius alpha        =              1
    Pruning alpha          =              1
    Radial Points          =             75
    Spherical Points       =            302
    Total Points           =          43426
    Total Blocks           =            402
    Max Points             =            255
    Max Functions          =             32
    Weights Tolerance      =       1.00E-15

  -Total Gradient:
     Atom            X                  Y                   Z
    ------   -----------------  -----------------  -----------------
       1       -0.000000000000     0.000000000000    -0.000269619597
       2        0.000000000000    -0.000000000000     0.000219215772

*** tstop() called on Joses-MacBook-Pro-2.local at Thu Jul 17 10:42:12 2025
Module time:
	user time   =       1.27 seconds =       0.02 minutes
	system time =       1.07 seconds =       0.02 minutes
	total time  =          0 seconds =       0.00 minutes
Total time:
	user time   =      59.80 seconds =       1.00 minutes
	system time =      72.16 seconds =       1.20 minutes
	total time  =         13 seconds =       0.22 minutes

    			-----------------------------------------

    			 OPTKING 3.0: for geometry optimizations

    			     By R.A. King, Bethel University

    			        with contributions from

    			    A.V. Copan, J. Cayton, A. Heide

    			-----------------------------------------

	                            ===> Fragment 1 <==

	 Z (Atomic Numbers)          Masses                          Geom
	       8.000000            15.994915          0.00000000  0.00000000  2.03279132
	      13.000000            26.981539          0.00000000  0.00000000 -1.20505818

	 - Coordinate -           - BOHR/RAD -       - ANG/DEG -
	 R(1,2)           =         3.237850           1.713396

	        --- Internal Coordinate Step in ANG or DEG, aJ/ANG or AJ/DEG ---
	-------------------------------------------------------------------------------
	           Coordinate      Previous         Force          Change          New
	           ----------      --------        ------          ------        ------
	               R(1,2)       1.71340        0.00201        0.00048       1.71388
	-------------------------------------------------------------------------------

	                                 ==> Convergence Check <==

	Measures of convergence in internal coordinates in au.

	Criteria marked as inactive (o), active & met (*), and active & unmet ( ).

	----------------------------------------------------------------------------------------------
	   Step    Total Energy     Delta E     Max Force     RMS Force      Max Disp      RMS Disp
	----------------------------------------------------------------------------------------------
	  Convergence Criteria     1.00e-06 *    3.00e-04 *             o    1.20e-03 *             o
	----------------------------------------------------------------------------------------------
	    11    -317.60497766   -2.79e-06      2.44e-04 *    2.44e-04 o    9.16e-04 *    9.16e-04 o  ~
	----------------------------------------------------------------------------------------------

Next Geometry in Ang
	Fragment 1 (Ang)

	    O   0.0000000000   0.0000000000   1.0759491743
	   Al   0.0000000000   0.0000000000  -0.6379316570

    Final optimized geometry and variables:
    Molecular point group: c2v
    Full point group: C_inf_v

    Geometry (in Angstrom), charge = -1, multiplicity = 3:

    O            0.000000000000     0.000000000000     1.075706842821
    AL           0.000000000000     0.000000000000    -0.637689325517

    Psi4 stopped on: Thursday, 17 July 2025 10:42AM
    Psi4 wall time for execution: 0:00:14.00

*** Psi4 exiting successfully. Buy a developer a beer!
