                               Psi4 1.9.1 release

  ==> Input File <==

--------------------------------------------------------------------------
molecule {
-1 3
Ne   0.00000        0.60000        0.00000
Cl   0.00000       -0.60000        0.00000
}

set {
basis              cc-pvdz
reference          uks
maxiter            500
geom_maxiter       500
DAMPING_PERCENTAGE 1
guess              SAP
}

optimize('b3lyp')
--------------------------------------------------------------------------

    Molecular point group: c2v
  Charge       = -1
  Multiplicity = 3
  Basis Set: CC-PVDZ
    Blend: CC-PVDZ
  Basis Set: (CC-PVDZ AUX)
    Blend: CC-PVDZ-JKFIT
  @DF-UKS Final Energy:  -587.70380547946047
    Total Energy =                       -587.7038054794605841
 Dipole X            :          0.0000000            0.0000000            0.0000000
 Dipole Y            :          0.0000000            0.0000000            0.0000000
 Dipole Z            :          1.8761457            0.4050456            2.2811913
 Magnitude           :                                                    2.2811913
    Molecular point group: c2v
  Basis Set: CC-PVDZ
    Blend: CC-PVDZ
  Basis Set: (CC-PVDZ AUX)
    Blend: CC-PVDZ-JKFIT
  Basis Set: CC-PVDZ
    Blend: CC-PVDZ
  Basis Set: (CC-PVDZ AUX)
    Blend: CC-PVDZ-JKFIT
  @DF-UKS Final Energy:  -587.99631884032272
    Total Energy =                       -587.9963188403228287
  Basis Set: CC-PVDZ
    Blend: CC-PVDZ
  Basis Set: (CC-PVDZ AUX)
    Blend: CC-PVDZ-JKFIT
  Basis Set: CC-PVDZ
    Blend: CC-PVDZ
  @DF-UKS Final Energy:  -588.25592581602893
    Total Energy =                       -588.2559258160289346
  @DF-UKS Final Energy:  -588.37036162563265
    Total Energy =                       -588.3703616256326541
  @DF-UKS Final Energy:  -588.39689604539137
    Total Energy =                       -588.3968960453913724
  @DF-UKS Final Energy:  -588.40936461061460
    Total Energy =                       -588.4093646106146025
  @DF-UKS Final Energy:  -588.41304724096710
    Total Energy =                       -588.4130472409672166
  @DF-UKS Final Energy:  -588.41525449775827
    Total Energy =                       -588.4152544977581556
  @DF-UKS Final Energy:  -588.41648366068227
    Total Energy =                       -588.4164836606822746
  @DF-UKS Final Energy:  -588.41833457342284
    Total Energy =                       -588.4183345734228396
  @DF-UKS Final Energy:  -588.42282659994839
    Total Energy =                       -588.4228265999483938
  @DF-UKS Final Energy:  -588.45799607200888
    Total Energy =                       -588.4579960720088820
  @DF-UKS Final Energy:  -588.45925561046977
    Total Energy =                       -588.4592556104697678
  @DF-UKS Final Energy:  -588.46456135217659
    Total Energy =                       -588.4645613521765881
  @DF-UKS Final Energy:  -588.46534215650638
    Total Energy =                       -588.4653421565063809
  @DF-UKS Final Energy:  -588.46553210343779
    Total Energy =                       -588.4655321034379085
  @DF-UKS Final Energy:  -588.46555163927269
    Total Energy =                       -588.4655516392726895
  Basis Set: (CC-PVDZ AUX)
    Blend: CC-PVDZ-JKFIT
  Basis Set: CC-PVDZ
    Blend: CC-PVDZ
  Basis Set: (CC-PVDZ AUX)
    Blend: CC-PVDZ-JKFIT
  @DF-UKS Final Energy:  -588.46555429624391
    Total Energy =                       -588.4655542962439085
  Basis Set: CC-PVDZ
    Blend: CC-PVDZ
  Basis Set: (CC-PVDZ AUX)
    Blend: CC-PVDZ-JKFIT
  Charge       = -1
  Multiplicity = 3
  Basis Set: CC-PVDZ
    Blend: CC-PVDZ
  Basis Set: (CC-PVDZ AUX)
    Blend: CC-PVDZ-JKFIT

    Orbital Energies [Eh]
    ---------------------

    Alpha Occupied:

       1A1  -101.146122     2A1   -30.784375     3A1    -9.090273
       4A1    -6.859255     1B2    -6.841556     1B1    -6.841556
       5A1    -1.252279     6A1    -0.493528     2B2    -0.361507
       2B1    -0.361507     7A1    -0.359360     8A1    -0.066716
       3B1    -0.018919     3B2    -0.018919     9A1     0.714862

    Alpha Virtual:

       4B2     0.823937     4B1     0.823937    10A1     0.871562
      11A1     1.014051     5B1     1.020624     5B2     1.020624
       1A2     1.050153    12A1     1.050154     6B2     1.535355
       6B1     1.535355    13A1     1.559779    14A1     2.004484
       2A2     4.904126    15A1     4.904332     7B1     4.905883
       7B2     4.905883    16A1     4.906909

    Beta Occupied:

       1A1  -101.132087     2A1   -30.783554     3A1    -9.076622
       1B2    -6.833448     1B1    -6.833448     4A1    -6.814497
       5A1    -1.251289     6A1    -0.425360     2B1    -0.361058
       2B2    -0.361058     7A1    -0.356989     3B1     0.002358
       3B2     0.002358

    Beta Virtual:

       8A1     0.121644     4B1     0.844544     4B2     0.844544
       9A1     0.877546    10A1     0.922245     1A2     1.060169
      11A1     1.060169     5B2     1.090592     5B1     1.090592
      12A1     1.107995     6B2     1.535443     6B1     1.535443
      13A1     1.563158    14A1     2.006211     2A2     4.904400
      15A1     4.904605     7B1     4.906748     7B2     4.906748
      16A1     4.907976

    Final Occupation by Irrep:
             A1    A2    B1    B2
    DOCC [     7,    0,    3,    3 ]
    SOCC [     2,    0,    0,    0 ]
    NA   [     9,    0,    3,    3 ]
    NB   [     7,    0,    3,    3 ]

  @DF-UKS Final Energy:  -588.46555475764944

   => Energetics <=

    Nuclear Repulsion Energy =             27.3983606120729384
    One-Electron Energy =                -880.1369704191968140
    Two-Electron Energy =                 297.3900018498288773
    DFT Exchange-Correlation Energy =     -33.1169468003545546
    Empirical Dispersion Energy =           0.0000000000000000
    VV10 Nonlocal Energy =                  0.0000000000000000
    Total Energy =                       -588.4655547576495564

  UHF NO Occupations:
  HONO-2 :    7 A1 1.9986540
  HONO-1 :    8 A1 1.0000000
  HONO-0 :    9 A1 1.0000000
  LUNO+0 :   10 A1 0.0013460
  LUNO+1 :    4 B2 0.0000431
  LUNO+2 :    4 B1 0.0000431
  LUNO+3 :   11 A1 0.0000012

Computation Completed

Properties will be evaluated at   0.000000,   0.000000,   0.000000 [a0]

Properties computed using the SCF density matrix

 Multipole Moments:

 ------------------------------------------------------------------------------------
     Multipole            Electronic (a.u.)      Nuclear  (a.u.)        Total (a.u.)
 ------------------------------------------------------------------------------------

 L = 1.  Multiply by 2.5417464519 to convert [e a0] to [Debye]
 Dipole X            :          0.0000000            0.0000000            0.0000000
 Dipole Y            :          0.0000000            0.0000000            0.0000000
 Dipole Z            :          1.0405300            1.1082765            2.1488065
 Magnitude           :                                                    2.1488065

 ------------------------------------------------------------------------------------

*** tstop() called on Joses-MacBook-Pro-2.local at Thu Jul 17 11:04:06 2025
Module time:
	user time   =       2.21 seconds =       0.04 minutes
	system time =       3.40 seconds =       0.06 minutes
	total time  =          0 seconds =       0.00 minutes
Total time:
	user time   =      95.06 seconds =       1.58 minutes
	system time =     102.21 seconds =       1.70 minutes
	total time  =         19 seconds =       0.32 minutes

*** tstart() called on Joses-MacBook-Pro-2.local
*** at Thu Jul 17 11:04:06 2025

         ------------------------------------------------------------
                                   SCF GRAD
                          Rob Parrish, Justin Turney,
                       Andy Simmonett, and Alex Sokolov
         ------------------------------------------------------------

  ==> Geometry <==

    Molecular point group: c2v
    Full point group: C_inf_v

    Geometry (in Angstrom), charge = -1, multiplicity = 3:

       Center              X                  Y                   Z               Mass
    ------------   -----------------  -----------------  -----------------  -----------------
         NE           0.000000000000     0.000000000000     2.089055220906    19.992440176200
         CL           0.000000000000     0.000000000000    -1.194357501761    34.968852682000

  Nuclear repulsion =   27.398360612072938

  ==> Basis Set <==

  Basis Set: CC-PVDZ
    Blend: CC-PVDZ
    Number of shells: 14
    Number of basis functions: 32
    Number of Cartesian functions: 34
    Spherical Harmonics?: true
    Max angular momentum: 2

  ==> DFJKGrad: Density-Fitted SCF Gradients <==

    Gradient:                    1
    J tasked:                  Yes
    K tasked:                  Yes
    wK tasked:                  No
    OpenMP threads:              1
    Integrals threads:           1
    Memory [MiB]:              375
    Schwarz Cutoff:          1E-12
    Fitting Condition:       1E-10

   => Auxiliary Basis Set <=

  Basis Set: (CC-PVDZ AUX)
    Blend: CC-PVDZ-JKFIT
    Number of shells: 60
    Number of basis functions: 182
    Number of Cartesian functions: 211
    Spherical Harmonics?: true
    Max angular momentum: 3

  ==> DFT Potential <==

   => LibXC <=

    Version 6.2.2
    S. Lehtola, C. Steigemann, M. J.T. Oliveira, and M. A.L. Marques.,  SoftwareX 7, 1â€“5 (2018) (10.1016/j.softx.2017.11.002)

   => Composite Functional: B3LYP <=

    B3LYP Hyb-GGA Exchange-Correlation Functional

    P. J. Stephens, F. J. Devlin, C. F. Chabalowski, and M. J. Frisch.,  J. Phys. Chem. 98, 11623 (1994) (10.1021/j100096a001)

    Deriv               =              1
    GGA                 =           TRUE
    Meta                =          FALSE

    Exchange Hybrid     =           TRUE
    MP2 Hybrid          =          FALSE

   => Exchange Functionals <=

    0.0800   Slater exchange
    0.7200         Becke 88

   => Exact (HF) Exchange <=

    0.2000               HF

   => Correlation Functionals <=

    0.1900   Vosko, Wilk & Nusair (VWN5_RPA)
    0.8100   Lee, Yang & Parr

   => LibXC Density Thresholds  <==

    XC_HYB_GGA_XC_B3LYP:  1.00E-15

   => Molecular Quadrature <=

    Radial Scheme          =       TREUTLER
    Pruning Scheme         =           NONE
    Nuclear Scheme         =       TREUTLER

    Blocking Scheme        =         OCTREE
    BS radius alpha        =              1
    Pruning alpha          =              1
    Radial Points          =             75
    Spherical Points       =            302
    Total Points           =          42016
    Total Blocks           =            379
    Max Points             =            255
    Max Functions          =             32
    Weights Tolerance      =       1.00E-15

  -Total Gradient:
     Atom            X                  Y                   Z
    ------   -----------------  -----------------  -----------------
       1        0.000000000000     0.000000000000    -0.000025952165
       2        0.000000000000     0.000000000000     0.000038642875

*** tstop() called on Joses-MacBook-Pro-2.local at Thu Jul 17 11:04:06 2025
Module time:
	user time   =       0.65 seconds =       0.01 minutes
	system time =       1.70 seconds =       0.03 minutes
	total time  =          0 seconds =       0.00 minutes
Total time:
	user time   =      95.71 seconds =       1.60 minutes
	system time =     103.91 seconds =       1.73 minutes
	total time  =         19 seconds =       0.32 minutes

    			-----------------------------------------

    			 OPTKING 3.0: for geometry optimizations

    			     By R.A. King, Bethel University

    			        with contributions from

    			    A.V. Copan, J. Cayton, A. Heide

    			-----------------------------------------

	                            ===> Fragment 1 <==

	 Z (Atomic Numbers)          Masses                          Geom
	      10.000000            19.992440          0.00000000  0.00000000  3.94774223
	      17.000000            34.968853          0.00000000  0.00000000 -2.25700857

	 - Coordinate -           - BOHR/RAD -       - ANG/DEG -
	 R(1,2)           =         6.204751           3.283413

	        --- Internal Coordinate Step in ANG or DEG, aJ/ANG or AJ/DEG ---
	-------------------------------------------------------------------------------
	           Coordinate      Previous         Force          Change          New
	           ----------      --------        ------          ------        ------
	               R(1,2)       3.28341        0.00027        0.00110       3.28452
	-------------------------------------------------------------------------------

	                                 ==> Convergence Check <==

	Measures of convergence in internal coordinates in au.

	Criteria marked as inactive (o), active & met (*), and active & unmet ( ).

	----------------------------------------------------------------------------------------------
	   Step    Total Energy     Delta E     Max Force     RMS Force      Max Disp      RMS Disp
	----------------------------------------------------------------------------------------------
	  Convergence Criteria     1.00e-06 *    3.00e-04 *             o    1.20e-03 *             o
	----------------------------------------------------------------------------------------------
	    19    -588.46555476   -4.61e-07 *    3.23e-05 *    3.23e-05 o    2.09e-03      2.09e-03 o  ~
	----------------------------------------------------------------------------------------------

Next Geometry in Ang
	Fragment 1 (Ang)

	   Ne   0.0000000000   0.0000000000   2.0896070732
	   Cl   0.0000000000   0.0000000000  -1.1949093540

    Final optimized geometry and variables:
    Molecular point group: c2v
    Full point group: C_inf_v

    Geometry (in Angstrom), charge = -1, multiplicity = 3:

    NE           0.000000000000     0.000000000000     2.089055220906
    CL           0.000000000000     0.000000000000    -1.194357501761

    Psi4 stopped on: Thursday, 17 July 2025 11:04AM
    Psi4 wall time for execution: 0:00:19.87

*** Psi4 exiting successfully. Buy a developer a beer!
