                               Psi4 1.9.1 release

  ==> Input File <==

--------------------------------------------------------------------------
molecule {
-1 3
Li   0.00000        0.60000        0.00000
Mg   0.00000       -0.60000        0.00000
}

set {
basis              cc-pvdz
reference          uks
maxiter            500
geom_maxiter       500
DAMPING_PERCENTAGE 1
guess              SAP
}

optimize('b3lyp')
--------------------------------------------------------------------------

    Molecular point group: c2v
  Charge       = -1
  Multiplicity = 3
  Basis Set: CC-PVDZ
    Blend: CC-PVDZ
  Basis Set: (CC-PVDZ AUX)
    Blend: DEF2-UNIVERSAL-JKFIT
  @DF-UKS Final Energy:  -207.26707745964933
    Total Energy =                       -207.2670774596493004
 Dipole X            :          0.0000000            0.0000000            0.0000000
 Dipole Y            :          0.0000000            0.0000000            0.0000000
 Dipole Z            :          0.4081709           -0.8951087           -0.4869378
 Magnitude           :                                                    0.4869378
    Molecular point group: c2v
  Basis Set: CC-PVDZ
    Blend: CC-PVDZ
  Basis Set: (CC-PVDZ AUX)
    Blend: DEF2-UNIVERSAL-JKFIT
  Basis Set: CC-PVDZ
    Blend: CC-PVDZ
  Basis Set: (CC-PVDZ AUX)
    Blend: DEF2-UNIVERSAL-JKFIT
  @DF-UKS Final Energy:  -207.31219286536540
    Total Energy =                       -207.3121928653653754
  Basis Set: CC-PVDZ
    Blend: CC-PVDZ
  Basis Set: (CC-PVDZ AUX)
    Blend: DEF2-UNIVERSAL-JKFIT
  Basis Set: CC-PVDZ
    Blend: CC-PVDZ
  @DF-UKS Final Energy:  -207.36874474781462
    Total Energy =                       -207.3687447478146169
  @DF-UKS Final Energy:  -207.45139321544707
    Total Energy =                       -207.4513932154470695
  @DF-UKS Final Energy:  -207.50814089001057
    Total Energy =                       -207.5081408900105373
  @DF-UKS Final Energy:  -207.54019649079015
    Total Energy =                       -207.5401964907901515
  @DF-UKS Final Energy:  -207.55377579198520
    Total Energy =                       -207.5537757919852311
  @DF-UKS Final Energy:  -207.55840877894536
    Total Energy =                       -207.5584087789453633
  @DF-UKS Final Energy:  -207.55948515823354
    Total Energy =                       -207.5594851582335423
  @DF-UKS Final Energy:  -207.55961044625815
    Total Energy =                       -207.5596104462581479
  Basis Set: (CC-PVDZ AUX)
    Blend: DEF2-UNIVERSAL-JKFIT
  Basis Set: CC-PVDZ
    Blend: CC-PVDZ
  Basis Set: (CC-PVDZ AUX)
    Blend: DEF2-UNIVERSAL-JKFIT
  @DF-UKS Final Energy:  -207.55961475555731
    Total Energy =                       -207.5596147555573054
  Basis Set: CC-PVDZ
    Blend: CC-PVDZ
  Basis Set: (CC-PVDZ AUX)
    Blend: DEF2-UNIVERSAL-JKFIT
  Charge       = -1
  Multiplicity = 3
  Basis Set: CC-PVDZ
    Blend: CC-PVDZ
  Basis Set: (CC-PVDZ AUX)
    Blend: DEF2-UNIVERSAL-JKFIT

    Orbital Energies [Eh]
    ---------------------

    Alpha Occupied:

       1A1   -46.664857     2A1    -2.945970     3A1    -1.890706
       4A1    -1.690656     1B2    -1.689184     1B1    -1.689184
       5A1    -0.071603     2B1     0.044287     2B2     0.044287

    Alpha Virtual:

       6A1     0.049305     7A1     0.095147     3B2     0.120256
       3B1     0.120256     8A1     0.128331     4B1     0.186427
       4B2     0.186427     9A1     0.204798    10A1     0.239871
       5B1     0.308285     5B2     0.308285    11A1     0.314704
      12A1     0.344211     1A2     0.344211    13A1     0.357573
       6B1     0.381341     6B2     0.381341    14A1     0.493097
       2A2     0.493097    15A1     0.535806     7B1     0.613490
       7B2     0.613490    16A1     0.844909

    Beta Occupied:

       1A1   -46.664359     2A1    -2.945405     3A1    -1.889090
       4A1    -1.690468     1B2    -1.687706     1B1    -1.687706
       5A1    -0.052542

    Beta Virtual:

       6A1     0.064118     2B2     0.096479     2B1     0.096479
       7A1     0.101486     3B2     0.136560     3B1     0.136560
       8A1     0.138654     4B1     0.204599     4B2     0.204599
       9A1     0.205312    10A1     0.247114     5B1     0.319634
       5B2     0.319634    11A1     0.320412    12A1     0.367573
       1A2     0.378079    13A1     0.378080     6B1     0.397075
       6B2     0.397075     2A2     0.511028    14A1     0.511029
      15A1     0.541373     7B1     0.624046     7B2     0.624046
      16A1     0.846926

    Final Occupation by Irrep:
             A1    A2    B1    B2
    DOCC [     5,    0,    1,    1 ]
    SOCC [     0,    0,    1,    1 ]
    NA   [     5,    0,    2,    2 ]
    NB   [     5,    0,    1,    1 ]

  @DF-UKS Final Energy:  -207.55961490891178

   => Energetics <=

    Nuclear Repulsion Energy =              7.4415545484268888
    One-Electron Energy =                -306.2086914792427024
    Two-Electron Energy =                 106.0636183990145582
    DFT Exchange-Correlation Energy =     -14.8560963771105374
    Empirical Dispersion Energy =           0.0000000000000000
    VV10 Nonlocal Energy =                  0.0000000000000000
    Total Energy =                       -207.5596149089117830

  UHF NO Occupations:
  HONO-2 :    5 A1 1.9888246
  HONO-1 :    2 B2 1.0000000
  HONO-0 :    2 B1 1.0000000
  LUNO+0 :    6 A1 0.0111754
  LUNO+1 :    7 A1 0.0000002
  LUNO+2 :    8 A1 0.0000001
  LUNO+3 :    3 B2 0.0000000

Computation Completed

Properties will be evaluated at   0.000000,   0.000000,   0.000000 [a0]

Properties computed using the SCF density matrix

 Multipole Moments:

 ------------------------------------------------------------------------------------
     Multipole            Electronic (a.u.)      Nuclear  (a.u.)        Total (a.u.)
 ------------------------------------------------------------------------------------

 L = 1.  Multiply by 2.5417464519 to convert [e a0] to [Debye]
 Dipole X            :          0.0000000            0.0000000            0.0000000
 Dipole Y            :          0.0000000            0.0000000            0.0000000
 Dipole Z            :          0.6587382           -1.9095651           -1.2508269
 Magnitude           :                                                    1.2508269

 ------------------------------------------------------------------------------------

*** tstop() called on Joses-MacBook-Pro-2.local at Thu Jul 17 09:32:54 2025
Module time:
	user time   =       4.34 seconds =       0.07 minutes
	system time =       1.67 seconds =       0.03 minutes
	total time  =          0 seconds =       0.00 minutes
Total time:
	user time   =      63.07 seconds =       1.05 minutes
	system time =      68.16 seconds =       1.14 minutes
	total time  =         12 seconds =       0.20 minutes

*** tstart() called on Joses-MacBook-Pro-2.local
*** at Thu Jul 17 09:32:54 2025

         ------------------------------------------------------------
                                   SCF GRAD
                          Rob Parrish, Justin Turney,
                       Andy Simmonett, and Alex Sokolov
         ------------------------------------------------------------

  ==> Geometry <==

    Molecular point group: c2v
    Full point group: C_inf_v

    Geometry (in Angstrom), charge = -1, multiplicity = 3:

       Center              X                  Y                   Z               Mass
    ------------   -----------------  -----------------  -----------------  -----------------
         LI           0.000000000000     0.000000000000     1.980633436286     7.016003436600
         MG           0.000000000000     0.000000000000    -0.579366555671    23.985041697000

  Nuclear repulsion =    7.441554548426889

  ==> Basis Set <==

  Basis Set: CC-PVDZ
    Blend: CC-PVDZ
    Number of shells: 14
    Number of basis functions: 32
    Number of Cartesian functions: 34
    Spherical Harmonics?: true
    Max angular momentum: 2

  ==> DFJKGrad: Density-Fitted SCF Gradients <==

    Gradient:                    1
    J tasked:                  Yes
    K tasked:                  Yes
    wK tasked:                  No
    OpenMP threads:              1
    Integrals threads:           1
    Memory [MiB]:              375
    Schwarz Cutoff:          1E-12
    Fitting Condition:       1E-10

   => Auxiliary Basis Set <=

  Basis Set: (CC-PVDZ AUX)
    Blend: DEF2-UNIVERSAL-JKFIT
    Number of shells: 51
    Number of basis functions: 163
    Number of Cartesian functions: 197
    Spherical Harmonics?: true
    Max angular momentum: 4

  ==> DFT Potential <==

   => LibXC <=

    Version 6.2.2
    S. Lehtola, C. Steigemann, M. J.T. Oliveira, and M. A.L. Marques.,  SoftwareX 7, 1â€“5 (2018) (10.1016/j.softx.2017.11.002)

   => Composite Functional: B3LYP <=

    B3LYP Hyb-GGA Exchange-Correlation Functional

    P. J. Stephens, F. J. Devlin, C. F. Chabalowski, and M. J. Frisch.,  J. Phys. Chem. 98, 11623 (1994) (10.1021/j100096a001)

    Deriv               =              1
    GGA                 =           TRUE
    Meta                =          FALSE

    Exchange Hybrid     =           TRUE
    MP2 Hybrid          =          FALSE

   => Exchange Functionals <=

    0.0800   Slater exchange
    0.7200         Becke 88

   => Exact (HF) Exchange <=

    0.2000               HF

   => Correlation Functionals <=

    0.1900   Vosko, Wilk & Nusair (VWN5_RPA)
    0.8100   Lee, Yang & Parr

   => LibXC Density Thresholds  <==

    XC_HYB_GGA_XC_B3LYP:  1.00E-15

   => Molecular Quadrature <=

    Radial Scheme          =       TREUTLER
    Pruning Scheme         =           NONE
    Nuclear Scheme         =       TREUTLER

    Blocking Scheme        =         OCTREE
    BS radius alpha        =              1
    Pruning alpha          =              1
    Radial Points          =             75
    Spherical Points       =            302
    Total Points           =          43826
    Total Blocks           =            451
    Max Points             =            254
    Max Functions          =             32
    Weights Tolerance      =       1.00E-15

  -Total Gradient:
     Atom            X                  Y                   Z
    ------   -----------------  -----------------  -----------------
       1        0.000000000000    -0.000000000000    -0.000018601848
       2        0.000000000000     0.000000000000     0.000014167443

*** tstop() called on Joses-MacBook-Pro-2.local at Thu Jul 17 09:32:55 2025
Module time:
	user time   =       1.19 seconds =       0.02 minutes
	system time =       1.73 seconds =       0.03 minutes
	total time  =          1 seconds =       0.02 minutes
Total time:
	user time   =      64.26 seconds =       1.07 minutes
	system time =      69.89 seconds =       1.16 minutes
	total time  =         13 seconds =       0.22 minutes

    			-----------------------------------------

    			 OPTKING 3.0: for geometry optimizations

    			     By R.A. King, Bethel University

    			        with contributions from

    			    A.V. Copan, J. Cayton, A. Heide

    			-----------------------------------------

	                            ===> Fragment 1 <==

	 Z (Atomic Numbers)          Masses                          Geom
	       3.000000             7.016003          0.00000000  0.00000000  3.74285475
	      12.000000            23.985042          0.00000000  0.00000000 -1.09484412

	 - Coordinate -           - BOHR/RAD -       - ANG/DEG -
	 R(1,2)           =         4.837699           2.560000

	        --- Internal Coordinate Step in ANG or DEG, aJ/ANG or AJ/DEG ---
	-------------------------------------------------------------------------------
	           Coordinate      Previous         Force          Change          New
	           ----------      --------        ------          ------        ------
	               R(1,2)       2.56000        0.00013        0.00029       2.56029
	-------------------------------------------------------------------------------

	                                 ==> Convergence Check <==

	Measures of convergence in internal coordinates in au.

	Criteria marked as inactive (o), active & met (*), and active & unmet ( ).

	----------------------------------------------------------------------------------------------
	   Step    Total Energy     Delta E     Max Force     RMS Force      Max Disp      RMS Disp
	----------------------------------------------------------------------------------------------
	  Convergence Criteria     1.00e-06 *    3.00e-04 *             o    1.20e-03 *             o
	----------------------------------------------------------------------------------------------
	    12    -207.55961491   -1.53e-07 *    1.64e-05 *    1.64e-05 o    5.53e-04 *    5.53e-04 o  ~
	----------------------------------------------------------------------------------------------

Next Geometry in Ang
	Fragment 1 (Ang)

	   Li   0.0000000000   0.0000000000   1.9807798381
	   Mg   0.0000000000   0.0000000000  -0.5795129575

    Final optimized geometry and variables:
    Molecular point group: c2v
    Full point group: C_inf_v

    Geometry (in Angstrom), charge = -1, multiplicity = 3:

    LI           0.000000000000     0.000000000000     1.980633436286
    MG           0.000000000000     0.000000000000    -0.579366555671

    Psi4 stopped on: Thursday, 17 July 2025 09:32AM
    Psi4 wall time for execution: 0:00:13.77

*** Psi4 exiting successfully. Buy a developer a beer!
