                               Psi4 1.9.1 release

  ==> Input File <==

--------------------------------------------------------------------------
molecule {
-1 3
Al   0.00000        0.60000        0.00000
Si   0.00000       -0.60000        0.00000
}

set {
basis              cc-pvdz
reference          uks
maxiter            500
geom_maxiter       500
DAMPING_PERCENTAGE 1
guess              SAP
}

optimize('b3lyp')
--------------------------------------------------------------------------

    Molecular point group: c2v
  Charge       = -1
  Multiplicity = 3
  Basis Set: CC-PVDZ
    Blend: CC-PVDZ
  Basis Set: (CC-PVDZ AUX)
    Blend: CC-PVDZ-JKFIT
  @DF-UKS Final Energy:  -530.78477365201218
    Total Energy =                       -530.7847736520121771
 Dipole X            :          0.0000000            0.0000000            0.0000000
 Dipole Y            :          0.0000000            0.0000000            0.0000000
 Dipole Z            :          0.2838859           -0.5793738           -0.2954879
 Magnitude           :                                                    0.2954879
    Molecular point group: c2v
  Basis Set: CC-PVDZ
    Blend: CC-PVDZ
  Basis Set: (CC-PVDZ AUX)
    Blend: CC-PVDZ-JKFIT
  Basis Set: CC-PVDZ
    Blend: CC-PVDZ
  Basis Set: (CC-PVDZ AUX)
    Blend: CC-PVDZ-JKFIT
  @DF-UKS Final Energy:  -530.80031703023678
    Total Energy =                       -530.8003170302367835
  Basis Set: CC-PVDZ
    Blend: CC-PVDZ
  Basis Set: (CC-PVDZ AUX)
    Blend: CC-PVDZ-JKFIT
  Basis Set: CC-PVDZ
    Blend: CC-PVDZ
  @DF-UKS Final Energy:  -530.83033851840366
    Total Energy =                       -530.8303385184036642
  @DF-UKS Final Energy:  -530.93931769589631
    Total Energy =                       -530.9393176958963068
  @DF-UKS Final Energy:  -531.40842340944232
    Total Energy =                       -531.4084234094423209
  @DF-UKS Final Energy:  -531.63365294306880
    Total Energy =                       -531.6336529430687960
  @DF-UKS Final Energy:  -531.80201796109031
    Total Energy =                       -531.8020179610903142
  @DF-UKS Final Energy:  -531.87199558976215
    Total Energy =                       -531.8719955897621503
  @DF-UKS Final Energy:  -531.88786001668893
    Total Energy =                       -531.8878600166889328
  @DF-UKS Final Energy:  -531.89352193026002
    Total Energy =                       -531.8935219302600217
  @DF-UKS Final Energy:  -531.89442055987331
    Total Energy =                       -531.8944205598733106
  @DF-UKS Final Energy:  -531.89460421847821
    Total Energy =                       -531.8946042184782073
  @DF-UKS Final Energy:  -531.89461992474571
    Total Energy =                       -531.8946199247457116
  Basis Set: (CC-PVDZ AUX)
    Blend: CC-PVDZ-JKFIT
  Basis Set: CC-PVDZ
    Blend: CC-PVDZ
  Basis Set: (CC-PVDZ AUX)
    Blend: CC-PVDZ-JKFIT
  @DF-UKS Final Energy:  -531.89462133081565
    Total Energy =                       -531.8946213308156530
  Basis Set: CC-PVDZ
    Blend: CC-PVDZ
  Basis Set: (CC-PVDZ AUX)
    Blend: CC-PVDZ-JKFIT
  Charge       = -1
  Multiplicity = 3
  Basis Set: CC-PVDZ
    Blend: CC-PVDZ
  Basis Set: (CC-PVDZ AUX)
    Blend: CC-PVDZ-JKFIT

    Orbital Energies [Eh]
    ---------------------

    Alpha Occupied:

       1A1   -65.919351     2A1   -55.850072     3A1    -5.063479
       4A1    -3.932438     1B2    -3.424774     5A1    -3.423320
       1B1    -3.418487     2B2    -2.486775     6A1    -2.485390
       2B1    -2.483006     7A1    -0.262441     8A1    -0.107289
       3B2     0.002092     9A1     0.003332     3B1     0.023475

    Alpha Virtual:

       4B2     0.130634     4B1     0.144546    10A1     0.209805
      11A1     0.328412    12A1     0.375325     5B2     0.377125
       5B1     0.389809     6B2     0.440067    13A1     0.443428
       1A2     0.449459    14A1     0.451523     6B1     0.452845
       7B2     0.523058     7B1     0.539815    15A1     0.580949
       2A2     0.598643    16A1     0.600171    17A1     0.706624
       8B2     0.731510     8B1     0.748405    18A1     0.976495

    Beta Occupied:

       1A1   -65.915676     2A1   -55.848612     3A1    -5.059357
       4A1    -3.930697     1B2    -3.417203     1B1    -3.415633
       5A1    -3.415613     2B2    -2.484318     2B1    -2.482623
       6A1    -2.480672     7A1    -0.216752     8A1    -0.073403
       3B1     0.034642

    Beta Virtual:

       3B2     0.083429     9A1     0.084527     4B1     0.153001
       4B2     0.162160    10A1     0.226274    11A1     0.344306
       5B1     0.393749     5B2     0.397247    12A1     0.402464
       1A2     0.461661    13A1     0.463021     6B1     0.472316
      14A1     0.472858     6B2     0.475918     7B1     0.548599
       7B2     0.552059    15A1     0.601346     2A2     0.627378
      16A1     0.629214    17A1     0.731811     8B1     0.769008
       8B2     0.772161    18A1     1.001779

    Final Occupation by Irrep:
             A1    A2    B1    B2
    DOCC [     8,    0,    3,    2 ]
    SOCC [     1,    0,    0,    1 ]
    NA   [     9,    0,    3,    3 ]
    NB   [     8,    0,    3,    2 ]

  @DF-UKS Final Energy:  -531.89462146473420

   => Energetics <=

    Nuclear Repulsion Energy =             41.0348507273810270
    One-Electron Energy =                -825.5447799821331500
    Two-Electron Energy =                 284.5687672868127720
    DFT Exchange-Correlation Energy =     -31.9534594967948387
    Empirical Dispersion Energy =           0.0000000000000000
    VV10 Nonlocal Energy =                  0.0000000000000000
    Total Energy =                       -531.8946214647342003

  UHF NO Occupations:
  HONO-2 :    3 B1 1.9963331
  HONO-1 :    9 A1 1.0000000
  HONO-0 :    3 B2 1.0000000
  LUNO+0 :    4 B1 0.0036669
  LUNO+1 :   10 A1 0.0018479
  LUNO+2 :   11 A1 0.0005773
  LUNO+3 :   12 A1 0.0000001

Computation Completed

Properties will be evaluated at   0.000000,   0.000000,   0.000000 [a0]

Properties computed using the SCF density matrix

 Multipole Moments:

 ------------------------------------------------------------------------------------
     Multipole            Electronic (a.u.)      Nuclear  (a.u.)        Total (a.u.)
 ------------------------------------------------------------------------------------

 L = 1.  Multiply by 2.5417464519 to convert [e a0] to [Debye]
 Dipole X            :          0.0000000            0.0000000            0.0000000
 Dipole Y            :          0.0000000            0.0000000            0.0000000
 Dipole Z            :          1.1800346           -1.1331757            0.0468589
 Magnitude           :                                                    0.0468589

 ------------------------------------------------------------------------------------

*** tstop() called on Joses-MacBook-Pro-2.local at Thu Jul 17 11:36:38 2025
Module time:
	user time   =      14.21 seconds =       0.24 minutes
	system time =       1.96 seconds =       0.03 minutes
	total time  =          1 seconds =       0.02 minutes
Total time:
	user time   =     387.83 seconds =       6.46 minutes
	system time =      56.43 seconds =       0.94 minutes
	total time  =         46 seconds =       0.77 minutes

*** tstart() called on Joses-MacBook-Pro-2.local
*** at Thu Jul 17 11:36:38 2025

         ------------------------------------------------------------
                                   SCF GRAD
                          Rob Parrish, Justin Turney,
                       Andy Simmonett, and Alex Sokolov
         ------------------------------------------------------------

  ==> Geometry <==

    Molecular point group: c2v
    Full point group: C_inf_v

    Geometry (in Angstrom), charge = -1, multiplicity = 3:

       Center              X                  Y                   Z               Mass
    ------------   -----------------  -----------------  -----------------  -----------------
         AL           0.000000000000     0.000000000000     1.194772094281    26.981538530000
         SI           0.000000000000     0.000000000000    -1.152263428811    27.976926534650

  Nuclear repulsion =   41.034850727381027

  ==> Basis Set <==

  Basis Set: CC-PVDZ
    Blend: CC-PVDZ
    Number of shells: 16
    Number of basis functions: 36
    Number of Cartesian functions: 38
    Spherical Harmonics?: true
    Max angular momentum: 2

  ==> DFJKGrad: Density-Fitted SCF Gradients <==

    Gradient:                    1
    J tasked:                  Yes
    K tasked:                  Yes
    wK tasked:                  No
    OpenMP threads:              1
    Integrals threads:           1
    Memory [MiB]:              375
    Schwarz Cutoff:          1E-12
    Fitting Condition:       1E-10

   => Auxiliary Basis Set <=

  Basis Set: (CC-PVDZ AUX)
    Blend: CC-PVDZ-JKFIT
    Number of shells: 72
    Number of basis functions: 224
    Number of Cartesian functions: 260
    Spherical Harmonics?: true
    Max angular momentum: 3

  ==> DFT Potential <==

   => LibXC <=

    Version 6.2.2
    S. Lehtola, C. Steigemann, M. J.T. Oliveira, and M. A.L. Marques.,  SoftwareX 7, 1â€“5 (2018) (10.1016/j.softx.2017.11.002)

   => Composite Functional: B3LYP <=

    B3LYP Hyb-GGA Exchange-Correlation Functional

    P. J. Stephens, F. J. Devlin, C. F. Chabalowski, and M. J. Frisch.,  J. Phys. Chem. 98, 11623 (1994) (10.1021/j100096a001)

    Deriv               =              1
    GGA                 =           TRUE
    Meta                =          FALSE

    Exchange Hybrid     =           TRUE
    MP2 Hybrid          =          FALSE

   => Exchange Functionals <=

    0.0800   Slater exchange
    0.7200         Becke 88

   => Exact (HF) Exchange <=

    0.2000               HF

   => Correlation Functionals <=

    0.1900   Vosko, Wilk & Nusair (VWN5_RPA)
    0.8100   Lee, Yang & Parr

   => LibXC Density Thresholds  <==

    XC_HYB_GGA_XC_B3LYP:  1.00E-15

   => Molecular Quadrature <=

    Radial Scheme          =       TREUTLER
    Pruning Scheme         =           NONE
    Nuclear Scheme         =       TREUTLER

    Blocking Scheme        =         OCTREE
    BS radius alpha        =              1
    Pruning alpha          =              1
    Radial Points          =             75
    Spherical Points       =            302
    Total Points           =          42402
    Total Blocks           =            403
    Max Points             =            255
    Max Functions          =             36
    Weights Tolerance      =       1.00E-15

  -Total Gradient:
     Atom            X                  Y                   Z
    ------   -----------------  -----------------  -----------------
       1       -0.000000000000     0.000000000000    -0.000019957352
       2        0.000000000000     0.000000000000     0.000027071999

*** tstop() called on Joses-MacBook-Pro-2.local at Thu Jul 17 11:36:39 2025
Module time:
	user time   =       3.18 seconds =       0.05 minutes
	system time =       1.59 seconds =       0.03 minutes
	total time  =          1 seconds =       0.02 minutes
Total time:
	user time   =     391.01 seconds =       6.52 minutes
	system time =      58.04 seconds =       0.97 minutes
	total time  =         47 seconds =       0.78 minutes

    			-----------------------------------------

    			 OPTKING 3.0: for geometry optimizations

    			     By R.A. King, Bethel University

    			        with contributions from

    			    A.V. Copan, J. Cayton, A. Heide

    			-----------------------------------------

	                            ===> Fragment 1 <==

	 Z (Atomic Numbers)          Masses                          Geom
	      13.000000            26.981539          0.00000000  0.00000000  2.25779204
	      14.000000            27.976927          0.00000000  0.00000000 -2.17746230

	 - Coordinate -           - BOHR/RAD -       - ANG/DEG -
	 R(1,2)           =         4.435254           2.347036

	        --- Internal Coordinate Step in ANG or DEG, aJ/ANG or AJ/DEG ---
	-------------------------------------------------------------------------------
	           Coordinate      Previous         Force          Change          New
	           ----------      --------        ------          ------        ------
	               R(1,2)       2.34704        0.00019        0.00013       2.34716
	-------------------------------------------------------------------------------

	                                 ==> Convergence Check <==

	Measures of convergence in internal coordinates in au.

	Criteria marked as inactive (o), active & met (*), and active & unmet ( ).

	----------------------------------------------------------------------------------------------
	   Step    Total Energy     Delta E     Max Force     RMS Force      Max Disp      RMS Disp
	----------------------------------------------------------------------------------------------
	  Convergence Criteria     1.00e-06 *    3.00e-04 *             o    1.20e-03 *             o
	----------------------------------------------------------------------------------------------
	    15    -531.89462146   -1.34e-07 *    2.35e-05 *    2.35e-05 o    2.38e-04 *    2.38e-04 o  ~
	----------------------------------------------------------------------------------------------

Next Geometry in Ang
	Fragment 1 (Ang)

	   Al   0.0000000000   0.0000000000   1.1948351454
	   Si   0.0000000000   0.0000000000  -1.1523264799

    Final optimized geometry and variables:
    Molecular point group: c2v
    Full point group: C_inf_v

    Geometry (in Angstrom), charge = -1, multiplicity = 3:

    AL           0.000000000000     0.000000000000     1.194772094281
    SI           0.000000000000     0.000000000000    -1.152263428811

    Psi4 stopped on: Thursday, 17 July 2025 11:36AM
    Psi4 wall time for execution: 0:00:48.24

*** Psi4 exiting successfully. Buy a developer a beer!
