                               Psi4 1.9.1 release

  ==> Input File <==

--------------------------------------------------------------------------
molecule {
-1 3
He   0.00000        0.60000        0.00000
Cl   0.00000       -0.60000        0.00000
}

set {
basis              cc-pvdz
reference          uks
maxiter            500
geom_maxiter       500
DAMPING_PERCENTAGE 1
guess              SAP
}

optimize('b3lyp')
--------------------------------------------------------------------------

    Molecular point group: c2v
  Charge       = -1
  Multiplicity = 3
  Basis Set: CC-PVDZ
    Blend: CC-PVDZ
  Basis Set: (CC-PVDZ AUX)
    Blend: CC-PVDZ-JKFIT + DEF2-UNIVERSAL-JKFIT
  @DF-UKS Final Energy:  -462.27998644284577
    Total Energy =                       -462.2799864428457681
 Dipole X            :          0.0000000            0.0000000            0.0000000
 Dipole Y            :          0.0000000            0.0000000            0.0000000
 Dipole Z            :          0.5625544            0.1101761            0.6727305
 Magnitude           :                                                    0.6727305
    Molecular point group: c2v
  Basis Set: CC-PVDZ
    Blend: CC-PVDZ
  Basis Set: (CC-PVDZ AUX)
    Blend: CC-PVDZ-JKFIT + DEF2-UNIVERSAL-JKFIT
  Basis Set: CC-PVDZ
    Blend: CC-PVDZ
  Basis Set: (CC-PVDZ AUX)
    Blend: CC-PVDZ-JKFIT + DEF2-UNIVERSAL-JKFIT
  @DF-UKS Final Energy:  -462.37352400271430
    Total Energy =                       -462.3735240027142481
  Basis Set: CC-PVDZ
    Blend: CC-PVDZ
  Basis Set: (CC-PVDZ AUX)
    Blend: CC-PVDZ-JKFIT + DEF2-UNIVERSAL-JKFIT
  Basis Set: CC-PVDZ
    Blend: CC-PVDZ
  @DF-UKS Final Energy:  -462.39086955250616
    Total Energy =                       -462.3908695525061603
  @DF-UKS Final Energy:  -462.40323885348118
    Total Energy =                       -462.4032388534811844
  @DF-UKS Final Energy:  -462.40806251456775
    Total Energy =                       -462.4080625145677459
  @DF-UKS Final Energy:  -462.41270334516025
    Total Energy =                       -462.4127033451603097
  @DF-UKS Final Energy:  -462.44700901264378
    Total Energy =                       -462.4470090126437753
  @DF-UKS Final Energy:  -462.45574030176675
    Total Energy =                       -462.4557403017667525
  @DF-UKS Final Energy:  -462.46260798813063
    Total Energy =                       -462.4626079881306850
  @DF-UKS Final Energy:  -462.46361220470970
    Total Energy =                       -462.4636122047097047
  @DF-UKS Final Energy:  -462.46382307086901
    Total Energy =                       -462.4638230708690116
  @DF-UKS Final Energy:  -462.46384308374689
    Total Energy =                       -462.4638430837468945
  Basis Set: (CC-PVDZ AUX)
    Blend: CC-PVDZ-JKFIT + DEF2-UNIVERSAL-JKFIT
  Basis Set: CC-PVDZ
    Blend: CC-PVDZ
  Basis Set: (CC-PVDZ AUX)
    Blend: CC-PVDZ-JKFIT + DEF2-UNIVERSAL-JKFIT
  @DF-UKS Final Energy:  -462.46384538808917
    Total Energy =                       -462.4638453880891689
  Basis Set: CC-PVDZ
    Blend: CC-PVDZ
  Basis Set: (CC-PVDZ AUX)
    Blend: CC-PVDZ-JKFIT + DEF2-UNIVERSAL-JKFIT
  Charge       = -1
  Multiplicity = 3
  Basis Set: CC-PVDZ
    Blend: CC-PVDZ
  Basis Set: (CC-PVDZ AUX)
    Blend: CC-PVDZ-JKFIT + DEF2-UNIVERSAL-JKFIT

    Orbital Energies [Eh]
    ---------------------

    Alpha Occupied:

       1A1  -101.147996     2A1    -9.091919     3A1    -6.860933
       1B2    -6.843195     1B1    -6.843195     4A1    -0.494929
       5A1    -0.467216     6A1    -0.067916     2B1    -0.019983
       2B2    -0.019983     7A1     0.713059

    Alpha Virtual:

       3B2     0.823187     3B1     0.823187     8A1     0.869872
       9A1     1.012268     4B1     1.019439     4B2     1.019439
       1A2     1.049016    10A1     1.049017    11A1     1.323199
       5B1     2.372209     5B2     2.372209    12A1     2.378604

    Beta Occupied:

       1A1  -101.134012     2A1    -9.078315     1B2    -6.835115
       1B1    -6.835115     3A1    -6.816337     4A1    -0.463555
       5A1    -0.426308     2B1     0.001267     2B2     0.001267

    Beta Virtual:

       6A1     0.120424     3B2     0.843729     3B1     0.843729
       7A1     0.874787     8A1     0.920257     1A2     1.059028
       9A1     1.059028     4B1     1.089343     4B2     1.089343
      10A1     1.106190    11A1     1.330053     5B1     2.373408
       5B2     2.373408    12A1     2.380549

    Final Occupation by Irrep:
             A1    A2    B1    B2
    DOCC [     5,    0,    2,    2 ]
    SOCC [     2,    0,    0,    0 ]
    NA   [     7,    0,    2,    2 ]
    NB   [     5,    0,    2,    2 ]

  @DF-UKS Final Energy:  -462.46384567403260

   => Energetics <=

    Nuclear Repulsion Energy =              5.7147828790685749
    One-Electron Energy =                -656.6513589545919558
    Two-Electron Energy =                 212.3452654741100218
    DFT Exchange-Correlation Energy =     -23.8725350726192680
    Empirical Dispersion Energy =           0.0000000000000000
    VV10 Nonlocal Energy =                  0.0000000000000000
    Total Energy =                       -462.4638456740325978

  UHF NO Occupations:
  HONO-2 :    5 A1 1.9986575
  HONO-1 :    6 A1 1.0000000
  HONO-0 :    7 A1 1.0000000
  LUNO+0 :    8 A1 0.0013425
  LUNO+1 :    3 B2 0.0000431
  LUNO+2 :    3 B1 0.0000431
  LUNO+3 :    9 A1 0.0000051

Computation Completed

Properties will be evaluated at   0.000000,   0.000000,   0.000000 [a0]

Properties computed using the SCF density matrix

 Multipole Moments:

 ------------------------------------------------------------------------------------
     Multipole            Electronic (a.u.)      Nuclear  (a.u.)        Total (a.u.)
 ------------------------------------------------------------------------------------

 L = 1.  Multiply by 2.5417464519 to convert [e a0] to [Debye]
 Dipole X            :          0.0000000            0.0000000            0.0000000
 Dipole Y            :          0.0000000            0.0000000            0.0000000
 Dipole Z            :          0.1656356            0.2890589            0.4546946
 Magnitude           :                                                    0.4546946

 ------------------------------------------------------------------------------------

*** tstop() called on Joses-MacBook-Pro-2.local at Thu Jul 17 09:25:52 2025
Module time:
	user time   =       2.92 seconds =       0.05 minutes
	system time =       2.59 seconds =       0.04 minutes
	total time  =          0 seconds =       0.00 minutes
Total time:
	user time   =      58.08 seconds =       0.97 minutes
	system time =      64.59 seconds =       1.08 minutes
	total time  =         11 seconds =       0.18 minutes

*** tstart() called on Joses-MacBook-Pro-2.local
*** at Thu Jul 17 09:25:52 2025

         ------------------------------------------------------------
                                   SCF GRAD
                          Rob Parrish, Justin Turney,
                       Andy Simmonett, and Alex Sokolov
         ------------------------------------------------------------

  ==> Geometry <==

    Molecular point group: c2v
    Full point group: C_inf_v

    Geometry (in Angstrom), charge = -1, multiplicity = 3:

       Center              X                  Y                   Z               Mass
    ------------   -----------------  -----------------  -----------------  -----------------
         HE           0.000000000000     0.000000000000     2.824977982924     4.002603254130
         CL           0.000000000000     0.000000000000    -0.323352503730    34.968852682000

  Nuclear repulsion =    5.714782879068575

  ==> Basis Set <==

  Basis Set: CC-PVDZ
    Blend: CC-PVDZ
    Number of shells: 11
    Number of basis functions: 23
    Number of Cartesian functions: 24
    Spherical Harmonics?: true
    Max angular momentum: 2

  ==> DFJKGrad: Density-Fitted SCF Gradients <==

    Gradient:                    1
    J tasked:                  Yes
    K tasked:                  Yes
    wK tasked:                  No
    OpenMP threads:              1
    Integrals threads:           1
    Memory [MiB]:              375
    Schwarz Cutoff:          1E-12
    Fitting Condition:       1E-10

   => Auxiliary Basis Set <=

  Basis Set: (CC-PVDZ AUX)
    Blend: CC-PVDZ-JKFIT + DEF2-UNIVERSAL-JKFIT
    Number of shells: 45
    Number of basis functions: 135
    Number of Cartesian functions: 155
    Spherical Harmonics?: true
    Max angular momentum: 3

  ==> DFT Potential <==

   => LibXC <=

    Version 6.2.2
    S. Lehtola, C. Steigemann, M. J.T. Oliveira, and M. A.L. Marques.,  SoftwareX 7, 1â€“5 (2018) (10.1016/j.softx.2017.11.002)

   => Composite Functional: B3LYP <=

    B3LYP Hyb-GGA Exchange-Correlation Functional

    P. J. Stephens, F. J. Devlin, C. F. Chabalowski, and M. J. Frisch.,  J. Phys. Chem. 98, 11623 (1994) (10.1021/j100096a001)

    Deriv               =              1
    GGA                 =           TRUE
    Meta                =          FALSE

    Exchange Hybrid     =           TRUE
    MP2 Hybrid          =          FALSE

   => Exchange Functionals <=

    0.0800   Slater exchange
    0.7200         Becke 88

   => Exact (HF) Exchange <=

    0.2000               HF

   => Correlation Functionals <=

    0.1900   Vosko, Wilk & Nusair (VWN5_RPA)
    0.8100   Lee, Yang & Parr

   => LibXC Density Thresholds  <==

    XC_HYB_GGA_XC_B3LYP:  1.00E-15

   => Molecular Quadrature <=

    Radial Scheme          =       TREUTLER
    Pruning Scheme         =           NONE
    Nuclear Scheme         =       TREUTLER

    Blocking Scheme        =         OCTREE
    BS radius alpha        =              1
    Pruning alpha          =              1
    Radial Points          =             75
    Spherical Points       =            302
    Total Points           =          42243
    Total Blocks           =            382
    Max Points             =            256
    Max Functions          =             23
    Weights Tolerance      =       1.00E-15

  -Total Gradient:
     Atom            X                  Y                   Z
    ------   -----------------  -----------------  -----------------
       1        0.000000000000    -0.000000000000    -0.000035691535
       2        0.000000000000     0.000000000000     0.000029606813

*** tstop() called on Joses-MacBook-Pro-2.local at Thu Jul 17 09:25:52 2025
Module time:
	user time   =       0.42 seconds =       0.01 minutes
	system time =       1.23 seconds =       0.02 minutes
	total time  =          0 seconds =       0.00 minutes
Total time:
	user time   =      58.51 seconds =       0.98 minutes
	system time =      65.82 seconds =       1.10 minutes
	total time  =         11 seconds =       0.18 minutes

    			-----------------------------------------

    			 OPTKING 3.0: for geometry optimizations

    			     By R.A. King, Bethel University

    			        with contributions from

    			    A.V. Copan, J. Cayton, A. Heide

    			-----------------------------------------

	                            ===> Fragment 1 <==

	 Z (Atomic Numbers)          Masses                          Geom
	       2.000000             4.002603          0.00000000  0.00000000  5.33843470
	      17.000000            34.968853          0.00000000  0.00000000 -0.61104767

	 - Coordinate -           - BOHR/RAD -       - ANG/DEG -
	 R(1,2)           =         5.949482           3.148330

	        --- Internal Coordinate Step in ANG or DEG, aJ/ANG or AJ/DEG ---
	-------------------------------------------------------------------------------
	           Coordinate      Previous         Force          Change          New
	           ----------      --------        ------          ------        ------
	               R(1,2)       3.14833        0.00027        0.00110       3.14943
	-------------------------------------------------------------------------------

	                                 ==> Convergence Check <==

	Measures of convergence in internal coordinates in au.

	Criteria marked as inactive (o), active & met (*), and active & unmet ( ).

	----------------------------------------------------------------------------------------------
	   Step    Total Energy     Delta E     Max Force     RMS Force      Max Disp      RMS Disp
	----------------------------------------------------------------------------------------------
	  Convergence Criteria     1.00e-06 *    3.00e-04 *             o    1.20e-03 *             o
	----------------------------------------------------------------------------------------------
	    14    -462.46384567   -2.86e-07 *    3.26e-05 *    3.26e-05 o    2.08e-03      2.08e-03 o  ~
	----------------------------------------------------------------------------------------------

Next Geometry in Ang
	Fragment 1 (Ang)

	   He   0.0000000000   0.0000000000   2.8255271424
	   Cl   0.0000000000   0.0000000000  -0.3239016632

    Final optimized geometry and variables:
    Molecular point group: c2v
    Full point group: C_inf_v

    Geometry (in Angstrom), charge = -1, multiplicity = 3:

    HE           0.000000000000     0.000000000000     2.824977982924
    CL           0.000000000000     0.000000000000    -0.323352503730

    Psi4 stopped on: Thursday, 17 July 2025 09:25AM
    Psi4 wall time for execution: 0:00:12.29

*** Psi4 exiting successfully. Buy a developer a beer!
