                               Psi4 1.9.1 release

  ==> Input File <==

--------------------------------------------------------------------------
molecule {
-1 3
C   0.00000        0.60000        0.00000
F   0.00000       -0.60000        0.00000
}

set {
basis              cc-pvdz
reference          uks
maxiter            500
geom_maxiter       500
DAMPING_PERCENTAGE 1
guess              SAP
}

optimize('b3lyp')
--------------------------------------------------------------------------

    Molecular point group: c2v
  Charge       = -1
  Multiplicity = 3
  Basis Set: CC-PVDZ
    Blend: CC-PVDZ
  Basis Set: (CC-PVDZ AUX)
    Blend: CC-PVDZ-JKFIT
  @DF-UKS Final Energy:  -137.73014591626261
    Total Energy =                       -137.7301459162626145
 Dipole X            :          0.0000000            0.0000000            0.0000000
 Dipole Y            :          0.0000000            0.0000000            0.0000000
 Dipole Z            :         -2.0732409            0.4382258           -1.6350151
 Magnitude           :                                                    1.6350151
    Molecular point group: c2v
  Basis Set: CC-PVDZ
    Blend: CC-PVDZ
  Basis Set: (CC-PVDZ AUX)
    Blend: CC-PVDZ-JKFIT
  Basis Set: CC-PVDZ
    Blend: CC-PVDZ
  Basis Set: (CC-PVDZ AUX)
    Blend: CC-PVDZ-JKFIT
  @DF-UKS Final Energy:  -137.76494864299042
    Total Energy =                       -137.7649486429904186
  Basis Set: CC-PVDZ
    Blend: CC-PVDZ
  Basis Set: (CC-PVDZ AUX)
    Blend: CC-PVDZ-JKFIT
  Basis Set: CC-PVDZ
    Blend: CC-PVDZ
  @DF-UKS Final Energy:  -137.77370942146658
    Total Energy =                       -137.7737094214665774
  @DF-UKS Final Energy:  -137.77599089169266
    Total Energy =                       -137.7759908916926577
  @DF-UKS Final Energy:  -137.77669717910075
    Total Energy =                       -137.7766971791007506
  @DF-UKS Final Energy:  -137.77693698487195
    Total Energy =                       -137.7769369848719521
  @DF-UKS Final Energy:  -137.77705057691244
    Total Energy =                       -137.7770505769124441
  Basis Set: (CC-PVDZ AUX)
    Blend: CC-PVDZ-JKFIT
  Basis Set: CC-PVDZ
    Blend: CC-PVDZ
  Basis Set: (CC-PVDZ AUX)
    Blend: CC-PVDZ-JKFIT
  @DF-UKS Final Energy:  -137.77707174140633
    Total Energy =                       -137.7770717414063313
  Basis Set: CC-PVDZ
    Blend: CC-PVDZ
  Basis Set: (CC-PVDZ AUX)
    Blend: CC-PVDZ-JKFIT
  Charge       = -1
  Multiplicity = 3
  Basis Set: CC-PVDZ
    Blend: CC-PVDZ
  Basis Set: (CC-PVDZ AUX)
    Blend: CC-PVDZ-JKFIT

    Orbital Energies [Eh]
    ---------------------

    Alpha Occupied:

       1A1   -24.376413     2A1    -9.907140     3A1    -0.864495
       4A1    -0.282820     1B2    -0.124645     1B1    -0.124645
       5A1    -0.061101     2B1     0.125584     2B2     0.125584

    Alpha Virtual:

       6A1     0.400284     3B2     0.768478     3B1     0.768478
       7A1     0.780267     8A1     0.868579     4B1     1.387328
       4B2     1.387328     9A1     1.425291    10A1     1.462608
       1A2     1.462609     5B1     1.649765     5B2     1.649765
      11A1     1.872021    12A1     2.463569    13A1     3.876473
       2A2     3.876489     6B1     3.984691     6B2     3.984691
      14A1     4.233539

    Beta Occupied:

       1A1   -24.370406     2A1    -9.883535     3A1    -0.850295
       4A1    -0.235743     1B2    -0.098681     1B1    -0.098681
       5A1    -0.006706

    Beta Virtual:

       2B1     0.291948     2B2     0.291948     6A1     0.431932
       7A1     0.799386     3B2     0.848361     3B1     0.848361
       8A1     0.917752     4B1     1.416932     4B2     1.416932
       9A1     1.434915    10A1     1.569875     1A2     1.569875
       5B1     1.684861     5B2     1.684861    11A1     1.905904
      12A1     2.471012    13A1     3.892317     2A2     3.892334
       6B1     3.995491     6B2     3.995491    14A1     4.242949

    Final Occupation by Irrep:
             A1    A2    B1    B2
    DOCC [     5,    0,    1,    1 ]
    SOCC [     0,    0,    1,    1 ]
    NA   [     5,    0,    2,    2 ]
    NB   [     5,    0,    1,    1 ]

  @DF-UKS Final Energy:  -137.77707314761224

   => Energetics <=

    Nuclear Repulsion Energy =             19.2883218156620302
    One-Electron Energy =                -233.7793785791920982
    Two-Electron Energy =                  89.6875982880976039
    DFT Exchange-Correlation Energy =     -12.9736146721797514
    Empirical Dispersion Energy =           0.0000000000000000
    VV10 Nonlocal Energy =                  0.0000000000000000
    Total Energy =                       -137.7770731476122421

  UHF NO Occupations:
  HONO-2 :    5 A1 1.9972424
  HONO-1 :    2 B1 1.0000000
  HONO-0 :    2 B2 1.0000000
  LUNO+0 :    6 A1 0.0027576
  LUNO+1 :    3 B1 0.0001657
  LUNO+2 :    3 B2 0.0001657
  LUNO+3 :    7 A1 0.0000470

Computation Completed

Properties will be evaluated at   0.000000,   0.000000,   0.000000 [a0]

Properties computed using the SCF density matrix

 Multipole Moments:

 ------------------------------------------------------------------------------------
     Multipole            Electronic (a.u.)      Nuclear  (a.u.)        Total (a.u.)
 ------------------------------------------------------------------------------------

 L = 1.  Multiply by 2.5417464519 to convert [e a0] to [Debye]
 Dipole X            :          0.0000000            0.0000000            0.0000000
 Dipole Y            :          0.0000000            0.0000000            0.0000000
 Dipole Z            :         -1.7194418            0.5410248           -1.1784170
 Magnitude           :                                                    1.1784170

 ------------------------------------------------------------------------------------

*** tstop() called on Joses-MacBook-Pro-2.local at Thu Jul 17 09:59:19 2025
Module time:
	user time   =       2.72 seconds =       0.05 minutes
	system time =       3.50 seconds =       0.06 minutes
	total time  =          0 seconds =       0.00 minutes
Total time:
	user time   =      35.20 seconds =       0.59 minutes
	system time =      41.92 seconds =       0.70 minutes
	total time  =          7 seconds =       0.12 minutes

*** tstart() called on Joses-MacBook-Pro-2.local
*** at Thu Jul 17 09:59:19 2025

         ------------------------------------------------------------
                                   SCF GRAD
                          Rob Parrish, Justin Turney,
                       Andy Simmonett, and Alex Sokolov
         ------------------------------------------------------------

  ==> Geometry <==

    Molecular point group: c2v
    Full point group: C_inf_v

    Geometry (in Angstrom), charge = -1, multiplicity = 3:

       Center              X                  Y                   Z               Mass
    ------------   -----------------  -----------------  -----------------  -----------------
         C            0.000000000000     0.000000000000     0.907984064129    12.000000000000
         F            0.000000000000     0.000000000000    -0.573511819716    18.998403162730

  Nuclear repulsion =   19.288321815662030

  ==> Basis Set <==

  Basis Set: CC-PVDZ
    Blend: CC-PVDZ
    Number of shells: 12
    Number of basis functions: 28
    Number of Cartesian functions: 30
    Spherical Harmonics?: true
    Max angular momentum: 2

  ==> DFJKGrad: Density-Fitted SCF Gradients <==

    Gradient:                    1
    J tasked:                  Yes
    K tasked:                  Yes
    wK tasked:                  No
    OpenMP threads:              1
    Integrals threads:           1
    Memory [MiB]:              375
    Schwarz Cutoff:          1E-12
    Fitting Condition:       1E-10

   => Auxiliary Basis Set <=

  Basis Set: (CC-PVDZ AUX)
    Blend: CC-PVDZ-JKFIT
    Number of shells: 48
    Number of basis functions: 140
    Number of Cartesian functions: 162
    Spherical Harmonics?: true
    Max angular momentum: 3

  ==> DFT Potential <==

   => LibXC <=

    Version 6.2.2
    S. Lehtola, C. Steigemann, M. J.T. Oliveira, and M. A.L. Marques.,  SoftwareX 7, 1â€“5 (2018) (10.1016/j.softx.2017.11.002)

   => Composite Functional: B3LYP <=

    B3LYP Hyb-GGA Exchange-Correlation Functional

    P. J. Stephens, F. J. Devlin, C. F. Chabalowski, and M. J. Frisch.,  J. Phys. Chem. 98, 11623 (1994) (10.1021/j100096a001)

    Deriv               =              1
    GGA                 =           TRUE
    Meta                =          FALSE

    Exchange Hybrid     =           TRUE
    MP2 Hybrid          =          FALSE

   => Exchange Functionals <=

    0.0800   Slater exchange
    0.7200         Becke 88

   => Exact (HF) Exchange <=

    0.2000               HF

   => Correlation Functionals <=

    0.1900   Vosko, Wilk & Nusair (VWN5_RPA)
    0.8100   Lee, Yang & Parr

   => LibXC Density Thresholds  <==

    XC_HYB_GGA_XC_B3LYP:  1.00E-15

   => Molecular Quadrature <=

    Radial Scheme          =       TREUTLER
    Pruning Scheme         =           NONE
    Nuclear Scheme         =       TREUTLER

    Blocking Scheme        =         OCTREE
    BS radius alpha        =              1
    Pruning alpha          =              1
    Radial Points          =             75
    Spherical Points       =            302
    Total Points           =          43280
    Total Blocks           =            389
    Max Points             =            255
    Max Functions          =             28
    Weights Tolerance      =       1.00E-15

  -Total Gradient:
     Atom            X                  Y                   Z
    ------   -----------------  -----------------  -----------------
       1        0.000000000000    -0.000000000000    -0.000106488086
       2        0.000000000000     0.000000000000     0.000123987536

*** tstop() called on Joses-MacBook-Pro-2.local at Thu Jul 17 09:59:19 2025
Module time:
	user time   =       0.56 seconds =       0.01 minutes
	system time =       1.29 seconds =       0.02 minutes
	total time  =          0 seconds =       0.00 minutes
Total time:
	user time   =      35.76 seconds =       0.60 minutes
	system time =      43.21 seconds =       0.72 minutes
	total time  =          7 seconds =       0.12 minutes

    			-----------------------------------------

    			 OPTKING 3.0: for geometry optimizations

    			     By R.A. King, Bethel University

    			        with contributions from

    			    A.V. Copan, J. Cayton, A. Heide

    			-----------------------------------------

	                            ===> Fragment 1 <==

	 Z (Atomic Numbers)          Masses                          Geom
	       6.000000            12.000000          0.00000000  0.00000000  1.71584121
	       9.000000            18.998403          0.00000000  0.00000000 -1.08378027

	 - Coordinate -           - BOHR/RAD -       - ANG/DEG -
	 R(1,2)           =         2.799621           1.481496

	        --- Internal Coordinate Step in ANG or DEG, aJ/ANG or AJ/DEG ---
	-------------------------------------------------------------------------------
	           Coordinate      Previous         Force          Change          New
	           ----------      --------        ------          ------        ------
	               R(1,2)       1.48150        0.00095        0.00032       1.48182
	-------------------------------------------------------------------------------

	                                 ==> Convergence Check <==

	Measures of convergence in internal coordinates in au.

	Criteria marked as inactive (o), active & met (*), and active & unmet ( ).

	----------------------------------------------------------------------------------------------
	   Step    Total Energy     Delta E     Max Force     RMS Force      Max Disp      RMS Disp
	----------------------------------------------------------------------------------------------
	  Convergence Criteria     1.00e-06 *    3.00e-04 *             o    1.20e-03 *             o
	----------------------------------------------------------------------------------------------
	     9    -137.77707315   -1.41e-06      1.15e-04 *    1.15e-04 o    6.04e-04 *    6.04e-04 o  ~
	----------------------------------------------------------------------------------------------

Next Geometry in Ang
	Fragment 1 (Ang)

	    C   0.0000000000   0.0000000000   0.9081437978
	    F   0.0000000000   0.0000000000  -0.5736715534

    Final optimized geometry and variables:
    Molecular point group: c2v
    Full point group: C_inf_v

    Geometry (in Angstrom), charge = -1, multiplicity = 3:

    C            0.000000000000     0.000000000000     0.907984064129
    F            0.000000000000     0.000000000000    -0.573511819716

    Psi4 stopped on: Thursday, 17 July 2025 09:59AM
    Psi4 wall time for execution: 0:00:08.07

*** Psi4 exiting successfully. Buy a developer a beer!
