                               Psi4 1.9.1 release

  ==> Input File <==

--------------------------------------------------------------------------
molecule {
-1 3
Mg   0.00000        0.60000        0.00000
Cl   0.00000       -0.60000        0.00000
}

set {
basis              cc-pvdz
reference          uks
maxiter            500
geom_maxiter       500
DAMPING_PERCENTAGE 1
guess              SAP
}

optimize('b3lyp')
--------------------------------------------------------------------------

    Molecular point group: c2v
  Charge       = -1
  Multiplicity = 3
  Basis Set: CC-PVDZ
    Blend: CC-PVDZ
  Basis Set: (CC-PVDZ AUX)
    Blend: CC-PVDZ-JKFIT + DEF2-UNIVERSAL-JKFIT
  @DF-UKS Final Energy:  -659.14426686238278
    Total Energy =                       -659.1442668623827785
 Dipole X            :          0.0000000            0.0000000            0.0000000
 Dipole Y            :          0.0000000            0.0000000            0.0000000
 Dipole Z            :         -2.0832596            0.4569863           -1.6262733
 Magnitude           :                                                    1.6262733
    Molecular point group: c2v
  Basis Set: CC-PVDZ
    Blend: CC-PVDZ
  Basis Set: (CC-PVDZ AUX)
    Blend: CC-PVDZ-JKFIT + DEF2-UNIVERSAL-JKFIT
  Basis Set: CC-PVDZ
    Blend: CC-PVDZ
  Basis Set: (CC-PVDZ AUX)
    Blend: CC-PVDZ-JKFIT + DEF2-UNIVERSAL-JKFIT
  @DF-UKS Final Energy:  -659.16926293912286
    Total Energy =                       -659.1692629391228593
  Basis Set: CC-PVDZ
    Blend: CC-PVDZ
  Basis Set: (CC-PVDZ AUX)
    Blend: CC-PVDZ-JKFIT + DEF2-UNIVERSAL-JKFIT
  Basis Set: CC-PVDZ
    Blend: CC-PVDZ
  @DF-UKS Final Energy:  -659.21706581491276
    Total Energy =                       -659.2170658149127576
  @DF-UKS Final Energy:  -659.38553964072958
    Total Energy =                       -659.3855396407295757
  @DF-UKS Final Energy:  -659.97106771105382
    Total Energy =                       -659.9710677110538199
  @DF-UKS Final Energy:  -660.16969504177712
    Total Energy =                       -660.1696950417771177
  @DF-UKS Final Energy:  -660.26954678783966
    Total Energy =                       -660.2695467878395448
  @DF-UKS Final Energy:  -660.31670606073749
    Total Energy =                       -660.3167060607374879
  @DF-UKS Final Energy:  -660.33727411981090
    Total Energy =                       -660.3372741198110134
  @DF-UKS Final Energy:  -660.34467332720180
    Total Energy =                       -660.3446733272018037
  @DF-UKS Final Energy:  -660.34631131191281
    Total Energy =                       -660.3463113119129275
  @DF-UKS Final Energy:  -660.34681562918900
    Total Energy =                       -660.3468156291889954
  @DF-UKS Final Energy:  -660.34688568794058
    Total Energy =                       -660.3468856879405848
  @DF-UKS Final Energy:  -660.34689601052378
    Total Energy =                       -660.3468960105238921
  Basis Set: (CC-PVDZ AUX)
    Blend: CC-PVDZ-JKFIT + DEF2-UNIVERSAL-JKFIT
  Basis Set: CC-PVDZ
    Blend: CC-PVDZ
  Basis Set: (CC-PVDZ AUX)
    Blend: CC-PVDZ-JKFIT + DEF2-UNIVERSAL-JKFIT
  @DF-UKS Final Energy:  -660.34689765841983
    Total Energy =                       -660.3468976584197208
  Basis Set: CC-PVDZ
    Blend: CC-PVDZ
  Basis Set: (CC-PVDZ AUX)
    Blend: CC-PVDZ-JKFIT + DEF2-UNIVERSAL-JKFIT
  Charge       = -1
  Multiplicity = 3
  Basis Set: CC-PVDZ
    Blend: CC-PVDZ
  Basis Set: (CC-PVDZ AUX)
    Blend: CC-PVDZ-JKFIT + DEF2-UNIVERSAL-JKFIT

    Orbital Energies [Eh]
    ---------------------

    Alpha Occupied:

       1A1  -101.303451     2A1   -46.670276     3A1    -9.220481
       4A1    -6.979117     1B2    -6.976133     1B1    -6.975579
       5A1    -2.951041     2B2    -1.696240     2B1    -1.693961
       6A1    -1.693730     7A1    -0.573589     8A1    -0.150584
       3B2    -0.108780     3B1    -0.107811     9A1    -0.029036
       4B1     0.075695

    Alpha Virtual:

       4B2     0.117769    10A1     0.164196    11A1     0.235935
       5B1     0.294336     5B2     0.301836    12A1     0.352164
       1A2     0.467520    13A1     0.470855     6B1     0.477147
       6B2     0.479068    14A1     0.545537     7B2     0.789614
       7B1     0.792605    15A1     0.815542    16A1     0.963182
       2A2     0.963783    17A1     0.965275     8B2     1.031179
       8B1     1.032067    18A1     1.373414

    Beta Occupied:

       1A1  -101.302525     2A1   -46.667484     3A1    -9.219551
       4A1    -6.977159     1B2    -6.975580     1B1    -6.974155
       5A1    -2.946419     2B2    -1.693493     6A1    -1.690003
       2B1    -1.688618     7A1    -0.568114     8A1    -0.140913
       3B2    -0.107349     3B1    -0.102200

    Beta Virtual:

       9A1     0.065641     4B2     0.142359     4B1     0.157889
      10A1     0.181848    11A1     0.261396     5B2     0.318260
       5B1     0.332590    12A1     0.375257     6B2     0.501915
      13A1     0.511802     1A2     0.511967     6B1     0.516950
      14A1     0.566785     7B2     0.791417     7B1     0.796240
      15A1     0.824862    16A1     0.966290     2A2     0.967028
      17A1     0.970578     8B2     1.036730     8B1     1.042060
      18A1     1.380491

    Final Occupation by Irrep:
             A1    A2    B1    B2
    DOCC [     8,    0,    3,    3 ]
    SOCC [     1,    0,    1,    0 ]
    NA   [     9,    0,    4,    3 ]
    NB   [     8,    0,    3,    3 ]

  @DF-UKS Final Energy:  -660.34689769182262

   => Energetics <=

    Nuclear Repulsion Energy =             46.0211165004225009
    One-Electron Energy =               -1012.8532148808296824
    Two-Electron Energy =                 342.6957603188627104
    DFT Exchange-Correlation Energy =     -36.2105596302782047
    Empirical Dispersion Energy =           0.0000000000000000
    VV10 Nonlocal Energy =                  0.0000000000000000
    Total Energy =                       -660.3468976918226190

  UHF NO Occupations:
  HONO-2 :    8 A1 1.9998689
  HONO-1 :    4 B1 1.0000000
  HONO-0 :    9 A1 1.0000000
  LUNO+0 :   10 A1 0.0001311
  LUNO+1 :    4 B2 0.0000574
  LUNO+2 :    5 B1 0.0000388
  LUNO+3 :   11 A1 0.0000045

Computation Completed

Properties will be evaluated at   0.000000,   0.000000,   0.000000 [a0]

Properties computed using the SCF density matrix

 Multipole Moments:

 ------------------------------------------------------------------------------------
     Multipole            Electronic (a.u.)      Nuclear  (a.u.)        Total (a.u.)
 ------------------------------------------------------------------------------------

 L = 1.  Multiply by 2.5417464519 to convert [e a0] to [Debye]
 Dipole X            :          0.0000000            0.0000000            0.0000000
 Dipole Y            :          0.0000000            0.0000000            0.0000000
 Dipole Z            :         -1.9226246            0.8932974           -1.0293271
 Magnitude           :                                                    1.0293271

 ------------------------------------------------------------------------------------

*** tstop() called on Joses-MacBook-Pro-2.local at Thu Jul 17 11:30:18 2025
Module time:
	user time   =       6.12 seconds =       0.10 minutes
	system time =       2.87 seconds =       0.05 minutes
	total time  =          1 seconds =       0.02 minutes
Total time:
	user time   =     163.52 seconds =       2.73 minutes
	system time =      85.81 seconds =       1.43 minutes
	total time  =         24 seconds =       0.40 minutes

*** tstart() called on Joses-MacBook-Pro-2.local
*** at Thu Jul 17 11:30:18 2025

         ------------------------------------------------------------
                                   SCF GRAD
                          Rob Parrish, Justin Turney,
                       Andy Simmonett, and Alex Sokolov
         ------------------------------------------------------------

  ==> Geometry <==

    Molecular point group: c2v
    Full point group: C_inf_v

    Geometry (in Angstrom), charge = -1, multiplicity = 3:

       Center              X                  Y                   Z               Mass
    ------------   -----------------  -----------------  -----------------  -----------------
         MG           0.000000000000     0.000000000000     1.391371277777    23.985041697000
         CL           0.000000000000     0.000000000000    -0.954337805045    34.968852682000

  Nuclear repulsion =   46.021116500422501

  ==> Basis Set <==

  Basis Set: CC-PVDZ
    Blend: CC-PVDZ
    Number of shells: 16
    Number of basis functions: 36
    Number of Cartesian functions: 38
    Spherical Harmonics?: true
    Max angular momentum: 2

  ==> DFJKGrad: Density-Fitted SCF Gradients <==

    Gradient:                    1
    J tasked:                  Yes
    K tasked:                  Yes
    wK tasked:                  No
    OpenMP threads:              1
    Integrals threads:           1
    Memory [MiB]:              375
    Schwarz Cutoff:          1E-12
    Fitting Condition:       1E-10

   => Auxiliary Basis Set <=

  Basis Set: (CC-PVDZ AUX)
    Blend: CC-PVDZ-JKFIT + DEF2-UNIVERSAL-JKFIT
    Number of shells: 70
    Number of basis functions: 224
    Number of Cartesian functions: 267
    Spherical Harmonics?: true
    Max angular momentum: 4

  ==> DFT Potential <==

   => LibXC <=

    Version 6.2.2
    S. Lehtola, C. Steigemann, M. J.T. Oliveira, and M. A.L. Marques.,  SoftwareX 7, 1â€“5 (2018) (10.1016/j.softx.2017.11.002)

   => Composite Functional: B3LYP <=

    B3LYP Hyb-GGA Exchange-Correlation Functional

    P. J. Stephens, F. J. Devlin, C. F. Chabalowski, and M. J. Frisch.,  J. Phys. Chem. 98, 11623 (1994) (10.1021/j100096a001)

    Deriv               =              1
    GGA                 =           TRUE
    Meta                =          FALSE

    Exchange Hybrid     =           TRUE
    MP2 Hybrid          =          FALSE

   => Exchange Functionals <=

    0.0800   Slater exchange
    0.7200         Becke 88

   => Exact (HF) Exchange <=

    0.2000               HF

   => Correlation Functionals <=

    0.1900   Vosko, Wilk & Nusair (VWN5_RPA)
    0.8100   Lee, Yang & Parr

   => LibXC Density Thresholds  <==

    XC_HYB_GGA_XC_B3LYP:  1.00E-15

   => Molecular Quadrature <=

    Radial Scheme          =       TREUTLER
    Pruning Scheme         =           NONE
    Nuclear Scheme         =       TREUTLER

    Blocking Scheme        =         OCTREE
    BS radius alpha        =              1
    Pruning alpha          =              1
    Radial Points          =             75
    Spherical Points       =            302
    Total Points           =          43011
    Total Blocks           =            418
    Max Points             =            256
    Max Functions          =             36
    Weights Tolerance      =       1.00E-15

  -Total Gradient:
     Atom            X                  Y                   Z
    ------   -----------------  -----------------  -----------------
       1        0.000000000000    -0.000000000000     0.000006530804
       2        0.000000000000     0.000000000000     0.000039032926

*** tstop() called on Joses-MacBook-Pro-2.local at Thu Jul 17 11:30:18 2025
Module time:
	user time   =       1.77 seconds =       0.03 minutes
	system time =       2.24 seconds =       0.04 minutes
	total time  =          0 seconds =       0.00 minutes
Total time:
	user time   =     165.29 seconds =       2.75 minutes
	system time =      88.06 seconds =       1.47 minutes
	total time  =         24 seconds =       0.40 minutes

    			-----------------------------------------

    			 OPTKING 3.0: for geometry optimizations

    			     By R.A. King, Bethel University

    			        with contributions from

    			    A.V. Copan, J. Cayton, A. Heide

    			-----------------------------------------

	                            ===> Fragment 1 <==

	 Z (Atomic Numbers)          Masses                          Geom
	      12.000000            23.985042          0.00000000  0.00000000  2.62931065
	      17.000000            34.968853          0.00000000  0.00000000 -1.80343708

	 - Coordinate -           - BOHR/RAD -       - ANG/DEG -
	 R(1,2)           =         4.432748           2.345709

	        --- Internal Coordinate Step in ANG or DEG, aJ/ANG or AJ/DEG ---
	-------------------------------------------------------------------------------
	           Coordinate      Previous         Force          Change          New
	           ----------      --------        ------          ------        ------
	               R(1,2)       2.34571        0.00013        0.00012       2.34583
	-------------------------------------------------------------------------------

	                                 ==> Convergence Check <==

	Measures of convergence in internal coordinates in au.

	Criteria marked as inactive (o), active & met (*), and active & unmet ( ).

	----------------------------------------------------------------------------------------------
	   Step    Total Energy     Delta E     Max Force     RMS Force      Max Disp      RMS Disp
	----------------------------------------------------------------------------------------------
	  Convergence Criteria     1.00e-06 *    3.00e-04 *             o    1.20e-03 *             o
	----------------------------------------------------------------------------------------------
	    16    -660.34689769   -3.34e-08 *    1.63e-05 *    1.63e-05 o    2.23e-04 *    2.23e-04 o  ~
	----------------------------------------------------------------------------------------------

Next Geometry in Ang
	Fragment 1 (Ang)

	   Mg   0.0000000000   0.0000000000   1.3914304015
	   Cl   0.0000000000   0.0000000000  -0.9543969288

    Final optimized geometry and variables:
    Molecular point group: c2v
    Full point group: C_inf_v

    Geometry (in Angstrom), charge = -1, multiplicity = 3:

    MG           0.000000000000     0.000000000000     1.391371277777
    CL           0.000000000000     0.000000000000    -0.954337805045

    Psi4 stopped on: Thursday, 17 July 2025 11:30AM
    Psi4 wall time for execution: 0:00:25.09

*** Psi4 exiting successfully. Buy a developer a beer!
