                               Psi4 1.9.1 release

  ==> Input File <==

--------------------------------------------------------------------------
molecule {
-1 3
C   0.00000        0.60000        0.00000
Al   0.00000       -0.60000        0.00000
}

set {
basis              cc-pvdz
reference          uks
maxiter            500
geom_maxiter       500
DAMPING_PERCENTAGE 1
guess              SAP
}

optimize('b3lyp')
--------------------------------------------------------------------------

    Molecular point group: c2v
  Charge       = -1
  Multiplicity = 3
  Basis Set: CC-PVDZ
    Blend: CC-PVDZ
  Basis Set: (CC-PVDZ AUX)
    Blend: CC-PVDZ-JKFIT
  @DF-UKS Final Energy:  -279.89968282477298
    Total Energy =                       -279.8996828247729241
 Dipole X            :          0.0000000            0.0000000            0.0000000
 Dipole Y            :          0.0000000            0.0000000            0.0000000
 Dipole Z            :         -1.1377094            0.3425940           -0.7951154
 Magnitude           :                                                    0.7951154
    Molecular point group: c2v
  Basis Set: CC-PVDZ
    Blend: CC-PVDZ
  Basis Set: (CC-PVDZ AUX)
    Blend: CC-PVDZ-JKFIT
  Basis Set: CC-PVDZ
    Blend: CC-PVDZ
  Basis Set: (CC-PVDZ AUX)
    Blend: CC-PVDZ-JKFIT
  @DF-UKS Final Energy:  -280.11904321401795
    Total Energy =                       -280.1190432140178928
  Basis Set: CC-PVDZ
    Blend: CC-PVDZ
  Basis Set: (CC-PVDZ AUX)
    Blend: CC-PVDZ-JKFIT
  Basis Set: CC-PVDZ
    Blend: CC-PVDZ
  @DF-UKS Final Energy:  -280.23696466394694
    Total Energy =                       -280.2369646639469352
  @DF-UKS Final Energy:  -280.34130669482130
    Total Energy =                       -280.3413066948213554
  @DF-UKS Final Energy:  -280.36982593168187
    Total Energy =                       -280.3698259316818735
  @DF-UKS Final Energy:  -280.38152568705499
    Total Energy =                       -280.3815256870549888
  @DF-UKS Final Energy:  -280.38333532448303
    Total Energy =                       -280.3833353244830846
  @DF-UKS Final Energy:  -280.38375216293758
    Total Energy =                       -280.3837521629375829
  @DF-UKS Final Energy:  -280.38387689701256
    Total Energy =                       -280.3838768970125557
  Basis Set: (CC-PVDZ AUX)
    Blend: CC-PVDZ-JKFIT
  Basis Set: CC-PVDZ
    Blend: CC-PVDZ
  Basis Set: (CC-PVDZ AUX)
    Blend: CC-PVDZ-JKFIT
  @DF-UKS Final Energy:  -280.38389364801611
    Total Energy =                       -280.3838936480161692
  Basis Set: CC-PVDZ
    Blend: CC-PVDZ
  Basis Set: (CC-PVDZ AUX)
    Blend: CC-PVDZ-JKFIT
  Charge       = -1
  Multiplicity = 3
  Basis Set: CC-PVDZ
    Blend: CC-PVDZ
  Basis Set: (CC-PVDZ AUX)
    Blend: CC-PVDZ-JKFIT

    Orbital Energies [Eh]
    ---------------------

    Alpha Occupied:

       1A1   -55.816178     2A1    -9.985430     3A1    -3.900186
       1B1    -2.455185     4A1    -2.452456     1B2    -2.450493
       5A1    -0.353027     6A1    -0.092413     2B1    -0.010427
       7A1     0.005287     2B2     0.015615

    Alpha Virtual:

       3B1     0.160126     3B2     0.175845     8A1     0.232067
       9A1     0.364580     4B1     0.414795     4B2     0.427156
      10A1     0.469652     1A2     0.488135    11A1     0.490039
       5B1     0.542394     5B2     0.559101    12A1     0.618205
       6B1     0.746534     6B2     0.765366    13A1     0.889525
      14A1     1.075361     2A2     1.412493    15A1     1.412659
       7B1     1.525630     7B2     1.546834    16A1     1.818969

    Beta Occupied:

       1A1   -55.815347     2A1    -9.962713     3A1    -3.899280
       1B1    -2.453355     1B2    -2.451415     4A1    -2.448834
       5A1    -0.266336     6A1    -0.044182     2B2     0.046735

    Beta Virtual:

       2B1     0.104746     7A1     0.125192     3B2     0.193571
       3B1     0.212693     8A1     0.246585     9A1     0.372405
       4B2     0.421329     4B1     0.424654     1A2     0.488699
      10A1     0.490337    11A1     0.499036     5B2     0.571487
       5B1     0.576556    12A1     0.654088     6B2     0.797466
       6B1     0.809448    13A1     0.942176    14A1     1.127675
       2A2     1.476290    15A1     1.479001     7B2     1.604919
       7B1     1.612936    16A1     1.884930

    Final Occupation by Irrep:
             A1    A2    B1    B2
    DOCC [     6,    0,    1,    2 ]
    SOCC [     1,    0,    1,    0 ]
    NA   [     7,    0,    2,    2 ]
    NB   [     6,    0,    1,    2 ]

  @DF-UKS Final Energy:  -280.38389628462619

   => Energetics <=

    Nuclear Repulsion Energy =             21.8130422825428347
    One-Electron Energy =                -435.6947092319339845
    Two-Electron Energy =                 152.9503872038551435
    DFT Exchange-Correlation Energy =     -19.4526165390901973
    Empirical Dispersion Energy =           0.0000000000000000
    VV10 Nonlocal Energy =                  0.0000000000000000
    Total Energy =                       -280.3838962846261893

  UHF NO Occupations:
  HONO-2 :    2 B2 1.9629723
  HONO-1 :    7 A1 1.0000000
  HONO-0 :    2 B1 1.0000000
  LUNO+0 :    3 B2 0.0370277
  LUNO+1 :    8 A1 0.0019360
  LUNO+2 :    9 A1 0.0008402
  LUNO+3 :   10 A1 0.0000002

Computation Completed

Properties will be evaluated at   0.000000,   0.000000,   0.000000 [a0]

Properties computed using the SCF density matrix

 Multipole Moments:

 ------------------------------------------------------------------------------------
     Multipole            Electronic (a.u.)      Nuclear  (a.u.)        Total (a.u.)
 ------------------------------------------------------------------------------------

 L = 1.  Multiply by 2.5417464519 to convert [e a0] to [Debye]
 Dipole X            :          0.0000000            0.0000000            0.0000000
 Dipole Y            :          0.0000000            0.0000000            0.0000000
 Dipole Z            :         -0.8956460            0.5402291           -0.3554168
 Magnitude           :                                                    0.3554168

 ------------------------------------------------------------------------------------

*** tstop() called on Joses-MacBook-Pro-2.local at Thu Jul 17 10:19:57 2025
Module time:
	user time   =       2.14 seconds =       0.04 minutes
	system time =       4.84 seconds =       0.08 minutes
	total time  =          1 seconds =       0.02 minutes
Total time:
	user time   =      65.70 seconds =       1.09 minutes
	system time =      66.87 seconds =       1.11 minutes
	total time  =         15 seconds =       0.25 minutes

*** tstart() called on Joses-MacBook-Pro-2.local
*** at Thu Jul 17 10:19:57 2025

         ------------------------------------------------------------
                                   SCF GRAD
                          Rob Parrish, Justin Turney,
                       Andy Simmonett, and Alex Sokolov
         ------------------------------------------------------------

  ==> Geometry <==

    Molecular point group: c2v
    Full point group: C_inf_v

    Geometry (in Angstrom), charge = -1, multiplicity = 3:

       Center              X                  Y                   Z               Mass
    ------------   -----------------  -----------------  -----------------  -----------------
         C            0.000000000000     0.000000000000     1.309746445594    12.000000000000
         AL           0.000000000000     0.000000000000    -0.582507825847    26.981538530000

  Nuclear repulsion =   21.813042282542835

  ==> Basis Set <==

  Basis Set: CC-PVDZ
    Blend: CC-PVDZ
    Number of shells: 14
    Number of basis functions: 32
    Number of Cartesian functions: 34
    Spherical Harmonics?: true
    Max angular momentum: 2

  ==> DFJKGrad: Density-Fitted SCF Gradients <==

    Gradient:                    1
    J tasked:                  Yes
    K tasked:                  Yes
    wK tasked:                  No
    OpenMP threads:              1
    Integrals threads:           1
    Memory [MiB]:              375
    Schwarz Cutoff:          1E-12
    Fitting Condition:       1E-10

   => Auxiliary Basis Set <=

  Basis Set: (CC-PVDZ AUX)
    Blend: CC-PVDZ-JKFIT
    Number of shells: 60
    Number of basis functions: 182
    Number of Cartesian functions: 211
    Spherical Harmonics?: true
    Max angular momentum: 3

  ==> DFT Potential <==

   => LibXC <=

    Version 6.2.2
    S. Lehtola, C. Steigemann, M. J.T. Oliveira, and M. A.L. Marques.,  SoftwareX 7, 1â€“5 (2018) (10.1016/j.softx.2017.11.002)

   => Composite Functional: B3LYP <=

    B3LYP Hyb-GGA Exchange-Correlation Functional

    P. J. Stephens, F. J. Devlin, C. F. Chabalowski, and M. J. Frisch.,  J. Phys. Chem. 98, 11623 (1994) (10.1021/j100096a001)

    Deriv               =              1
    GGA                 =           TRUE
    Meta                =          FALSE

    Exchange Hybrid     =           TRUE
    MP2 Hybrid          =          FALSE

   => Exchange Functionals <=

    0.0800   Slater exchange
    0.7200         Becke 88

   => Exact (HF) Exchange <=

    0.2000               HF

   => Correlation Functionals <=

    0.1900   Vosko, Wilk & Nusair (VWN5_RPA)
    0.8100   Lee, Yang & Parr

   => LibXC Density Thresholds  <==

    XC_HYB_GGA_XC_B3LYP:  1.00E-15

   => Molecular Quadrature <=

    Radial Scheme          =       TREUTLER
    Pruning Scheme         =           NONE
    Nuclear Scheme         =       TREUTLER

    Blocking Scheme        =         OCTREE
    BS radius alpha        =              1
    Pruning alpha          =              1
    Radial Points          =             75
    Spherical Points       =            302
    Total Points           =          43263
    Total Blocks           =            403
    Max Points             =            256
    Max Functions          =             32
    Weights Tolerance      =       1.00E-15

  -Total Gradient:
     Atom            X                  Y                   Z
    ------   -----------------  -----------------  -----------------
       1        0.000000000000    -0.000000000000    -0.000188326449
       2       -0.000000000000     0.000000000000     0.000169170415

*** tstop() called on Joses-MacBook-Pro-2.local at Thu Jul 17 10:19:57 2025
Module time:
	user time   =       0.82 seconds =       0.01 minutes
	system time =       1.82 seconds =       0.03 minutes
	total time  =          0 seconds =       0.00 minutes
Total time:
	user time   =      66.53 seconds =       1.11 minutes
	system time =      68.69 seconds =       1.14 minutes
	total time  =         15 seconds =       0.25 minutes

    			-----------------------------------------

    			 OPTKING 3.0: for geometry optimizations

    			     By R.A. King, Bethel University

    			        with contributions from

    			    A.V. Copan, J. Cayton, A. Heide

    			-----------------------------------------

	                            ===> Fragment 1 <==

	 Z (Atomic Numbers)          Masses                          Geom
	       6.000000            12.000000          0.00000000  0.00000000  2.47506208
	      13.000000            26.981539          0.00000000  0.00000000 -1.10078026

	 - Coordinate -           - BOHR/RAD -       - ANG/DEG -
	 R(1,2)           =         3.575842           1.892254

	        --- Internal Coordinate Step in ANG or DEG, aJ/ANG or AJ/DEG ---
	-------------------------------------------------------------------------------
	           Coordinate      Previous         Force          Change          New
	           ----------      --------        ------          ------        ------
	               R(1,2)       1.89225        0.00147        0.00054       1.89279
	-------------------------------------------------------------------------------

	                                 ==> Convergence Check <==

	Measures of convergence in internal coordinates in au.

	Criteria marked as inactive (o), active & met (*), and active & unmet ( ).

	----------------------------------------------------------------------------------------------
	   Step    Total Energy     Delta E     Max Force     RMS Force      Max Disp      RMS Disp
	----------------------------------------------------------------------------------------------
	  Convergence Criteria     1.00e-06 *    3.00e-04 *             o    1.20e-03 *             o
	----------------------------------------------------------------------------------------------
	    11    -280.38389628   -2.64e-06      1.79e-04 *    1.79e-04 o    1.02e-03 *    1.02e-03 o  ~
	----------------------------------------------------------------------------------------------

Next Geometry in Ang
	Fragment 1 (Ang)

	    C   0.0000000000   0.0000000000   1.3100151215
	   Al   0.0000000000   0.0000000000  -0.5827765018

    Final optimized geometry and variables:
    Molecular point group: c2v
    Full point group: C_inf_v

    Geometry (in Angstrom), charge = -1, multiplicity = 3:

    C            0.000000000000     0.000000000000     1.309746445594
    AL           0.000000000000     0.000000000000    -0.582507825847

    Psi4 stopped on: Thursday, 17 July 2025 10:19AM
    Psi4 wall time for execution: 0:00:15.02

*** Psi4 exiting successfully. Buy a developer a beer!
