                               Psi4 1.9.1 release

  ==> Input File <==

--------------------------------------------------------------------------
molecule {
-1 3
F   0.00000        0.60000        0.00000
S   0.00000       -0.60000        0.00000
}

set {
basis              cc-pvdz
reference          uks
maxiter            500
geom_maxiter       500
DAMPING_PERCENTAGE 1
guess              SAP
}

optimize('b3lyp')
--------------------------------------------------------------------------

    Molecular point group: c2v
  Charge       = -1
  Multiplicity = 3
  Basis Set: CC-PVDZ
    Blend: CC-PVDZ
  Basis Set: (CC-PVDZ AUX)
    Blend: CC-PVDZ-JKFIT
  @DF-UKS Final Energy:  -497.52946111588119
    Total Energy =                       -497.5294611158811904
 Dipole X            :          0.0000000            0.0000000            0.0000000
 Dipole Y            :          0.0000000            0.0000000            0.0000000
 Dipole Z            :          1.9111699           -0.7218847            1.1892853
 Magnitude           :                                                    1.1892853
    Molecular point group: c2v
  Basis Set: CC-PVDZ
    Blend: CC-PVDZ
  Basis Set: (CC-PVDZ AUX)
    Blend: CC-PVDZ-JKFIT
  Basis Set: CC-PVDZ
    Blend: CC-PVDZ
  Basis Set: (CC-PVDZ AUX)
    Blend: CC-PVDZ-JKFIT
  @DF-UKS Final Energy:  -497.71904189769151
    Total Energy =                       -497.7190418976915112
  Basis Set: CC-PVDZ
    Blend: CC-PVDZ
  Basis Set: (CC-PVDZ AUX)
    Blend: CC-PVDZ-JKFIT
  Basis Set: CC-PVDZ
    Blend: CC-PVDZ
  @DF-UKS Final Energy:  -497.83595082752362
    Total Energy =                       -497.8359508275236180
  @DF-UKS Final Energy:  -497.91098713569068
    Total Energy =                       -497.9109871356906751
  @DF-UKS Final Energy:  -497.95757367842754
    Total Energy =                       -497.9575736784275364
  @DF-UKS Final Energy:  -497.97708448397657
    Total Energy =                       -497.9770844839765687
  @DF-UKS Final Energy:  -497.98403513666921
    Total Energy =                       -497.9840351366692062
  @DF-UKS Final Energy:  -497.98602915937329
    Total Energy =                       -497.9860291593732882
  @DF-UKS Final Energy:  -497.98635830706053
    Total Energy =                       -497.9863583070605273
  @DF-UKS Final Energy:  -497.98642289166480
    Total Energy =                       -497.9864228916648017
  @DF-UKS Final Energy:  -497.98643932470577
    Total Energy =                       -497.9864393247057706
  Basis Set: (CC-PVDZ AUX)
    Blend: CC-PVDZ-JKFIT
  Basis Set: CC-PVDZ
    Blend: CC-PVDZ
  Basis Set: (CC-PVDZ AUX)
    Blend: CC-PVDZ-JKFIT
  @DF-UKS Final Energy:  -497.98644100863118
    Total Energy =                       -497.9864410086311750
  Basis Set: CC-PVDZ
    Blend: CC-PVDZ
  Basis Set: (CC-PVDZ AUX)
    Blend: CC-PVDZ-JKFIT
  Charge       = -1
  Multiplicity = 3
  Basis Set: CC-PVDZ
    Blend: CC-PVDZ
  Basis Set: (CC-PVDZ AUX)
    Blend: CC-PVDZ-JKFIT

    Orbital Energies [Eh]
    ---------------------

    Alpha Occupied:

       1A1   -88.628354     2A1   -24.327579     3A1    -7.684801
       1B2    -5.654647     4A1    -5.648949     1B1    -5.637422
       5A1    -0.784534     6A1    -0.421275     7A1    -0.112836
       2B2    -0.070029     2B1    -0.052063     3B2    -0.029529
       3B1     0.005062     8A1     0.035187

    Alpha Virtual:

       9A1     0.700295     4B2     0.712412     4B1     0.742427
      10A1     0.755239     5B2     0.823300    11A1     0.841590
       1A2     0.844237     5B1     0.858181    12A1     0.901528
       6B2     1.476490     6B1     1.484076    13A1     1.544197
      14A1     2.105291     7B2     3.908630     7B1     3.915465
      15A1     3.923551     2A2     3.933403    16A1     3.934778

    Beta Occupied:

       1A1   -88.619838     2A1   -24.311846     3A1    -7.676025
       1B2    -5.636527     4A1    -5.633943     1B1    -5.632154
       5A1    -0.744101     6A1    -0.350970     2B1    -0.036682
       7A1    -0.036342     2B2    -0.026111     3B1     0.026257

    Beta Virtual:

       3B2     0.100013     8A1     0.168477     9A1     0.730801
       4B1     0.754919     4B2     0.760238    10A1     0.798868
       1A2     0.896390     5B1     0.896396    11A1     0.900406
       5B2     0.904171    12A1     0.947818     6B1     1.493229
       6B2     1.494314    13A1     1.581300    14A1     2.133879
      15A1     3.948327     2A2     3.948415     7B1     3.952852
       7B2     3.952990    16A1     3.974624

    Final Occupation by Irrep:
             A1    A2    B1    B2
    DOCC [     7,    0,    3,    2 ]
    SOCC [     1,    0,    0,    1 ]
    NA   [     8,    0,    3,    3 ]
    NB   [     7,    0,    3,    2 ]

  @DF-UKS Final Energy:  -497.98644124267332

   => Energetics <=

    Nuclear Repulsion Energy =             34.0096139423312565
    One-Electron Energy =                -765.3801971853921486
    Two-Electron Energy =                 262.7295789875247465
    DFT Exchange-Correlation Energy =     -29.3454369871371625
    Empirical Dispersion Energy =           0.0000000000000000
    VV10 Nonlocal Energy =                  0.0000000000000000
    Total Energy =                       -497.9864412426733224

  UHF NO Occupations:
  HONO-2 :    7 A1 1.9991508
  HONO-1 :    3 B2 1.0000000
  HONO-0 :    8 A1 1.0000000
  LUNO+0 :    9 A1 0.0008492
  LUNO+1 :   10 A1 0.0006498
  LUNO+2 :    4 B2 0.0002068
  LUNO+3 :    4 B1 0.0001027

Computation Completed

Properties will be evaluated at   0.000000,   0.000000,   0.000000 [a0]

Properties computed using the SCF density matrix

 Multipole Moments:

 ------------------------------------------------------------------------------------
     Multipole            Electronic (a.u.)      Nuclear  (a.u.)        Total (a.u.)
 ------------------------------------------------------------------------------------

 L = 1.  Multiply by 2.5417464519 to convert [e a0] to [Debye]
 Dipole X            :          0.0000000            0.0000000            0.0000000
 Dipole Y            :          0.0000000            0.0000000            0.0000000
 Dipole Z            :          0.9650720           -1.3478715           -0.3827996
 Magnitude           :                                                    0.3827996

 ------------------------------------------------------------------------------------

*** tstop() called on Joses-MacBook-Pro-2.local at Thu Jul 17 10:55:19 2025
Module time:
	user time   =       3.19 seconds =       0.05 minutes
	system time =       3.61 seconds =       0.06 minutes
	total time  =          1 seconds =       0.02 minutes
Total time:
	user time   =      65.49 seconds =       1.09 minutes
	system time =      72.11 seconds =       1.20 minutes
	total time  =         13 seconds =       0.22 minutes

*** tstart() called on Joses-MacBook-Pro-2.local
*** at Thu Jul 17 10:55:19 2025

         ------------------------------------------------------------
                                   SCF GRAD
                          Rob Parrish, Justin Turney,
                       Andy Simmonett, and Alex Sokolov
         ------------------------------------------------------------

  ==> Geometry <==

    Molecular point group: c2v
    Full point group: C_inf_v

    Geometry (in Angstrom), charge = -1, multiplicity = 3:

       Center              X                  Y                   Z               Mass
    ------------   -----------------  -----------------  -----------------  -----------------
         F            0.000000000000     0.000000000000     1.405445530267    18.998403162730
         S            0.000000000000     0.000000000000    -0.835142041991    31.972071174400

  Nuclear repulsion =   34.009613942331256

  ==> Basis Set <==

  Basis Set: CC-PVDZ
    Blend: CC-PVDZ
    Number of shells: 14
    Number of basis functions: 32
    Number of Cartesian functions: 34
    Spherical Harmonics?: true
    Max angular momentum: 2

  ==> DFJKGrad: Density-Fitted SCF Gradients <==

    Gradient:                    1
    J tasked:                  Yes
    K tasked:                  Yes
    wK tasked:                  No
    OpenMP threads:              1
    Integrals threads:           1
    Memory [MiB]:              375
    Schwarz Cutoff:          1E-12
    Fitting Condition:       1E-10

   => Auxiliary Basis Set <=

  Basis Set: (CC-PVDZ AUX)
    Blend: CC-PVDZ-JKFIT
    Number of shells: 60
    Number of basis functions: 182
    Number of Cartesian functions: 211
    Spherical Harmonics?: true
    Max angular momentum: 3

  ==> DFT Potential <==

   => LibXC <=

    Version 6.2.2
    S. Lehtola, C. Steigemann, M. J.T. Oliveira, and M. A.L. Marques.,  SoftwareX 7, 1â€“5 (2018) (10.1016/j.softx.2017.11.002)

   => Composite Functional: B3LYP <=

    B3LYP Hyb-GGA Exchange-Correlation Functional

    P. J. Stephens, F. J. Devlin, C. F. Chabalowski, and M. J. Frisch.,  J. Phys. Chem. 98, 11623 (1994) (10.1021/j100096a001)

    Deriv               =              1
    GGA                 =           TRUE
    Meta                =          FALSE

    Exchange Hybrid     =           TRUE
    MP2 Hybrid          =          FALSE

   => Exchange Functionals <=

    0.0800   Slater exchange
    0.7200         Becke 88

   => Exact (HF) Exchange <=

    0.2000               HF

   => Correlation Functionals <=

    0.1900   Vosko, Wilk & Nusair (VWN5_RPA)
    0.8100   Lee, Yang & Parr

   => LibXC Density Thresholds  <==

    XC_HYB_GGA_XC_B3LYP:  1.00E-15

   => Molecular Quadrature <=

    Radial Scheme          =       TREUTLER
    Pruning Scheme         =           NONE
    Nuclear Scheme         =       TREUTLER

    Blocking Scheme        =         OCTREE
    BS radius alpha        =              1
    Pruning alpha          =              1
    Radial Points          =             75
    Spherical Points       =            302
    Total Points           =          42220
    Total Blocks           =            381
    Max Points             =            249
    Max Functions          =             32
    Weights Tolerance      =       1.00E-15

  -Total Gradient:
     Atom            X                  Y                   Z
    ------   -----------------  -----------------  -----------------
       1        0.000000000000     0.000000000000     0.000007946469
       2        0.000000000000     0.000000000000     0.000042099954

*** tstop() called on Joses-MacBook-Pro-2.local at Thu Jul 17 10:55:19 2025
Module time:
	user time   =       0.85 seconds =       0.01 minutes
	system time =       1.58 seconds =       0.03 minutes
	total time  =          0 seconds =       0.00 minutes
Total time:
	user time   =      66.35 seconds =       1.11 minutes
	system time =      73.69 seconds =       1.23 minutes
	total time  =         13 seconds =       0.22 minutes

    			-----------------------------------------

    			 OPTKING 3.0: for geometry optimizations

    			     By R.A. King, Bethel University

    			        with contributions from

    			    A.V. Copan, J. Cayton, A. Heide

    			-----------------------------------------

	                            ===> Fragment 1 <==

	 Z (Atomic Numbers)          Masses                          Geom
	       9.000000            18.998403          0.00000000  0.00000000  2.65590714
	      16.000000            31.972071          0.00000000  0.00000000 -1.57818974

	 - Coordinate -           - BOHR/RAD -       - ANG/DEG -
	 R(1,2)           =         4.234097           2.240588

	        --- Internal Coordinate Step in ANG or DEG, aJ/ANG or AJ/DEG ---
	-------------------------------------------------------------------------------
	           Coordinate      Previous         Force          Change          New
	           ----------      --------        ------          ------        ------
	               R(1,2)       2.24059        0.00014        0.00020       2.24079
	-------------------------------------------------------------------------------

	                                 ==> Convergence Check <==

	Measures of convergence in internal coordinates in au.

	Criteria marked as inactive (o), active & met (*), and active & unmet ( ).

	----------------------------------------------------------------------------------------------
	   Step    Total Energy     Delta E     Max Force     RMS Force      Max Disp      RMS Disp
	----------------------------------------------------------------------------------------------
	  Convergence Criteria     1.00e-06 *    3.00e-04 *             o    1.20e-03 *             o
	----------------------------------------------------------------------------------------------
	    13    -497.98644124   -2.34e-07 *    1.71e-05 *    1.71e-05 o    3.84e-04 *    3.84e-04 o  ~
	----------------------------------------------------------------------------------------------

Next Geometry in Ang
	Fragment 1 (Ang)

	    F   0.0000000000   0.0000000000   1.4055470498
	    S   0.0000000000   0.0000000000  -0.8352435615

    Final optimized geometry and variables:
    Molecular point group: c2v
    Full point group: C_inf_v

    Geometry (in Angstrom), charge = -1, multiplicity = 3:

    F            0.000000000000     0.000000000000     1.405445530267
    S            0.000000000000     0.000000000000    -0.835142041991

    Psi4 stopped on: Thursday, 17 July 2025 10:55AM
    Psi4 wall time for execution: 0:00:13.96

*** Psi4 exiting successfully. Buy a developer a beer!
