                               Psi4 1.9.1 release

  ==> Input File <==

--------------------------------------------------------------------------
molecule {
-1 3
Li   0.00000        0.60000        0.00000
Si   0.00000       -0.60000        0.00000
}

set {
basis              cc-pvdz
reference          uks
maxiter            500
geom_maxiter       500
DAMPING_PERCENTAGE 1
guess              SAP
}

optimize('b3lyp')
--------------------------------------------------------------------------

    Molecular point group: c2v
  Charge       = -1
  Multiplicity = 3
  Basis Set: CC-PVDZ
    Blend: CC-PVDZ
  Basis Set: (CC-PVDZ AUX)
    Blend: CC-PVDZ-JKFIT + DEF2-UNIVERSAL-JKFIT
  @DF-UKS Final Energy:  -296.55979393700227
    Total Energy =                       -296.5597939370022686
 Dipole X            :          0.0000000            0.0000000            0.0000000
 Dipole Y            :          0.0000000            0.0000000            0.0000000
 Dipole Z            :         -0.7935236           -0.9262567           -1.7197803
 Magnitude           :                                                    1.7197803
    Molecular point group: c2v
  Basis Set: CC-PVDZ
    Blend: CC-PVDZ
  Basis Set: (CC-PVDZ AUX)
    Blend: CC-PVDZ-JKFIT + DEF2-UNIVERSAL-JKFIT
  Basis Set: CC-PVDZ
    Blend: CC-PVDZ
  Basis Set: (CC-PVDZ AUX)
    Blend: CC-PVDZ-JKFIT + DEF2-UNIVERSAL-JKFIT
  @DF-UKS Final Energy:  -296.63617715587850
    Total Energy =                       -296.6361771558785563
  Basis Set: CC-PVDZ
    Blend: CC-PVDZ
  Basis Set: (CC-PVDZ AUX)
    Blend: CC-PVDZ-JKFIT + DEF2-UNIVERSAL-JKFIT
  Basis Set: CC-PVDZ
    Blend: CC-PVDZ
  @DF-UKS Final Energy:  -296.73061001002327
    Total Energy =                       -296.7306100100232129
  @DF-UKS Final Energy:  -296.85345577841792
    Total Energy =                       -296.8534557784179242
  @DF-UKS Final Energy:  -296.91072582671478
    Total Energy =                       -296.9107258267147813
  @DF-UKS Final Energy:  -296.93182217650406
    Total Energy =                       -296.9318221765040562
  @DF-UKS Final Energy:  -296.93930138346281
    Total Energy =                       -296.9393013834628618
  @DF-UKS Final Energy:  -296.94124682598158
    Total Energy =                       -296.9412468259815796
  @DF-UKS Final Energy:  -296.94149991085993
    Total Energy =                       -296.9414999108599318
  @DF-UKS Final Energy:  -296.94153956958962
    Total Energy =                       -296.9415395695896223
  Basis Set: (CC-PVDZ AUX)
    Blend: CC-PVDZ-JKFIT + DEF2-UNIVERSAL-JKFIT
  Basis Set: CC-PVDZ
    Blend: CC-PVDZ
  Basis Set: (CC-PVDZ AUX)
    Blend: CC-PVDZ-JKFIT + DEF2-UNIVERSAL-JKFIT
  @DF-UKS Final Energy:  -296.94154152917287
    Total Energy =                       -296.9415415291728664
  Basis Set: CC-PVDZ
    Blend: CC-PVDZ
  Basis Set: (CC-PVDZ AUX)
    Blend: CC-PVDZ-JKFIT + DEF2-UNIVERSAL-JKFIT
  Charge       = -1
  Multiplicity = 3
  Basis Set: CC-PVDZ
    Blend: CC-PVDZ
  Basis Set: (CC-PVDZ AUX)
    Blend: CC-PVDZ-JKFIT + DEF2-UNIVERSAL-JKFIT

    Orbital Energies [Eh]
    ---------------------

    Alpha Occupied:

       1A1   -65.926484     2A1    -5.069509     3A1    -3.430616
       1B2    -3.430000     1B1    -3.424809     4A1    -1.858936
       5A1    -0.238270     6A1    -0.011148     2B2     0.011473
       2B1     0.030173

    Alpha Virtual:

       7A1     0.072164     3B2     0.124569     3B1     0.126199
       8A1     0.142255     4B2     0.206538     9A1     0.207562
       4B1     0.211060    10A1     0.336512     1A2     0.369532
      11A1     0.369585     5B2     0.389211     5B1     0.397128
      12A1     0.426290     6B2     0.525936     6B1     0.540976
      13A1     0.548610     2A2     0.596693    14A1     0.597790
      15A1     0.672837     7B2     0.709692     7B1     0.722829
      16A1     1.052331

    Beta Occupied:

       1A1   -65.921807     2A1    -5.064195     3A1    -3.421453
       1B2    -3.420902     1B1    -3.420189     4A1    -1.854286
       5A1    -0.179129     2B1     0.049805

    Beta Virtual:

       6A1     0.061328     2B2     0.094047     7A1     0.104727
       3B1     0.133938     8A1     0.147578     3B2     0.150037
       9A1     0.209927     4B1     0.216877     4B2     0.230125
      10A1     0.359528     1A2     0.383096    11A1     0.390638
       5B1     0.411884     5B2     0.423451    12A1     0.459096
       6B1     0.554474     6B2     0.559955    13A1     0.583426
       2A2     0.635496    14A1     0.637497    15A1     0.697682
       7B1     0.752709     7B2     0.759945    16A1     1.077778

    Final Occupation by Irrep:
             A1    A2    B1    B2
    DOCC [     5,    0,    2,    1 ]
    SOCC [     1,    0,    0,    1 ]
    NA   [     6,    0,    2,    2 ]
    NB   [     5,    0,    2,    1 ]

  @DF-UKS Final Energy:  -296.94154162392294

   => Energetics <=

    Nuclear Repulsion Energy =              9.6057076831259600
    One-Electron Energy =                -433.3708821908651316
    Two-Electron Energy =                 145.2440730942600453
    DFT Exchange-Correlation Energy =     -18.4204402104438145
    Empirical Dispersion Energy =           0.0000000000000000
    VV10 Nonlocal Energy =                  0.0000000000000000
    Total Energy =                       -296.9415416239229444

  UHF NO Occupations:
  HONO-2 :    2 B1 1.9728347
  HONO-1 :    6 A1 1.0000000
  HONO-0 :    2 B2 1.0000000
  LUNO+0 :    3 B1 0.0271653
  LUNO+1 :    7 A1 0.0007519
  LUNO+2 :    8 A1 0.0000003
  LUNO+3 :    3 B2 0.0000000

Computation Completed

Properties will be evaluated at   0.000000,   0.000000,   0.000000 [a0]

Properties computed using the SCF density matrix

 Multipole Moments:

 ------------------------------------------------------------------------------------
     Multipole            Electronic (a.u.)      Nuclear  (a.u.)        Total (a.u.)
 ------------------------------------------------------------------------------------

 L = 1.  Multiply by 2.5417464519 to convert [e a0] to [Debye]
 Dipole X            :          0.0000000            0.0000000            0.0000000
 Dipole Y            :          0.0000000            0.0000000            0.0000000
 Dipole Z            :          1.7133218           -1.7859577           -0.0726359
 Magnitude           :                                                    0.0726359

 ------------------------------------------------------------------------------------

*** tstop() called on Joses-MacBook-Pro-2.local at Thu Jul 17 09:34:23 2025
Module time:
	user time   =       4.38 seconds =       0.07 minutes
	system time =       3.57 seconds =       0.06 minutes
	total time  =          0 seconds =       0.00 minutes
Total time:
	user time   =      68.85 seconds =       1.15 minutes
	system time =      69.06 seconds =       1.15 minutes
	total time  =         13 seconds =       0.22 minutes

*** tstart() called on Joses-MacBook-Pro-2.local
*** at Thu Jul 17 09:34:23 2025

         ------------------------------------------------------------
                                   SCF GRAD
                          Rob Parrish, Justin Turney,
                       Andy Simmonett, and Alex Sokolov
         ------------------------------------------------------------

  ==> Geometry <==

    Molecular point group: c2v
    Full point group: C_inf_v

    Geometry (in Angstrom), charge = -1, multiplicity = 3:

       Center              X                  Y                   Z               Mass
    ------------   -----------------  -----------------  -----------------  -----------------
         LI           0.000000000000     0.000000000000     1.849868050723     7.016003436600
         SI           0.000000000000     0.000000000000    -0.463906590492    27.976926534650

  Nuclear repulsion =    9.605707683125960

  ==> Basis Set <==

  Basis Set: CC-PVDZ
    Blend: CC-PVDZ
    Number of shells: 14
    Number of basis functions: 32
    Number of Cartesian functions: 34
    Spherical Harmonics?: true
    Max angular momentum: 2

  ==> DFJKGrad: Density-Fitted SCF Gradients <==

    Gradient:                    1
    J tasked:                  Yes
    K tasked:                  Yes
    wK tasked:                  No
    OpenMP threads:              1
    Integrals threads:           1
    Memory [MiB]:              375
    Schwarz Cutoff:          1E-12
    Fitting Condition:       1E-10

   => Auxiliary Basis Set <=

  Basis Set: (CC-PVDZ AUX)
    Blend: CC-PVDZ-JKFIT + DEF2-UNIVERSAL-JKFIT
    Number of shells: 53
    Number of basis functions: 163
    Number of Cartesian functions: 190
    Spherical Harmonics?: true
    Max angular momentum: 3

  ==> DFT Potential <==

   => LibXC <=

    Version 6.2.2
    S. Lehtola, C. Steigemann, M. J.T. Oliveira, and M. A.L. Marques.,  SoftwareX 7, 1â€“5 (2018) (10.1016/j.softx.2017.11.002)

   => Composite Functional: B3LYP <=

    B3LYP Hyb-GGA Exchange-Correlation Functional

    P. J. Stephens, F. J. Devlin, C. F. Chabalowski, and M. J. Frisch.,  J. Phys. Chem. 98, 11623 (1994) (10.1021/j100096a001)

    Deriv               =              1
    GGA                 =           TRUE
    Meta                =          FALSE

    Exchange Hybrid     =           TRUE
    MP2 Hybrid          =          FALSE

   => Exchange Functionals <=

    0.0800   Slater exchange
    0.7200         Becke 88

   => Exact (HF) Exchange <=

    0.2000               HF

   => Correlation Functionals <=

    0.1900   Vosko, Wilk & Nusair (VWN5_RPA)
    0.8100   Lee, Yang & Parr

   => LibXC Density Thresholds  <==

    XC_HYB_GGA_XC_B3LYP:  1.00E-15

   => Molecular Quadrature <=

    Radial Scheme          =       TREUTLER
    Pruning Scheme         =           NONE
    Nuclear Scheme         =       TREUTLER

    Blocking Scheme        =         OCTREE
    BS radius alpha        =              1
    Pruning alpha          =              1
    Radial Points          =             75
    Spherical Points       =            302
    Total Points           =          44107
    Total Blocks           =            437
    Max Points             =            256
    Max Functions          =             32
    Weights Tolerance      =       1.00E-15

  -Total Gradient:
     Atom            X                  Y                   Z
    ------   -----------------  -----------------  -----------------
       1        0.000000000000     0.000000000000    -0.000021170351
       2        0.000000000000    -0.000000000000     0.000024971123

*** tstop() called on Joses-MacBook-Pro-2.local at Thu Jul 17 09:34:24 2025
Module time:
	user time   =       0.66 seconds =       0.01 minutes
	system time =       1.92 seconds =       0.03 minutes
	total time  =          1 seconds =       0.02 minutes
Total time:
	user time   =      69.51 seconds =       1.16 minutes
	system time =      70.99 seconds =       1.18 minutes
	total time  =         14 seconds =       0.23 minutes

    			-----------------------------------------

    			 OPTKING 3.0: for geometry optimizations

    			     By R.A. King, Bethel University

    			        with contributions from

    			    A.V. Copan, J. Cayton, A. Heide

    			-----------------------------------------

	                            ===> Fragment 1 <==

	 Z (Atomic Numbers)          Masses                          Geom
	       3.000000             7.016003          0.00000000  0.00000000  3.49574398
	      14.000000            27.976927          0.00000000  0.00000000 -0.87665640

	 - Coordinate -           - BOHR/RAD -       - ANG/DEG -
	 R(1,2)           =         4.372400           2.313775

	        --- Internal Coordinate Step in ANG or DEG, aJ/ANG or AJ/DEG ---
	-------------------------------------------------------------------------------
	           Coordinate      Previous         Force          Change          New
	           ----------      --------        ------          ------        ------
	               R(1,2)       2.31377        0.00019        0.00024       2.31401
	-------------------------------------------------------------------------------

	                                 ==> Convergence Check <==

	Measures of convergence in internal coordinates in au.

	Criteria marked as inactive (o), active & met (*), and active & unmet ( ).

	----------------------------------------------------------------------------------------------
	   Step    Total Energy     Delta E     Max Force     RMS Force      Max Disp      RMS Disp
	----------------------------------------------------------------------------------------------
	  Convergence Criteria     1.00e-06 *    3.00e-04 *             o    1.20e-03 *             o
	----------------------------------------------------------------------------------------------
	    12    -296.94154162   -9.48e-08 *    2.31e-05 *    2.31e-05 o    4.52e-04 *    4.52e-04 o  ~
	----------------------------------------------------------------------------------------------

Next Geometry in Ang
	Fragment 1 (Ang)

	   Li   0.0000000000   0.0000000000   1.8499875350
	   Si   0.0000000000   0.0000000000  -0.4640260748

    Final optimized geometry and variables:
    Molecular point group: c2v
    Full point group: C_inf_v

    Geometry (in Angstrom), charge = -1, multiplicity = 3:

    LI           0.000000000000     0.000000000000     1.849868050723
    SI           0.000000000000     0.000000000000    -0.463906590492

    Psi4 stopped on: Thursday, 17 July 2025 09:34AM
    Psi4 wall time for execution: 0:00:14.10

*** Psi4 exiting successfully. Buy a developer a beer!
