                               Psi4 1.9.1 release

  ==> Input File <==

--------------------------------------------------------------------------
molecule {
-1 3
Li   0.00000        0.60000        0.00000
Ar   0.00000       -0.60000        0.00000
}

set {
basis              cc-pvdz
reference          uks
maxiter            500
geom_maxiter       500
DAMPING_PERCENTAGE 1
guess              SAP
}

optimize('b3lyp')
--------------------------------------------------------------------------

    Molecular point group: c2v
  Charge       = -1
  Multiplicity = 3
  Basis Set: CC-PVDZ
    Blend: CC-PVDZ
  Basis Set: (CC-PVDZ AUX)
    Blend: CC-PVDZ-JKFIT + DEF2-UNIVERSAL-JKFIT
  @DF-UKS Final Energy:  -534.50346122703900
    Total Energy =                       -534.5034612270389971
 Dipole X            :          0.0000000            0.0000000            0.0000000
 Dipole Y            :          0.0000000            0.0000000            0.0000000
 Dipole Z            :         -2.8192146           -0.3089754           -3.1281900
 Magnitude           :                                                    3.1281900
    Molecular point group: c2v
  Basis Set: CC-PVDZ
    Blend: CC-PVDZ
  Basis Set: (CC-PVDZ AUX)
    Blend: CC-PVDZ-JKFIT + DEF2-UNIVERSAL-JKFIT
  Basis Set: CC-PVDZ
    Blend: CC-PVDZ
  Basis Set: (CC-PVDZ AUX)
    Blend: CC-PVDZ-JKFIT + DEF2-UNIVERSAL-JKFIT
  @DF-UKS Final Energy:  -534.70588359475857
    Total Energy =                       -534.7058835947585749
  Basis Set: CC-PVDZ
    Blend: CC-PVDZ
  Basis Set: (CC-PVDZ AUX)
    Blend: CC-PVDZ-JKFIT + DEF2-UNIVERSAL-JKFIT
  Basis Set: CC-PVDZ
    Blend: CC-PVDZ
  @DF-UKS Final Energy:  -534.84555421145126
    Total Energy =                       -534.8455542114512582
  @DF-UKS Final Energy:  -534.92621068982999
    Total Energy =                       -534.9262106898299862
  @DF-UKS Final Energy:  -534.96769286375161
    Total Energy =                       -534.9676928637516085
  @DF-UKS Final Energy:  -534.98976795466308
    Total Energy =                       -534.9897679546630798
  @DF-UKS Final Energy:  -535.00156904775861
    Total Energy =                       -535.0015690477586077
  @DF-UKS Final Energy:  -535.00800967679447
    Total Energy =                       -535.0080096767945861
  @DF-UKS Final Energy:  -535.01173248186444
    Total Energy =                       -535.0117324818644420
  @DF-UKS Final Energy:  -535.01415995190155
    Total Energy =                       -535.0141599519015472
  @DF-UKS Final Energy:  -535.01603840691689
    Total Energy =                       -535.0160384069168913
  @DF-UKS Final Energy:  -535.01764391062136
    Total Energy =                       -535.0176439106213593
  @DF-UKS Final Energy:  -535.01766232756756
    Total Energy =                       -535.0176623275675638
  @DF-UKS Final Energy:  -535.01768059830499
    Total Energy =                       -535.0176805983049917
  @DF-UKS Final Energy:  -535.01897283582707
    Total Energy =                       -535.0189728358269576
  @DF-UKS Final Energy:  -535.01898048197063
    Total Energy =                       -535.0189804819705159
  @DF-UKS Final Energy:  -535.01898807507212
    Total Energy =                       -535.0189880750721159
  @DF-UKS Final Energy:  -535.01968639337474
    Total Energy =                       -535.0196863933747409
  @DF-UKS Final Energy:  -535.01968913985115
    Total Energy =                       -535.0196891398511525
  @DF-UKS Final Energy:  -535.01969187486043
    Total Energy =                       -535.0196918748603139
  @DF-UKS Final Energy:  -535.01969459381257
    Total Energy =                       -535.0196945938125737
  @DF-UKS Final Energy:  -535.01969729678854
    Total Energy =                       -535.0196972967885358
  @DF-UKS Final Energy:  -535.02005187499333
    Total Energy =                       -535.0200518749933281
  @DF-UKS Final Energy:  -535.02005277451008
    Total Energy =                       -535.0200527745100771
  @DF-UKS Final Energy:  -535.02005367334095
    Total Energy =                       -535.0200536733409535
  @DF-UKS Final Energy:  -535.02005456845063
    Total Energy =                       -535.0200545684507460
  @DF-UKS Final Energy:  -535.02005545982502
    Total Energy =                       -535.0200554598250164
  @DF-UKS Final Energy:  -535.02005634747786
    Total Energy =                       -535.0200563474778619
  @DF-UKS Final Energy:  -535.02005723147818
    Total Energy =                       -535.0200572314781766
  @DF-UKS Final Energy:  -535.02005811181039
    Total Energy =                       -535.0200581118103855
  @DF-UKS Final Energy:  -535.02005898849336
    Total Energy =                       -535.0200589884933606
  Basis Set: (CC-PVDZ AUX)
    Blend: CC-PVDZ-JKFIT + DEF2-UNIVERSAL-JKFIT
  Basis Set: CC-PVDZ
    Blend: CC-PVDZ
  Basis Set: (CC-PVDZ AUX)
    Blend: CC-PVDZ-JKFIT + DEF2-UNIVERSAL-JKFIT
  @DF-UKS Final Energy:  -535.02024333451004
    Total Energy =                       -535.0202433345100417
  Basis Set: CC-PVDZ
    Blend: CC-PVDZ
  Basis Set: (CC-PVDZ AUX)
    Blend: CC-PVDZ-JKFIT + DEF2-UNIVERSAL-JKFIT
  Charge       = -1
  Multiplicity = 3
  Basis Set: CC-PVDZ
    Blend: CC-PVDZ
  Basis Set: (CC-PVDZ AUX)
    Blend: CC-PVDZ-JKFIT + DEF2-UNIVERSAL-JKFIT

    Orbital Energies [Eh]
    ---------------------

    Alpha Occupied:

       1A1  -114.999841     2A1   -11.035863     1B1    -8.585760
       3A1    -8.585725     1B2    -8.585718     4A1    -1.865765
       5A1    -0.864099     2B1    -0.322171     2B2    -0.321767
       6A1    -0.321417     7A1     0.011039     3B2     0.059538

    Alpha Virtual:

       3B1     0.098448     8A1     0.099741     4B2     0.194637
       9A1     0.207188     4B1     0.207312    10A1     0.211428
       5B2     0.364801     1A2     0.364838    11A1     0.366191
      12A1     0.372082     5B1     0.374191     6B1     0.684483
       6B2     0.685289    13A1     0.701977    14A1     0.877691
       2A2     0.935964    15A1     0.936002     7B1     0.936355
       7B2     0.936588    16A1     0.937366

    Beta Occupied:

       1A1  -114.999790     2A1   -11.035811     1B1    -8.585720
       1B2    -8.585652     3A1    -8.585637     4A1    -1.859394
       5A1    -0.863889     2B1    -0.322122     2B2    -0.321639
       6A1    -0.321268

    Beta Virtual:

       7A1     0.093838     8A1     0.126586     3B1     0.129435
       3B2     0.134344     9A1     0.226778     4B1     0.227441
       4B2     0.238200    10A1     0.239933    11A1     0.408163
       5B1     0.413807     5B2     0.425788     1A2     0.426547
      12A1     0.429565     6B1     0.684460     6B2     0.685408
      13A1     0.703120    14A1     0.879134     2A2     0.936073
      15A1     0.936107     7B1     0.936497     7B2     0.936784
      16A1     0.937613

    Final Occupation by Irrep:
             A1    A2    B1    B2
    DOCC [     6,    0,    2,    2 ]
    SOCC [     1,    0,    0,    1 ]
    NA   [     7,    0,    2,    3 ]
    NB   [     6,    0,    2,    2 ]

  @DF-UKS Final Energy:  -535.02024360771270

   => Energetics <=

    Nuclear Repulsion Energy =              6.1213247119899892
    One-Electron Energy =                -752.5794199673143794
    Two-Electron Energy =                 237.8958252395915167
    DFT Exchange-Correlation Energy =     -26.4579735919799042
    Empirical Dispersion Energy =           0.0000000000000000
    VV10 Nonlocal Energy =                  0.0000000000000000
    Total Energy =                       -535.0202436077127004

  UHF NO Occupations:
  HONO-2 :    6 A1 1.9999991
  HONO-1 :    3 B2 1.0000000
  HONO-0 :    7 A1 1.0000000
  LUNO+0 :    8 A1 0.0000009
  LUNO+1 :    9 A1 0.0000004
  LUNO+2 :    4 B2 0.0000001
  LUNO+3 :    3 B1 0.0000001

Computation Completed

Properties will be evaluated at   0.000000,   0.000000,   0.000000 [a0]

Properties computed using the SCF density matrix

 Multipole Moments:

 ------------------------------------------------------------------------------------
     Multipole            Electronic (a.u.)      Nuclear  (a.u.)        Total (a.u.)
 ------------------------------------------------------------------------------------

 L = 1.  Multiply by 2.5417464519 to convert [e a0] to [Debye]
 Dipole X            :          0.0000000            0.0000000            0.0000000
 Dipole Y            :          0.0000000            0.0000000            0.0000000
 Dipole Z            :         -6.3437240           -1.2019659           -7.5456899
 Magnitude           :                                                    7.5456899

 ------------------------------------------------------------------------------------

*** tstop() called on Joses-MacBook-Pro-2.local at Thu Jul 17 09:38:22 2025
Module time:
	user time   =       2.68 seconds =       0.04 minutes
	system time =       2.43 seconds =       0.04 minutes
	total time  =          0 seconds =       0.00 minutes
Total time:
	user time   =     128.81 seconds =       2.15 minutes
	system time =     152.49 seconds =       2.54 minutes
	total time  =         27 seconds =       0.45 minutes

*** tstart() called on Joses-MacBook-Pro-2.local
*** at Thu Jul 17 09:38:22 2025

         ------------------------------------------------------------
                                   SCF GRAD
                          Rob Parrish, Justin Turney,
                       Andy Simmonett, and Alex Sokolov
         ------------------------------------------------------------

  ==> Geometry <==

    Molecular point group: c2v
    Full point group: C_inf_v

    Geometry (in Angstrom), charge = -1, multiplicity = 3:

       Center              X                  Y                   Z               Mass
    ------------   -----------------  -----------------  -----------------  -----------------
         LI           0.000000000000     0.000000000000     3.971026240097     7.016003436600
         AR           0.000000000000     0.000000000000    -0.697173981369    39.962383123700

  Nuclear repulsion =    6.121324711989989

  ==> Basis Set <==

  Basis Set: CC-PVDZ
    Blend: CC-PVDZ
    Number of shells: 14
    Number of basis functions: 32
    Number of Cartesian functions: 34
    Spherical Harmonics?: true
    Max angular momentum: 2

  ==> DFJKGrad: Density-Fitted SCF Gradients <==

    Gradient:                    1
    J tasked:                  Yes
    K tasked:                  Yes
    wK tasked:                  No
    OpenMP threads:              1
    Integrals threads:           1
    Memory [MiB]:              375
    Schwarz Cutoff:          1E-12
    Fitting Condition:       1E-10

   => Auxiliary Basis Set <=

  Basis Set: (CC-PVDZ AUX)
    Blend: CC-PVDZ-JKFIT + DEF2-UNIVERSAL-JKFIT
    Number of shells: 53
    Number of basis functions: 163
    Number of Cartesian functions: 190
    Spherical Harmonics?: true
    Max angular momentum: 3

  ==> DFT Potential <==

   => LibXC <=

    Version 6.2.2
    S. Lehtola, C. Steigemann, M. J.T. Oliveira, and M. A.L. Marques.,  SoftwareX 7, 1â€“5 (2018) (10.1016/j.softx.2017.11.002)

   => Composite Functional: B3LYP <=

    B3LYP Hyb-GGA Exchange-Correlation Functional

    P. J. Stephens, F. J. Devlin, C. F. Chabalowski, and M. J. Frisch.,  J. Phys. Chem. 98, 11623 (1994) (10.1021/j100096a001)

    Deriv               =              1
    GGA                 =           TRUE
    Meta                =          FALSE

    Exchange Hybrid     =           TRUE
    MP2 Hybrid          =          FALSE

   => Exchange Functionals <=

    0.0800   Slater exchange
    0.7200         Becke 88

   => Exact (HF) Exchange <=

    0.2000               HF

   => Correlation Functionals <=

    0.1900   Vosko, Wilk & Nusair (VWN5_RPA)
    0.8100   Lee, Yang & Parr

   => LibXC Density Thresholds  <==

    XC_HYB_GGA_XC_B3LYP:  1.00E-15

   => Molecular Quadrature <=

    Radial Scheme          =       TREUTLER
    Pruning Scheme         =           NONE
    Nuclear Scheme         =       TREUTLER

    Blocking Scheme        =         OCTREE
    BS radius alpha        =              1
    Pruning alpha          =              1
    Radial Points          =             75
    Spherical Points       =            302
    Total Points           =          44410
    Total Blocks           =            465
    Max Points             =            253
    Max Functions          =             32
    Weights Tolerance      =       1.00E-15

  -Total Gradient:
     Atom            X                  Y                   Z
    ------   -----------------  -----------------  -----------------
       1       -0.000000000000     0.000000000000    -0.000212489001
       2       -0.000000000000    -0.000000000000     0.000202935609

*** tstop() called on Joses-MacBook-Pro-2.local at Thu Jul 17 09:38:22 2025
Module time:
	user time   =       0.92 seconds =       0.02 minutes
	system time =       1.45 seconds =       0.02 minutes
	total time  =          0 seconds =       0.00 minutes
Total time:
	user time   =     129.73 seconds =       2.16 minutes
	system time =     153.94 seconds =       2.57 minutes
	total time  =         27 seconds =       0.45 minutes

    			-----------------------------------------

    			 OPTKING 3.0: for geometry optimizations

    			     By R.A. King, Bethel University

    			        with contributions from

    			    A.V. Copan, J. Cayton, A. Heide

    			-----------------------------------------

	                            ===> Fragment 1 <==

	 Z (Atomic Numbers)          Masses                          Geom
	       3.000000             7.016003          0.00000000  0.00000000  7.50415203
	      18.000000            39.962383          0.00000000  0.00000000 -1.31746789

	 - Coordinate -           - BOHR/RAD -       - ANG/DEG -
	 R(1,2)           =         8.821620           4.668200

	        --- Internal Coordinate Step in ANG or DEG, aJ/ANG or AJ/DEG ---
	-------------------------------------------------------------------------------
	           Coordinate      Previous         Force          Change          New
	           ----------      --------        ------          ------        ------
	               R(1,2)       4.66820        0.00171        0.00068       4.66888
	-------------------------------------------------------------------------------

	                                 ==> Convergence Check <==

	Measures of convergence in internal coordinates in au.

	Criteria marked as inactive (o), active & met (*), and active & unmet ( ).

	----------------------------------------------------------------------------------------------
	   Step    Total Energy     Delta E     Max Force     RMS Force      Max Disp      RMS Disp
	----------------------------------------------------------------------------------------------
	  Convergence Criteria     1.00e-06 *    3.00e-04 *             o    1.20e-03 *             o
	----------------------------------------------------------------------------------------------
	    33    -535.02024361   -2.73e-07 *    2.08e-04 *    2.08e-04 o    1.28e-03      1.28e-03 o  ~
	----------------------------------------------------------------------------------------------

Next Geometry in Ang
	Fragment 1 (Ang)

	   Li   0.0000000000   0.0000000000   3.9713640762
	   Ar   0.0000000000   0.0000000000  -0.6975118175

    Final optimized geometry and variables:
    Molecular point group: c2v
    Full point group: C_inf_v

    Geometry (in Angstrom), charge = -1, multiplicity = 3:

    LI           0.000000000000     0.000000000000     3.971026240097
    AR           0.000000000000     0.000000000000    -0.697173981369

    Psi4 stopped on: Thursday, 17 July 2025 09:38AM
    Psi4 wall time for execution: 0:00:27.88

*** Psi4 exiting successfully. Buy a developer a beer!
