                               Psi4 1.9.1 release

  ==> Input File <==

--------------------------------------------------------------------------
molecule {
-1 3
O   0.00000        0.60000        0.00000
Cl   0.00000       -0.60000        0.00000
}

set {
basis              cc-pvdz
reference          uks
maxiter            500
geom_maxiter       500
DAMPING_PERCENTAGE 1
guess              SAP
}

optimize('b3lyp')
--------------------------------------------------------------------------

    Molecular point group: c2v
  Charge       = -1
  Multiplicity = 3
  Basis Set: CC-PVDZ
    Blend: CC-PVDZ
  Basis Set: (CC-PVDZ AUX)
    Blend: CC-PVDZ-JKFIT
  @DF-UKS Final Energy:  -534.86893003127977
    Total Energy =                       -534.8689300312797741
 Dipole X            :          0.0000000            0.0000000            0.0000000
 Dipole Y            :          0.0000000            0.0000000            0.0000000
 Dipole Z            :         -0.0614141            0.3487254            0.2873112
 Magnitude           :                                                    0.2873112
    Molecular point group: c2v
  Basis Set: CC-PVDZ
    Blend: CC-PVDZ
  Basis Set: (CC-PVDZ AUX)
    Blend: CC-PVDZ-JKFIT
  Basis Set: CC-PVDZ
    Blend: CC-PVDZ
  Basis Set: (CC-PVDZ AUX)
    Blend: CC-PVDZ-JKFIT
  @DF-UKS Final Energy:  -535.04363574859133
    Total Energy =                       -535.0436357485913277
  Basis Set: CC-PVDZ
    Blend: CC-PVDZ
  Basis Set: (CC-PVDZ AUX)
    Blend: CC-PVDZ-JKFIT
  Basis Set: CC-PVDZ
    Blend: CC-PVDZ
  @DF-UKS Final Energy:  -535.15759010941701
    Total Energy =                       -535.1575901094170149
  @DF-UKS Final Energy:  -535.23030338553929
    Total Energy =                       -535.2303033855392869
  @DF-UKS Final Energy:  -535.29724246736635
    Total Energy =                       -535.2972424673663454
  @DF-UKS Final Energy:  -535.34042913160329
    Total Energy =                       -535.3404291316032868
  @DF-UKS Final Energy:  -535.35517432524659
    Total Energy =                       -535.3551743252465940
  @DF-UKS Final Energy:  -535.36085195209853
    Total Energy =                       -535.3608519520985283
  @DF-UKS Final Energy:  -535.36264753317505
    Total Energy =                       -535.3626475331750498
  @DF-UKS Final Energy:  -535.36299973628104
    Total Energy =                       -535.3629997362810400
  @DF-UKS Final Energy:  -535.36309720188660
    Total Energy =                       -535.3630972018866032
  @DF-UKS Final Energy:  -535.36310900093713
    Total Energy =                       -535.3631090009371292
  Basis Set: (CC-PVDZ AUX)
    Blend: CC-PVDZ-JKFIT
  Basis Set: CC-PVDZ
    Blend: CC-PVDZ
  Basis Set: (CC-PVDZ AUX)
    Blend: CC-PVDZ-JKFIT
  @DF-UKS Final Energy:  -535.36311057429475
    Total Energy =                       -535.3631105742947511
  Basis Set: CC-PVDZ
    Blend: CC-PVDZ
  Basis Set: (CC-PVDZ AUX)
    Blend: CC-PVDZ-JKFIT
  Charge       = -1
  Multiplicity = 3
  Basis Set: CC-PVDZ
    Blend: CC-PVDZ
  Basis Set: (CC-PVDZ AUX)
    Blend: CC-PVDZ-JKFIT

    Orbital Energies [Eh]
    ---------------------

    Alpha Occupied:

       1A1  -101.228204     2A1   -18.953739     3A1    -9.141328
       4A1    -6.902648     1B1    -6.896850     1B2    -6.896150
       5A1    -0.696695     6A1    -0.486261     2B1    -0.144116
       7A1    -0.137920     2B2    -0.072754     3B1    -0.024873
       3B2    -0.020730     8A1    -0.009057

    Alpha Virtual:

       4B1     0.815271     4B2     0.818724     9A1     0.831055
      10A1     0.903368    11A1     0.973848     5B1     1.009173
       5B2     1.017411     1A2     1.041369    12A1     1.041376
       6B1     1.128806     6B2     1.169074    13A1     1.208317
      14A1     1.608411     7B1     2.758394    15A1     2.770346
       2A2     2.796752     7B2     2.815359    16A1     2.837391

    Beta Occupied:

       1A1  -101.225666     2A1   -18.911038     3A1    -9.138810
       4A1    -6.895327     1B1    -6.894797     1B2    -6.894583
       5A1    -0.565917     6A1    -0.467692     2B2    -0.035769
       7A1    -0.029549     2B1    -0.020202     3B2    -0.008324

    Beta Virtual:

       3B1     0.122321     8A1     0.135458     4B2     0.822289
       4B1     0.822342     9A1     0.843633    10A1     0.925043
      11A1     1.007258     5B2     1.036152     5B1     1.038901
       1A2     1.046112    12A1     1.046114     6B2     1.194371
       6B1     1.226495    13A1     1.279775    14A1     1.672693
       2A2     2.883648     7B2     2.885173    15A1     2.891804
       7B1     2.904008    16A1     2.925300

    Final Occupation by Irrep:
             A1    A2    B1    B2
    DOCC [     7,    0,    2,    3 ]
    SOCC [     1,    0,    1,    0 ]
    NA   [     8,    0,    3,    3 ]
    NB   [     7,    0,    2,    3 ]

  @DF-UKS Final Energy:  -535.36311083076441

   => Energetics <=

    Nuclear Repulsion Energy =             28.9432768203877977
    One-Electron Energy =                -804.6501473273515330
    Two-Electron Energy =                 270.1881245452403277
    DFT Exchange-Correlation Energy =     -29.8443648690410015
    Empirical Dispersion Energy =           0.0000000000000000
    VV10 Nonlocal Energy =                  0.0000000000000000
    Total Energy =                       -535.3631108307644126

  UHF NO Occupations:
  HONO-2 :    7 A1 1.9989278
  HONO-1 :    8 A1 1.0000000
  HONO-0 :    3 B1 1.0000000
  LUNO+0 :    9 A1 0.0010722
  LUNO+1 :   10 A1 0.0004989
  LUNO+2 :    4 B2 0.0002159
  LUNO+3 :    4 B1 0.0000717

Computation Completed

Properties will be evaluated at   0.000000,   0.000000,   0.000000 [a0]

Properties computed using the SCF density matrix

 Multipole Moments:

 ------------------------------------------------------------------------------------
     Multipole            Electronic (a.u.)      Nuclear  (a.u.)        Total (a.u.)
 ------------------------------------------------------------------------------------

 L = 1.  Multiply by 2.5417464519 to convert [e a0] to [Debye]
 Dipole X            :          0.0000000            0.0000000            0.0000000
 Dipole Y            :          0.0000000            0.0000000            0.0000000
 Dipole Z            :         -0.5955990            0.7225945            0.1269956
 Magnitude           :                                                    0.1269956

 ------------------------------------------------------------------------------------

*** tstop() called on Joses-MacBook-Pro-2.local at Thu Jul 17 10:48:20 2025
Module time:
	user time   =       2.59 seconds =       0.04 minutes
	system time =       4.21 seconds =       0.07 minutes
	total time  =          0 seconds =       0.00 minutes
Total time:
	user time   =      80.90 seconds =       1.35 minutes
	system time =      75.86 seconds =       1.26 minutes
	total time  =         16 seconds =       0.27 minutes

*** tstart() called on Joses-MacBook-Pro-2.local
*** at Thu Jul 17 10:48:20 2025

         ------------------------------------------------------------
                                   SCF GRAD
                          Rob Parrish, Justin Turney,
                       Andy Simmonett, and Alex Sokolov
         ------------------------------------------------------------

  ==> Geometry <==

    Molecular point group: c2v
    Full point group: C_inf_v

    Geometry (in Angstrom), charge = -1, multiplicity = 3:

       Center              X                  Y                   Z               Mass
    ------------   -----------------  -----------------  -----------------  -----------------
         O            0.000000000000     0.000000000000     1.706130324825    15.994914619570
         CL           0.000000000000     0.000000000000    -0.780391885419    34.968852682000

  Nuclear repulsion =   28.943276820387798

  ==> Basis Set <==

  Basis Set: CC-PVDZ
    Blend: CC-PVDZ
    Number of shells: 14
    Number of basis functions: 32
    Number of Cartesian functions: 34
    Spherical Harmonics?: true
    Max angular momentum: 2

  ==> DFJKGrad: Density-Fitted SCF Gradients <==

    Gradient:                    1
    J tasked:                  Yes
    K tasked:                  Yes
    wK tasked:                  No
    OpenMP threads:              1
    Integrals threads:           1
    Memory [MiB]:              375
    Schwarz Cutoff:          1E-12
    Fitting Condition:       1E-10

   => Auxiliary Basis Set <=

  Basis Set: (CC-PVDZ AUX)
    Blend: CC-PVDZ-JKFIT
    Number of shells: 60
    Number of basis functions: 182
    Number of Cartesian functions: 211
    Spherical Harmonics?: true
    Max angular momentum: 3

  ==> DFT Potential <==

   => LibXC <=

    Version 6.2.2
    S. Lehtola, C. Steigemann, M. J.T. Oliveira, and M. A.L. Marques.,  SoftwareX 7, 1â€“5 (2018) (10.1016/j.softx.2017.11.002)

   => Composite Functional: B3LYP <=

    B3LYP Hyb-GGA Exchange-Correlation Functional

    P. J. Stephens, F. J. Devlin, C. F. Chabalowski, and M. J. Frisch.,  J. Phys. Chem. 98, 11623 (1994) (10.1021/j100096a001)

    Deriv               =              1
    GGA                 =           TRUE
    Meta                =          FALSE

    Exchange Hybrid     =           TRUE
    MP2 Hybrid          =          FALSE

   => Exchange Functionals <=

    0.0800   Slater exchange
    0.7200         Becke 88

   => Exact (HF) Exchange <=

    0.2000               HF

   => Correlation Functionals <=

    0.1900   Vosko, Wilk & Nusair (VWN5_RPA)
    0.8100   Lee, Yang & Parr

   => LibXC Density Thresholds  <==

    XC_HYB_GGA_XC_B3LYP:  1.00E-15

   => Molecular Quadrature <=

    Radial Scheme          =       TREUTLER
    Pruning Scheme         =           NONE
    Nuclear Scheme         =       TREUTLER

    Blocking Scheme        =         OCTREE
    BS radius alpha        =              1
    Pruning alpha          =              1
    Radial Points          =             75
    Spherical Points       =            302
    Total Points           =          41454
    Total Blocks           =            370
    Max Points             =            256
    Max Functions          =             32
    Weights Tolerance      =       1.00E-15

  -Total Gradient:
     Atom            X                  Y                   Z
    ------   -----------------  -----------------  -----------------
       1        0.000000000000     0.000000000000    -0.000011012764
       2       -0.000000000000     0.000000000000     0.000030571885

*** tstop() called on Joses-MacBook-Pro-2.local at Thu Jul 17 10:48:21 2025
Module time:
	user time   =       0.80 seconds =       0.01 minutes
	system time =       1.86 seconds =       0.03 minutes
	total time  =          1 seconds =       0.02 minutes
Total time:
	user time   =      81.70 seconds =       1.36 minutes
	system time =      77.73 seconds =       1.30 minutes
	total time  =         17 seconds =       0.28 minutes

    			-----------------------------------------

    			 OPTKING 3.0: for geometry optimizations

    			     By R.A. King, Bethel University

    			        with contributions from

    			    A.V. Copan, J. Cayton, A. Heide

    			-----------------------------------------

	                            ===> Fragment 1 <==

	 Z (Atomic Numbers)          Masses                          Geom
	       8.000000            15.994915          0.00000000  0.00000000  3.22411905
	      17.000000            34.968853          0.00000000  0.00000000 -1.47472693

	 - Coordinate -           - BOHR/RAD -       - ANG/DEG -
	 R(1,2)           =         4.698846           2.486522

	        --- Internal Coordinate Step in ANG or DEG, aJ/ANG or AJ/DEG ---
	-------------------------------------------------------------------------------
	           Coordinate      Previous         Force          Change          New
	           ----------      --------        ------          ------        ------
	               R(1,2)       2.48652        0.00017        0.00043       2.48695
	-------------------------------------------------------------------------------

	                                 ==> Convergence Check <==

	Measures of convergence in internal coordinates in au.

	Criteria marked as inactive (o), active & met (*), and active & unmet ( ).

	----------------------------------------------------------------------------------------------
	   Step    Total Energy     Delta E     Max Force     RMS Force      Max Disp      RMS Disp
	----------------------------------------------------------------------------------------------
	  Convergence Criteria     1.00e-06 *    3.00e-04 *             o    1.20e-03 *             o
	----------------------------------------------------------------------------------------------
	    14    -535.36311083   -2.56e-07 *    2.08e-05 *    2.08e-05 o    8.04e-04 *    8.04e-04 o  ~
	----------------------------------------------------------------------------------------------

Next Geometry in Ang
	Fragment 1 (Ang)

	    O   0.0000000000   0.0000000000   1.7063430061
	   Cl   0.0000000000   0.0000000000  -0.7806045667

    Final optimized geometry and variables:
    Molecular point group: c2v
    Full point group: C_inf_v

    Geometry (in Angstrom), charge = -1, multiplicity = 3:

    O            0.000000000000     0.000000000000     1.706130324825
    CL           0.000000000000     0.000000000000    -0.780391885419

    Psi4 stopped on: Thursday, 17 July 2025 10:48AM
    Psi4 wall time for execution: 0:00:17.42

*** Psi4 exiting successfully. Buy a developer a beer!
