                               Psi4 1.9.1 release

  ==> Input File <==

--------------------------------------------------------------------------
molecule {
-1 3
Na   0.00000        0.60000        0.00000
Mg   0.00000       -0.60000        0.00000
}

set {
basis              cc-pvdz
reference          uks
maxiter            500
geom_maxiter       500
DAMPING_PERCENTAGE 1
guess              SAP
}

optimize('b3lyp')
--------------------------------------------------------------------------

    Molecular point group: c2v
  Charge       = -1
  Multiplicity = 3
  Basis Set: CC-PVDZ
    Blend: CC-PVDZ
  Basis Set: (CC-PVDZ AUX)
    Blend: DEF2-UNIVERSAL-JKFIT
  @DF-UKS Final Energy:  -361.75887001679968
    Total Energy =                       -361.7588700167996763
 Dipole X            :          0.0000000            0.0000000            0.0000000
 Dipole Y            :          0.0000000            0.0000000            0.0000000
 Dipole Z            :          0.9938257           -0.5813069            0.4125187
 Magnitude           :                                                    0.4125187
    Molecular point group: c2v
  Basis Set: CC-PVDZ
    Blend: CC-PVDZ
  Basis Set: (CC-PVDZ AUX)
    Blend: DEF2-UNIVERSAL-JKFIT
  Basis Set: CC-PVDZ
    Blend: CC-PVDZ
  Basis Set: (CC-PVDZ AUX)
    Blend: DEF2-UNIVERSAL-JKFIT
  @DF-UKS Final Energy:  -361.76550397513023
    Total Energy =                       -361.7655039751302866
  Basis Set: CC-PVDZ
    Blend: CC-PVDZ
  Basis Set: (CC-PVDZ AUX)
    Blend: DEF2-UNIVERSAL-JKFIT
  Basis Set: CC-PVDZ
    Blend: CC-PVDZ
  @DF-UKS Final Energy:  -361.77830778825887
    Total Energy =                       -361.7783077882588714
  @DF-UKS Final Energy:  -361.82476189508128
    Total Energy =                       -361.8247618950812807
  @DF-UKS Final Energy:  -362.03634296328761
    Total Energy =                       -362.0363429632876091
  @DF-UKS Final Energy:  -362.14214838465256
    Total Energy =                       -362.1421483846525007
  @DF-UKS Final Energy:  -362.21754094404042
    Total Energy =                       -362.2175409440404792
  @DF-UKS Final Energy:  -362.27569549035724
    Total Energy =                       -362.2756954903572364
  @DF-UKS Final Energy:  -362.31287541850526
    Total Energy =                       -362.3128754185052571
  @DF-UKS Final Energy:  -362.33317424384177
    Total Energy =                       -362.3331742438417677
  @DF-UKS Final Energy:  -362.37241138581976
    Total Energy =                       -362.3724113858197029
  @DF-UKS Final Energy:  -362.38360434645529
    Total Energy =                       -362.3836043464553427
  @DF-UKS Final Energy:  -362.38371366624148
    Total Energy =                       -362.3837136662414764
  @DF-UKS Final Energy:  -362.38503754390359
    Total Energy =                       -362.3850375439035929
  @DF-UKS Final Energy:  -362.38522098626612
    Total Energy =                       -362.3852209862660629
  @DF-UKS Final Energy:  -362.38524474879262
    Total Energy =                       -362.3852447487926156
  Basis Set: (CC-PVDZ AUX)
    Blend: DEF2-UNIVERSAL-JKFIT
  Basis Set: CC-PVDZ
    Blend: CC-PVDZ
  Basis Set: (CC-PVDZ AUX)
    Blend: DEF2-UNIVERSAL-JKFIT
  @DF-UKS Final Energy:  -362.38524820668977
    Total Energy =                       -362.3852482066897664
  Basis Set: CC-PVDZ
    Blend: CC-PVDZ
  Basis Set: (CC-PVDZ AUX)
    Blend: DEF2-UNIVERSAL-JKFIT
  Charge       = -1
  Multiplicity = 3
  Basis Set: CC-PVDZ
    Blend: CC-PVDZ
  Basis Set: (CC-PVDZ AUX)
    Blend: DEF2-UNIVERSAL-JKFIT

    Orbital Energies [Eh]
    ---------------------

    Alpha Occupied:

       1A1   -46.674614     2A1   -38.338427     3A1    -2.955307
       4A1    -2.083534     1B2    -1.699281     5A1    -1.698956
       1B1    -1.698275     2B2    -1.014995     6A1    -1.014607
       2B1    -1.014141     7A1    -0.074025     8A1     0.004725
       3B1     0.043565

    Alpha Virtual:

       3B2     0.076571     9A1     0.080680     4B1     0.100850
       4B2     0.109864    10A1     0.116353    11A1     0.161556
       5B1     0.183452     5B2     0.189040    12A1     0.213313
      13A1     0.267392     6B1     0.282997     1A2     0.285692
       6B2     0.286821    14A1     0.287058    15A1     0.298259
       7B1     0.307380     7B2     0.311611    16A1     0.422661
       2A2     0.463876    17A1     0.464821     8B1     0.524972
       8B2     0.527230    18A1     0.638449

    Beta Occupied:

       1A1   -46.674000     2A1   -38.337237     3A1    -2.954406
       4A1    -2.081226     1B2    -1.698860     5A1    -1.698077
       1B1    -1.696467     2B2    -1.013562     6A1    -1.013177
       2B1    -1.012161     7A1    -0.059437

    Beta Virtual:

       8A1     0.057881     3B2     0.083422     3B1     0.090366
       9A1     0.099848     4B2     0.119308     4B1     0.124716
      10A1     0.125187    11A1     0.178712     5B2     0.202258
       5B1     0.208428    12A1     0.224822    13A1     0.282569
       6B2     0.293079     6B1     0.300134    14A1     0.305736
       1A2     0.311429    15A1     0.312794     7B2     0.321733
       7B1     0.329984    16A1     0.436842     2A2     0.476165
      17A1     0.476446     8B2     0.532692     8B1     0.541589
      18A1     0.646150

    Final Occupation by Irrep:
             A1    A2    B1    B2
    DOCC [     7,    0,    2,    2 ]
    SOCC [     1,    0,    1,    0 ]
    NA   [     8,    0,    3,    2 ]
    NB   [     7,    0,    2,    2 ]

  @DF-UKS Final Energy:  -362.38524830357369

   => Energetics <=

    Nuclear Repulsion Energy =             21.3907108996665478
    One-Electron Energy =                -553.2321483808436824
    Two-Electron Energy =                 194.4567196804287050
    DFT Exchange-Correlation Energy =     -25.0005305028253026
    Empirical Dispersion Energy =           0.0000000000000000
    VV10 Nonlocal Energy =                  0.0000000000000000
    Total Energy =                       -362.3852483035736896

  UHF NO Occupations:
  HONO-2 :    7 A1 1.9978884
  HONO-1 :    8 A1 1.0000000
  HONO-0 :    3 B1 1.0000000
  LUNO+0 :    9 A1 0.0021116
  LUNO+1 :   10 A1 0.0000005
  LUNO+2 :    3 B2 0.0000004
  LUNO+3 :    4 B1 0.0000004

Computation Completed

Properties will be evaluated at   0.000000,   0.000000,   0.000000 [a0]

Properties computed using the SCF density matrix

 Multipole Moments:

 ------------------------------------------------------------------------------------
     Multipole            Electronic (a.u.)      Nuclear  (a.u.)        Total (a.u.)
 ------------------------------------------------------------------------------------

 L = 1.  Multiply by 2.5417464519 to convert [e a0] to [Debye]
 Dipole X            :          0.0000000            0.0000000            0.0000000
 Dipole Y            :          0.0000000            0.0000000            0.0000000
 Dipole Z            :          0.8050162           -1.5818820           -0.7768659
 Magnitude           :                                                    0.7768659

 ------------------------------------------------------------------------------------

*** tstop() called on Joses-MacBook-Pro-2.local at Thu Jul 17 11:08:19 2025
Module time:
	user time   =       8.32 seconds =       0.14 minutes
	system time =       1.72 seconds =       0.03 minutes
	total time  =          1 seconds =       0.02 minutes
Total time:
	user time   =     243.39 seconds =       4.06 minutes
	system time =      83.51 seconds =       1.39 minutes
	total time  =         32 seconds =       0.53 minutes

*** tstart() called on Joses-MacBook-Pro-2.local
*** at Thu Jul 17 11:08:19 2025

         ------------------------------------------------------------
                                   SCF GRAD
                          Rob Parrish, Justin Turney,
                       Andy Simmonett, and Alex Sokolov
         ------------------------------------------------------------

  ==> Geometry <==

    Molecular point group: c2v
    Full point group: C_inf_v

    Geometry (in Angstrom), charge = -1, multiplicity = 3:

       Center              X                  Y                   Z               Mass
    ------------   -----------------  -----------------  -----------------  -----------------
         NA           0.000000000000     0.000000000000     1.667344273904    22.989769282000
         MG           0.000000000000     0.000000000000    -1.598156911918    23.985041697000

  Nuclear repulsion =   21.390710899666548

  ==> Basis Set <==

  Basis Set: CC-PVDZ
    Blend: CC-PVDZ
    Number of shells: 16
    Number of basis functions: 36
    Number of Cartesian functions: 38
    Spherical Harmonics?: true
    Max angular momentum: 2

  ==> DFJKGrad: Density-Fitted SCF Gradients <==

    Gradient:                    1
    J tasked:                  Yes
    K tasked:                  Yes
    wK tasked:                  No
    OpenMP threads:              1
    Integrals threads:           1
    Memory [MiB]:              375
    Schwarz Cutoff:          1E-12
    Fitting Condition:       1E-10

   => Auxiliary Basis Set <=

  Basis Set: (CC-PVDZ AUX)
    Blend: DEF2-UNIVERSAL-JKFIT
    Number of shells: 68
    Number of basis functions: 224
    Number of Cartesian functions: 274
    Spherical Harmonics?: true
    Max angular momentum: 4

  ==> DFT Potential <==

   => LibXC <=

    Version 6.2.2
    S. Lehtola, C. Steigemann, M. J.T. Oliveira, and M. A.L. Marques.,  SoftwareX 7, 1â€“5 (2018) (10.1016/j.softx.2017.11.002)

   => Composite Functional: B3LYP <=

    B3LYP Hyb-GGA Exchange-Correlation Functional

    P. J. Stephens, F. J. Devlin, C. F. Chabalowski, and M. J. Frisch.,  J. Phys. Chem. 98, 11623 (1994) (10.1021/j100096a001)

    Deriv               =              1
    GGA                 =           TRUE
    Meta                =          FALSE

    Exchange Hybrid     =           TRUE
    MP2 Hybrid          =          FALSE

   => Exchange Functionals <=

    0.0800   Slater exchange
    0.7200         Becke 88

   => Exact (HF) Exchange <=

    0.2000               HF

   => Correlation Functionals <=

    0.1900   Vosko, Wilk & Nusair (VWN5_RPA)
    0.8100   Lee, Yang & Parr

   => LibXC Density Thresholds  <==

    XC_HYB_GGA_XC_B3LYP:  1.00E-15

   => Molecular Quadrature <=

    Radial Scheme          =       TREUTLER
    Pruning Scheme         =           NONE
    Nuclear Scheme         =       TREUTLER

    Blocking Scheme        =         OCTREE
    BS radius alpha        =              1
    Pruning alpha          =              1
    Radial Points          =             75
    Spherical Points       =            302
    Total Points           =          43626
    Total Blocks           =            459
    Max Points             =            256
    Max Functions          =             36
    Weights Tolerance      =       1.00E-15

  -Total Gradient:
     Atom            X                  Y                   Z
    ------   -----------------  -----------------  -----------------
       1        0.000000000000    -0.000000000000    -0.000003015935
       2        0.000000000000    -0.000000000000     0.000010624686

*** tstop() called on Joses-MacBook-Pro-2.local at Thu Jul 17 11:08:19 2025
Module time:
	user time   =       2.91 seconds =       0.05 minutes
	system time =       2.40 seconds =       0.04 minutes
	total time  =          0 seconds =       0.00 minutes
Total time:
	user time   =     246.31 seconds =       4.11 minutes
	system time =      85.91 seconds =       1.43 minutes
	total time  =         32 seconds =       0.53 minutes

    			-----------------------------------------

    			 OPTKING 3.0: for geometry optimizations

    			     By R.A. King, Bethel University

    			        with contributions from

    			    A.V. Copan, J. Cayton, A. Heide

    			-----------------------------------------

	                            ===> Fragment 1 <==

	 Z (Atomic Numbers)          Masses                          Geom
	      11.000000            22.989769          0.00000000  0.00000000  3.15082403
	      12.000000            23.985042          0.00000000  0.00000000 -3.02007887

	 - Coordinate -           - BOHR/RAD -       - ANG/DEG -
	 R(1,2)           =         6.170903           3.265501

	        --- Internal Coordinate Step in ANG or DEG, aJ/ANG or AJ/DEG ---
	-------------------------------------------------------------------------------
	           Coordinate      Previous         Force          Change          New
	           ----------      --------        ------          ------        ------
	               R(1,2)       3.26550        0.00006        0.00046       3.26596
	-------------------------------------------------------------------------------

	                                 ==> Convergence Check <==

	Measures of convergence in internal coordinates in au.

	Criteria marked as inactive (o), active & met (*), and active & unmet ( ).

	----------------------------------------------------------------------------------------------
	   Step    Total Energy     Delta E     Max Force     RMS Force      Max Disp      RMS Disp
	----------------------------------------------------------------------------------------------
	  Convergence Criteria     1.00e-06 *    3.00e-04 *             o    1.20e-03 *             o
	----------------------------------------------------------------------------------------------
	    18    -362.38524830   -9.69e-08 *    6.82e-06 *    6.82e-06 o    8.67e-04 *    8.67e-04 o  ~
	----------------------------------------------------------------------------------------------

Next Geometry in Ang
	Fragment 1 (Ang)

	   Na   0.0000000000   0.0000000000   1.6675736282
	   Mg   0.0000000000   0.0000000000  -1.5983862662

    Final optimized geometry and variables:
    Molecular point group: c2v
    Full point group: C_inf_v

    Geometry (in Angstrom), charge = -1, multiplicity = 3:

    NA           0.000000000000     0.000000000000     1.667344273904
    MG           0.000000000000     0.000000000000    -1.598156911918

    Psi4 stopped on: Thursday, 17 July 2025 11:08AM
    Psi4 wall time for execution: 0:00:33.16

*** Psi4 exiting successfully. Buy a developer a beer!
