                               Psi4 1.9.1 release

  ==> Input File <==

--------------------------------------------------------------------------
molecule {
-1 3
Na   0.00000        0.60000        0.00000
Ar   0.00000       -0.60000        0.00000
}

set {
basis              cc-pvdz
reference          uks
maxiter            500
geom_maxiter       500
DAMPING_PERCENTAGE 1
guess              SAP
}

optimize('b3lyp')
--------------------------------------------------------------------------

    Molecular point group: c2v
  Charge       = -1
  Multiplicity = 3
  Basis Set: CC-PVDZ
    Blend: CC-PVDZ
  Basis Set: (CC-PVDZ AUX)
    Blend: CC-PVDZ-JKFIT + DEF2-UNIVERSAL-JKFIT
  @DF-UKS Final Energy:  -688.60041480606105
    Total Energy =                       -688.6004148060610532
 Dipole X            :          0.0000000            0.0000000            0.0000000
 Dipole Y            :          0.0000000            0.0000000            0.0000000
 Dipole Z            :         -2.9771324            0.9283038           -2.0488285
 Magnitude           :                                                    2.0488285
    Molecular point group: c2v
  Basis Set: CC-PVDZ
    Blend: CC-PVDZ
  Basis Set: (CC-PVDZ AUX)
    Blend: CC-PVDZ-JKFIT + DEF2-UNIVERSAL-JKFIT
  Basis Set: CC-PVDZ
    Blend: CC-PVDZ
  Basis Set: (CC-PVDZ AUX)
    Blend: CC-PVDZ-JKFIT + DEF2-UNIVERSAL-JKFIT
  @DF-UKS Final Energy:  -688.62368601776734
    Total Energy =                       -688.6236860177673407
  Basis Set: CC-PVDZ
    Blend: CC-PVDZ
  Basis Set: (CC-PVDZ AUX)
    Blend: CC-PVDZ-JKFIT + DEF2-UNIVERSAL-JKFIT
  Basis Set: CC-PVDZ
    Blend: CC-PVDZ
  @DF-UKS Final Energy:  -688.66825398097842
    Total Energy =                       -688.6682539809784203
  @DF-UKS Final Energy:  -688.82599046754240
    Total Energy =                       -688.8259904675425105
  @DF-UKS Final Energy:  -689.39654072445614
    Total Energy =                       -689.3965407244561447
  @DF-UKS Final Energy:  -689.59582050136123
    Total Energy =                       -689.5958205013610041
  @DF-UKS Final Energy:  -689.70093169196070
    Total Energy =                       -689.7009316919607045
  @DF-UKS Final Energy:  -689.75377868726514
    Total Energy =                       -689.7537786872650258
  @DF-UKS Final Energy:  -689.78167419397744
    Total Energy =                       -689.7816741939774374
  @DF-UKS Final Energy:  -689.79664307798873
    Total Energy =                       -689.7966430779887332
  @DF-UKS Final Energy:  -689.80490612978292
    Total Energy =                       -689.8049061297829212
  @DF-UKS Final Energy:  -689.80962250782750
    Total Energy =                       -689.8096225078274983
  @DF-UKS Final Energy:  -689.81247735643240
    Total Energy =                       -689.8124773564323959
  @DF-UKS Final Energy:  -689.81434302368382
    Total Energy =                       -689.8143430236839322
  @DF-UKS Final Energy:  -689.81565993043228
    Total Energy =                       -689.8156599304322754
  @DF-UKS Final Energy:  -689.81660047910850
    Total Energy =                       -689.8166004791083878
  @DF-UKS Final Energy:  -689.81660419839216
    Total Energy =                       -689.8166041983921559
  @DF-UKS Final Energy:  -689.81660790528758
    Total Energy =                       -689.8166079052875830
  @DF-UKS Final Energy:  -689.81661159613373
    Total Energy =                       -689.8166115961337255
  @DF-UKS Final Energy:  -689.81661527082179
    Total Energy =                       -689.8166152708217851
  @DF-UKS Final Energy:  -689.81729561685984
    Total Energy =                       -689.8172956168598375
  @DF-UKS Final Energy:  -689.81729692711110
    Total Energy =                       -689.8172969271111015
  @DF-UKS Final Energy:  -689.81729823409796
    Total Energy =                       -689.8172982340979615
  @DF-UKS Final Energy:  -689.81766577804274
    Total Energy =                       -689.8176657780427377
  @DF-UKS Final Energy:  -689.81766620151711
    Total Energy =                       -689.8176662015171132
  @DF-UKS Final Energy:  -689.81766662508369
    Total Energy =                       -689.8176666250836888
  @DF-UKS Final Energy:  -689.81766704784411
    Total Energy =                       -689.8176670478441110
  @DF-UKS Final Energy:  -689.81766746971721
    Total Energy =                       -689.8176674697170938
  @DF-UKS Final Energy:  -689.81766789074936
    Total Energy =                       -689.8176678907493624
  @DF-UKS Final Energy:  -689.81766831093796
    Total Energy =                       -689.8176683109379610
  @DF-UKS Final Energy:  -689.81766873029812
    Total Energy =                       -689.8176687302981236
  @DF-UKS Final Energy:  -689.81766914885497
    Total Energy =                       -689.8176691488550887
  @DF-UKS Final Energy:  -689.81766956660522
    Total Energy =                       -689.8176695666051046
  @DF-UKS Final Energy:  -689.81766998341539
    Total Energy =                       -689.8176699834153851
  @DF-UKS Final Energy:  -689.81767039949375
    Total Energy =                       -689.8176703994937498
  @DF-UKS Final Energy:  -689.81767081466091
    Total Energy =                       -689.8176708146609144
  @DF-UKS Final Energy:  -689.81767122899407
    Total Energy =                       -689.8176712289941861
  @DF-UKS Final Energy:  -689.81767164253301
    Total Energy =                       -689.8176716425330142
  Basis Set: (CC-PVDZ AUX)
    Blend: CC-PVDZ-JKFIT + DEF2-UNIVERSAL-JKFIT
  Basis Set: CC-PVDZ
    Blend: CC-PVDZ
  Basis Set: (CC-PVDZ AUX)
    Blend: CC-PVDZ-JKFIT + DEF2-UNIVERSAL-JKFIT
  @DF-UKS Final Energy:  -689.81767205523545
    Total Energy =                       -689.8176720552355619
  Basis Set: CC-PVDZ
    Blend: CC-PVDZ
  Basis Set: (CC-PVDZ AUX)
    Blend: CC-PVDZ-JKFIT + DEF2-UNIVERSAL-JKFIT
  Charge       = -1
  Multiplicity = 3
  Basis Set: CC-PVDZ
    Blend: CC-PVDZ
  Basis Set: (CC-PVDZ AUX)
    Blend: CC-PVDZ-JKFIT + DEF2-UNIVERSAL-JKFIT

    Orbital Energies [Eh]
    ---------------------

    Alpha Occupied:

       1A1  -115.004227     2A1   -38.341503     3A1   -11.040237
       4A1    -8.590129     1B1    -8.590122     1B2    -8.590073
       5A1    -2.086341     6A1    -1.017696     2B1    -1.017662
       2B2    -1.016503     7A1    -0.868432     3B1    -0.326377
       8A1    -0.326089     3B2    -0.325916     9A1    -0.000314
       4B2     0.054097

    Alpha Virtual:

       4B1     0.088520    10A1     0.089540    11A1     0.158455
       5B2     0.185472    12A1     0.191383     5B1     0.192903
       6B2     0.287950     1A2     0.288040    13A1     0.289399
      14A1     0.291936     6B1     0.292600     7B1     0.681197
       7B2     0.682089    15A1     0.701198    16A1     0.878539
       2A2     0.931813    17A1     0.931886     8B1     0.931975
       8B2     0.932252    18A1     0.933715

    Beta Occupied:

       1A1  -115.004169     2A1   -38.340117     3A1   -11.040176
       1B1    -8.590076     4A1    -8.590031     1B2    -8.589992
       5A1    -2.083651     6A1    -1.016050     2B1    -1.016015
       2B2    -1.014205     7A1    -0.868184     3B1    -0.326314
       8A1    -0.325906     3B2    -0.325746

    Beta Virtual:

       9A1     0.066097    10A1     0.109638     4B1     0.111824
       4B2     0.115511    11A1     0.179414    12A1     0.210555
       5B1     0.212466     5B2     0.220744    13A1     0.313967
       6B1     0.317646     1A2     0.326396     6B2     0.326658
      14A1     0.329269     7B1     0.681182     7B2     0.682251
      15A1     0.702086    16A1     0.879921     2A2     0.931947
      17A1     0.932015     8B1     0.932137     8B2     0.932482
      18A1     0.934005

    Final Occupation by Irrep:
             A1    A2    B1    B2
    DOCC [     8,    0,    3,    3 ]
    SOCC [     1,    0,    0,    1 ]
    NA   [     9,    0,    3,    4 ]
    NB   [     8,    0,    3,    3 ]

  @DF-UKS Final Energy:  -689.81784352642876

   => Energetics <=

    Nuclear Repulsion Energy =             22.5678387803910425
    One-Electron Energy =               -1004.5111885283823767
    Two-Electron Energy =                 328.7247699659002365
    DFT Exchange-Correlation Energy =     -36.5992637443377262
    Empirical Dispersion Energy =           0.0000000000000000
    VV10 Nonlocal Energy =                  0.0000000000000000
    Total Energy =                       -689.8178435264287600

  UHF NO Occupations:
  HONO-2 :    8 A1 1.9999993
  HONO-1 :    4 B2 1.0000000
  HONO-0 :    9 A1 1.0000000
  LUNO+0 :   10 A1 0.0000007
  LUNO+1 :    4 B1 0.0000005
  LUNO+2 :   11 A1 0.0000004
  LUNO+3 :    5 B2 0.0000004

Computation Completed

Properties will be evaluated at   0.000000,   0.000000,   0.000000 [a0]

Properties computed using the SCF density matrix

 Multipole Moments:

 ------------------------------------------------------------------------------------
     Multipole            Electronic (a.u.)      Nuclear  (a.u.)        Total (a.u.)
 ------------------------------------------------------------------------------------

 L = 1.  Multiply by 2.5417464519 to convert [e a0] to [Debye]
 Dipole X            :          0.0000000            0.0000000            0.0000000
 Dipole Y            :          0.0000000            0.0000000            0.0000000
 Dipole Z            :         -9.2212082            3.5915775           -5.6296307
 Magnitude           :                                                    5.6296307

 ------------------------------------------------------------------------------------

*** tstop() called on Joses-MacBook-Pro-2.local at Thu Jul 17 11:21:10 2025
Module time:
	user time   =       4.26 seconds =       0.07 minutes
	system time =       4.01 seconds =       0.07 minutes
	total time  =          1 seconds =       0.02 minutes
Total time:
	user time   =     336.57 seconds =       5.61 minutes
	system time =     252.21 seconds =       4.20 minutes
	total time  =         57 seconds =       0.95 minutes

*** tstart() called on Joses-MacBook-Pro-2.local
*** at Thu Jul 17 11:21:10 2025

         ------------------------------------------------------------
                                   SCF GRAD
                          Rob Parrish, Justin Turney,
                       Andy Simmonett, and Alex Sokolov
         ------------------------------------------------------------

  ==> Geometry <==

    Molecular point group: c2v
    Full point group: C_inf_v

    Geometry (in Angstrom), charge = -1, multiplicity = 3:

       Center              X                  Y                   Z               Mass
    ------------   -----------------  -----------------  -----------------  -----------------
         NA           0.000000000000     0.000000000000     2.947251163191    22.989769282000
         AR           0.000000000000     0.000000000000    -1.695510101290    39.962383123700

  Nuclear repulsion =   22.567838780391043

  ==> Basis Set <==

  Basis Set: CC-PVDZ
    Blend: CC-PVDZ
    Number of shells: 16
    Number of basis functions: 36
    Number of Cartesian functions: 38
    Spherical Harmonics?: true
    Max angular momentum: 2

  ==> DFJKGrad: Density-Fitted SCF Gradients <==

    Gradient:                    1
    J tasked:                  Yes
    K tasked:                  Yes
    wK tasked:                  No
    OpenMP threads:              1
    Integrals threads:           1
    Memory [MiB]:              375
    Schwarz Cutoff:          1E-12
    Fitting Condition:       1E-10

   => Auxiliary Basis Set <=

  Basis Set: (CC-PVDZ AUX)
    Blend: CC-PVDZ-JKFIT + DEF2-UNIVERSAL-JKFIT
    Number of shells: 70
    Number of basis functions: 224
    Number of Cartesian functions: 267
    Spherical Harmonics?: true
    Max angular momentum: 4

  ==> DFT Potential <==

   => LibXC <=

    Version 6.2.2
    S. Lehtola, C. Steigemann, M. J.T. Oliveira, and M. A.L. Marques.,  SoftwareX 7, 1â€“5 (2018) (10.1016/j.softx.2017.11.002)

   => Composite Functional: B3LYP <=

    B3LYP Hyb-GGA Exchange-Correlation Functional

    P. J. Stephens, F. J. Devlin, C. F. Chabalowski, and M. J. Frisch.,  J. Phys. Chem. 98, 11623 (1994) (10.1021/j100096a001)

    Deriv               =              1
    GGA                 =           TRUE
    Meta                =          FALSE

    Exchange Hybrid     =           TRUE
    MP2 Hybrid          =          FALSE

   => Exchange Functionals <=

    0.0800   Slater exchange
    0.7200         Becke 88

   => Exact (HF) Exchange <=

    0.2000               HF

   => Correlation Functionals <=

    0.1900   Vosko, Wilk & Nusair (VWN5_RPA)
    0.8100   Lee, Yang & Parr

   => LibXC Density Thresholds  <==

    XC_HYB_GGA_XC_B3LYP:  1.00E-15

   => Molecular Quadrature <=

    Radial Scheme          =       TREUTLER
    Pruning Scheme         =           NONE
    Nuclear Scheme         =       TREUTLER

    Blocking Scheme        =         OCTREE
    BS radius alpha        =              1
    Pruning alpha          =              1
    Radial Points          =             75
    Spherical Points       =            302
    Total Points           =          43918
    Total Blocks           =            464
    Max Points             =            255
    Max Functions          =             36
    Weights Tolerance      =       1.00E-15

  -Total Gradient:
     Atom            X                  Y                   Z
    ------   -----------------  -----------------  -----------------
       1        0.000000000000     0.000000000000    -0.000211117684
       2        0.000000000000    -0.000000000000     0.000192403739

*** tstop() called on Joses-MacBook-Pro-2.local at Thu Jul 17 11:21:11 2025
Module time:
	user time   =       1.47 seconds =       0.02 minutes
	system time =       2.78 seconds =       0.05 minutes
	total time  =          1 seconds =       0.02 minutes
Total time:
	user time   =     338.04 seconds =       5.63 minutes
	system time =     255.00 seconds =       4.25 minutes
	total time  =         58 seconds =       0.97 minutes

    			-----------------------------------------

    			 OPTKING 3.0: for geometry optimizations

    			     By R.A. King, Bethel University

    			        with contributions from

    			    A.V. Copan, J. Cayton, A. Heide

    			-----------------------------------------

	                            ===> Fragment 1 <==

	 Z (Atomic Numbers)          Masses                          Geom
	      11.000000            22.989769          0.00000000  0.00000000  5.56949752
	      18.000000            39.962383          0.00000000  0.00000000 -3.20404973

	 - Coordinate -           - BOHR/RAD -       - ANG/DEG -
	 R(1,2)           =         8.773547           4.642761

	        --- Internal Coordinate Step in ANG or DEG, aJ/ANG or AJ/DEG ---
	-------------------------------------------------------------------------------
	           Coordinate      Previous         Force          Change          New
	           ----------      --------        ------          ------        ------
	               R(1,2)       4.64276        0.00166        0.00031       4.64307
	-------------------------------------------------------------------------------

	                                 ==> Convergence Check <==

	Measures of convergence in internal coordinates in au.

	Criteria marked as inactive (o), active & met (*), and active & unmet ( ).

	----------------------------------------------------------------------------------------------
	   Step    Total Energy     Delta E     Max Force     RMS Force      Max Disp      RMS Disp
	----------------------------------------------------------------------------------------------
	  Convergence Criteria     1.00e-06 *    3.00e-04 *             o    1.20e-03 *             o
	----------------------------------------------------------------------------------------------
	    45    -689.81784353   -1.71e-04      2.02e-04 *    2.02e-04 o    5.81e-04 *    5.81e-04 o  ~
	----------------------------------------------------------------------------------------------

Next Geometry in Ang
	Fragment 1 (Ang)

	   Na   0.0000000000   0.0000000000   2.9474047721
	   Ar   0.0000000000   0.0000000000  -1.6956637102

    Final optimized geometry and variables:
    Molecular point group: c2v
    Full point group: C_inf_v

    Geometry (in Angstrom), charge = -1, multiplicity = 3:

    NA           0.000000000000     0.000000000000     2.947251163191
    AR           0.000000000000     0.000000000000    -1.695510101290

    Psi4 stopped on: Thursday, 17 July 2025 11:21AM
    Psi4 wall time for execution: 0:00:58.12

*** Psi4 exiting successfully. Buy a developer a beer!
