                               Psi4 1.9.1 release

  ==> Input File <==

--------------------------------------------------------------------------
molecule {
-1 3
N   0.00000        0.60000        0.00000
Ar   0.00000       -0.60000        0.00000
}

set {
basis              cc-pvdz
reference          uks
maxiter            500
geom_maxiter       500
DAMPING_PERCENTAGE 1
guess              SAP
}

optimize('b3lyp')
--------------------------------------------------------------------------

    Molecular point group: c2v
  Charge       = -1
  Multiplicity = 3
  Basis Set: CC-PVDZ
    Blend: CC-PVDZ
  Basis Set: (CC-PVDZ AUX)
    Blend: CC-PVDZ-JKFIT
  @DF-UKS Final Energy:  -581.40603108633820
    Total Energy =                       -581.4060310863382028
 Dipole X            :          0.0000000            0.0000000            0.0000000
 Dipole Y            :          0.0000000            0.0000000            0.0000000
 Dipole Z            :         -1.8541060            1.1631923           -0.6909137
 Magnitude           :                                                    0.6909137
    Molecular point group: c2v
  Basis Set: CC-PVDZ
    Blend: CC-PVDZ
  Basis Set: (CC-PVDZ AUX)
    Blend: CC-PVDZ-JKFIT
  Basis Set: CC-PVDZ
    Blend: CC-PVDZ
  Basis Set: (CC-PVDZ AUX)
    Blend: CC-PVDZ-JKFIT
  @DF-UKS Final Energy:  -581.61994240154570
    Total Energy =                       -581.6199424015456998
  Basis Set: CC-PVDZ
    Blend: CC-PVDZ
  Basis Set: (CC-PVDZ AUX)
    Blend: CC-PVDZ-JKFIT
  Basis Set: CC-PVDZ
    Blend: CC-PVDZ
  @DF-UKS Final Energy:  -581.76974310795993
    Total Energy =                       -581.7697431079599255
  @DF-UKS Final Energy:  -581.89219218349092
    Total Energy =                       -581.8921921834909199
  @DF-UKS Final Energy:  -581.99100689352667
    Total Energy =                       -581.9910068935266736
  @DF-UKS Final Energy:  -582.03279242123938
    Total Energy =                       -582.0327924212394919
  @DF-UKS Final Energy:  -582.05264846154421
    Total Energy =                       -582.0526484615442087
  @DF-UKS Final Energy:  -582.06218012973579
    Total Energy =                       -582.0621801297357933
  @DF-UKS Final Energy:  -582.06666978171666
    Total Energy =                       -582.0666697817166551
  @DF-UKS Final Energy:  -582.06869756602032
    Total Energy =                       -582.0686975660203188
  @DF-UKS Final Energy:  -582.06953198066140
    Total Energy =                       -582.0695319806613952
  @DF-UKS Final Energy:  -582.06981484579433
    Total Energy =                       -582.0698148457943262
  @DF-UKS Final Energy:  -582.06987241416221
    Total Energy =                       -582.0698724141622051
  @DF-UKS Final Energy:  -582.06988841755754
    Total Energy =                       -582.0698884175575358
  Basis Set: (CC-PVDZ AUX)
    Blend: CC-PVDZ-JKFIT
  Basis Set: CC-PVDZ
    Blend: CC-PVDZ
  Basis Set: (CC-PVDZ AUX)
    Blend: CC-PVDZ-JKFIT
  @DF-UKS Final Energy:  -582.06989036839252
    Total Energy =                       -582.0698903683925209
  Basis Set: CC-PVDZ
    Blend: CC-PVDZ
  Basis Set: (CC-PVDZ AUX)
    Blend: CC-PVDZ-JKFIT
  Charge       = -1
  Multiplicity = 3
  Basis Set: CC-PVDZ
    Blend: CC-PVDZ
  Basis Set: (CC-PVDZ AUX)
    Blend: CC-PVDZ-JKFIT

    Orbital Energies [Eh]
    ---------------------

    Alpha Occupied:

       1A1  -114.934168     2A1   -13.912909     3A1   -10.970303
       1B2    -8.520384     1B1    -8.520343     4A1    -8.519795
       5A1    -0.799423     6A1    -0.305455     2B2    -0.259473
       2B1    -0.259175     7A1    -0.251273     3B2     0.119554
       8A1     0.119666     3B1     0.178453

    Alpha Virtual:

       4B2     0.740048     4B1     0.740858     9A1     0.746936
      10A1     0.871067    11A1     0.994933     1A2     0.998684
      12A1     0.998684     5B2     1.001510     5B1     1.002077
       6B2     1.068200     6B1     1.111262    13A1     1.127895
      14A1     1.255186     7B2     2.137324    15A1     2.140241
       2A2     2.184347     7B1     2.184392    16A1     2.201956

    Beta Occupied:

       1A1  -114.934061     2A1   -13.881204     3A1   -10.970196
       1B2    -8.520297     1B1    -8.520269     4A1    -8.519542
       5A1    -0.799061     2B2    -0.259345     2B1    -0.259068
       6A1    -0.252895     7A1    -0.179796     3B1     0.215016

    Beta Virtual:

       8A1     0.329704     3B2     0.332513     4B2     0.740496
       4B1     0.740845     9A1     0.756092    10A1     0.881962
      11A1     0.998754     1A2     0.998822    12A1     0.998907
       5B2     1.002409     5B1     1.002502     6B1     1.137781
       6B2     1.170468    13A1     1.213934    14A1     1.320638
       7B1     2.254973     2A2     2.255313    15A1     2.261558
       7B2     2.274301    16A1     2.277074

    Final Occupation by Irrep:
             A1    A2    B1    B2
    DOCC [     7,    0,    3,    2 ]
    SOCC [     1,    0,    0,    1 ]
    NA   [     8,    0,    3,    3 ]
    NB   [     7,    0,    3,    2 ]

  @DF-UKS Final Energy:  -582.06989063010815

   => Energetics <=

    Nuclear Repulsion Energy =             20.7035188600732418
    One-Electron Energy =                -850.0208451553257873
    Two-Electron Energy =                 277.8880117987659446
    DFT Exchange-Correlation Energy =     -30.6405761336214724
    Empirical Dispersion Energy =           0.0000000000000000
    VV10 Nonlocal Energy =                  0.0000000000000000
    Total Energy =                       -582.0698906301080342

  UHF NO Occupations:
  HONO-2 :    7 A1 1.9992375
  HONO-1 :    8 A1 1.0000000
  HONO-0 :    3 B2 1.0000000
  LUNO+0 :    9 A1 0.0007625
  LUNO+1 :    4 B1 0.0001999
  LUNO+2 :   10 A1 0.0000013
  LUNO+3 :    4 B2 0.0000001

Computation Completed

Properties will be evaluated at   0.000000,   0.000000,   0.000000 [a0]

Properties computed using the SCF density matrix

 Multipole Moments:

 ------------------------------------------------------------------------------------
     Multipole            Electronic (a.u.)      Nuclear  (a.u.)        Total (a.u.)
 ------------------------------------------------------------------------------------

 L = 1.  Multiply by 2.5417464519 to convert [e a0] to [Debye]
 Dipole X            :          0.0000000            0.0000000            0.0000000
 Dipole Y            :          0.0000000            0.0000000            0.0000000
 Dipole Z            :         -7.4823653            3.1217476           -4.3606178
 Magnitude           :                                                    4.3606178

 ------------------------------------------------------------------------------------

*** tstop() called on Joses-MacBook-Pro-2.local at Thu Jul 17 10:37:56 2025
Module time:
	user time   =       2.55 seconds =       0.04 minutes
	system time =       4.01 seconds =       0.07 minutes
	total time  =          0 seconds =       0.00 minutes
Total time:
	user time   =      66.62 seconds =       1.11 minutes
	system time =      95.23 seconds =       1.59 minutes
	total time  =         16 seconds =       0.27 minutes

*** tstart() called on Joses-MacBook-Pro-2.local
*** at Thu Jul 17 10:37:56 2025

         ------------------------------------------------------------
                                   SCF GRAD
                          Rob Parrish, Justin Turney,
                       Andy Simmonett, and Alex Sokolov
         ------------------------------------------------------------

  ==> Geometry <==

    Molecular point group: c2v
    Full point group: C_inf_v

    Geometry (in Angstrom), charge = -1, multiplicity = 3:

       Center              X                  Y                   Z               Mass
    ------------   -----------------  -----------------  -----------------  -----------------
         N            0.000000000000     0.000000000000     2.384860774454    14.003074004430
         AR           0.000000000000     0.000000000000    -0.835670430654    39.962383123700

  Nuclear repulsion =   20.703518860073242

  ==> Basis Set <==

  Basis Set: CC-PVDZ
    Blend: CC-PVDZ
    Number of shells: 14
    Number of basis functions: 32
    Number of Cartesian functions: 34
    Spherical Harmonics?: true
    Max angular momentum: 2

  ==> DFJKGrad: Density-Fitted SCF Gradients <==

    Gradient:                    1
    J tasked:                  Yes
    K tasked:                  Yes
    wK tasked:                  No
    OpenMP threads:              1
    Integrals threads:           1
    Memory [MiB]:              375
    Schwarz Cutoff:          1E-12
    Fitting Condition:       1E-10

   => Auxiliary Basis Set <=

  Basis Set: (CC-PVDZ AUX)
    Blend: CC-PVDZ-JKFIT
    Number of shells: 60
    Number of basis functions: 182
    Number of Cartesian functions: 211
    Spherical Harmonics?: true
    Max angular momentum: 3

  ==> DFT Potential <==

   => LibXC <=

    Version 6.2.2
    S. Lehtola, C. Steigemann, M. J.T. Oliveira, and M. A.L. Marques.,  SoftwareX 7, 1â€“5 (2018) (10.1016/j.softx.2017.11.002)

   => Composite Functional: B3LYP <=

    B3LYP Hyb-GGA Exchange-Correlation Functional

    P. J. Stephens, F. J. Devlin, C. F. Chabalowski, and M. J. Frisch.,  J. Phys. Chem. 98, 11623 (1994) (10.1021/j100096a001)

    Deriv               =              1
    GGA                 =           TRUE
    Meta                =          FALSE

    Exchange Hybrid     =           TRUE
    MP2 Hybrid          =          FALSE

   => Exchange Functionals <=

    0.0800   Slater exchange
    0.7200         Becke 88

   => Exact (HF) Exchange <=

    0.2000               HF

   => Correlation Functionals <=

    0.1900   Vosko, Wilk & Nusair (VWN5_RPA)
    0.8100   Lee, Yang & Parr

   => LibXC Density Thresholds  <==

    XC_HYB_GGA_XC_B3LYP:  1.00E-15

   => Molecular Quadrature <=

    Radial Scheme          =       TREUTLER
    Pruning Scheme         =           NONE
    Nuclear Scheme         =       TREUTLER

    Blocking Scheme        =         OCTREE
    BS radius alpha        =              1
    Pruning alpha          =              1
    Radial Points          =             75
    Spherical Points       =            302
    Total Points           =          40931
    Total Blocks           =            373
    Max Points             =            256
    Max Functions          =             32
    Weights Tolerance      =       1.00E-15

  -Total Gradient:
     Atom            X                  Y                   Z
    ------   -----------------  -----------------  -----------------
       1        0.000000000000    -0.000000000000    -0.000010095967
       2       -0.000000000000    -0.000000000000     0.000021096833

*** tstop() called on Joses-MacBook-Pro-2.local at Thu Jul 17 10:37:56 2025
Module time:
	user time   =       0.93 seconds =       0.02 minutes
	system time =       1.27 seconds =       0.02 minutes
	total time  =          0 seconds =       0.00 minutes
Total time:
	user time   =      67.55 seconds =       1.13 minutes
	system time =      96.50 seconds =       1.61 minutes
	total time  =         16 seconds =       0.27 minutes

    			-----------------------------------------

    			 OPTKING 3.0: for geometry optimizations

    			     By R.A. King, Bethel University

    			        with contributions from

    			    A.V. Copan, J. Cayton, A. Heide

    			-----------------------------------------

	                            ===> Fragment 1 <==

	 Z (Atomic Numbers)          Masses                          Geom
	       7.000000            14.003074          0.00000000  0.00000000  4.50673371
	      18.000000            39.962383          0.00000000  0.00000000 -1.57918825

	 - Coordinate -           - BOHR/RAD -       - ANG/DEG -
	 R(1,2)           =         6.085922           3.220531

	        --- Internal Coordinate Step in ANG or DEG, aJ/ANG or AJ/DEG ---
	-------------------------------------------------------------------------------
	           Coordinate      Previous         Force          Change          New
	           ----------      --------        ------          ------        ------
	               R(1,2)       3.22053        0.00013        0.00205       3.22258
	-------------------------------------------------------------------------------

	                                 ==> Convergence Check <==

	Measures of convergence in internal coordinates in au.

	Criteria marked as inactive (o), active & met (*), and active & unmet ( ).

	----------------------------------------------------------------------------------------------
	   Step    Total Energy     Delta E     Max Force     RMS Force      Max Disp      RMS Disp
	----------------------------------------------------------------------------------------------
	  Convergence Criteria     1.00e-06 *    3.00e-04 *             o    1.20e-03 *             o
	----------------------------------------------------------------------------------------------
	    16    -582.06989063   -2.62e-07 *    1.56e-05 *    1.56e-05 o    3.88e-03      3.88e-03 o  ~
	----------------------------------------------------------------------------------------------

Next Geometry in Ang
	Fragment 1 (Ang)

	    N   0.0000000000   0.0000000000   2.3858872930
	   Ar   0.0000000000   0.0000000000  -0.8366969492

    Final optimized geometry and variables:
    Molecular point group: c2v
    Full point group: C_inf_v

    Geometry (in Angstrom), charge = -1, multiplicity = 3:

    N            0.000000000000     0.000000000000     2.384860774454
    AR           0.000000000000     0.000000000000    -0.835670430654

    Psi4 stopped on: Thursday, 17 July 2025 10:37AM
    Psi4 wall time for execution: 0:00:17.45

*** Psi4 exiting successfully. Buy a developer a beer!
