                               Psi4 1.9.1 release

  ==> Input File <==

--------------------------------------------------------------------------
molecule {
-1 3
P   0.00000        0.60000        0.00000
Ar   0.00000       -0.60000        0.00000
}

set {
basis              cc-pvdz
reference          uks
maxiter            500
geom_maxiter       500
DAMPING_PERCENTAGE 1
guess              SAP
}

optimize('b3lyp')
--------------------------------------------------------------------------

    Molecular point group: c2v
  Charge       = -1
  Multiplicity = 3
  Basis Set: CC-PVDZ
    Blend: CC-PVDZ
  Basis Set: (CC-PVDZ AUX)
    Blend: CC-PVDZ-JKFIT
  @DF-UKS Final Energy:  -867.18639081812478
    Total Energy =                       -867.1863908181247780
 Dipole X            :          0.0000000            0.0000000            0.0000000
 Dipole Y            :          0.0000000            0.0000000            0.0000000
 Dipole Z            :         -4.1155028            1.3397069           -2.7757960
 Magnitude           :                                                    2.7757960
    Molecular point group: c2v
  Basis Set: CC-PVDZ
    Blend: CC-PVDZ
  Basis Set: (CC-PVDZ AUX)
    Blend: CC-PVDZ-JKFIT
  Basis Set: CC-PVDZ
    Blend: CC-PVDZ
  Basis Set: (CC-PVDZ AUX)
    Blend: CC-PVDZ-JKFIT
  @DF-UKS Final Energy:  -867.23106260266320
    Total Energy =                       -867.2310626026632008
  Basis Set: CC-PVDZ
    Blend: CC-PVDZ
  Basis Set: (CC-PVDZ AUX)
    Blend: CC-PVDZ-JKFIT
  Basis Set: CC-PVDZ
    Blend: CC-PVDZ
  @DF-UKS Final Energy:  -867.31338146931421
    Total Energy =                       -867.3133814693142085
  @DF-UKS Final Energy:  -867.57708855242038
    Total Energy =                       -867.5770885524204914
  @DF-UKS Final Energy:  -868.10346652152464
    Total Energy =                       -868.1034665215246378
  @DF-UKS Final Energy:  -868.31746767017705
    Total Energy =                       -868.3174676701769386
  @DF-UKS Final Energy:  -868.48880745237682
    Total Energy =                       -868.4888074523768182
  @DF-UKS Final Energy:  -868.62002653978880
    Total Energy =                       -868.6200265397889098
  @DF-UKS Final Energy:  -868.71488556063480
    Total Energy =                       -868.7148855606347979
  @DF-UKS Final Energy:  -868.76487668506547
    Total Energy =                       -868.7648766850654738
  @DF-UKS Final Energy:  -868.79161276110381
    Total Energy =                       -868.7916127611038064
  @DF-UKS Final Energy:  -868.80559610285650
    Total Energy =                       -868.8055961028564980
  @DF-UKS Final Energy:  -868.81284973075628
    Total Energy =                       -868.8128497307562839
  @DF-UKS Final Energy:  -868.81659509988015
    Total Energy =                       -868.8165950998801463
  @DF-UKS Final Energy:  -868.81851710712738
    Total Energy =                       -868.8185171071273771
  @DF-UKS Final Energy:  -868.81947787785964
    Total Energy =                       -868.8194778778596401
  @DF-UKS Final Energy:  -868.81992740792248
    Total Energy =                       -868.8199274079224779
  @DF-UKS Final Energy:  -868.82011441523252
    Total Energy =                       -868.8201144152324105
  @DF-UKS Final Energy:  -868.82017864069303
    Total Energy =                       -868.8201786406930296
  @DF-UKS Final Energy:  -868.82019491341737
    Total Energy =                       -868.8201949134173674
  Basis Set: (CC-PVDZ AUX)
    Blend: CC-PVDZ-JKFIT
  Basis Set: CC-PVDZ
    Blend: CC-PVDZ
  Basis Set: (CC-PVDZ AUX)
    Blend: CC-PVDZ-JKFIT
  @DF-UKS Final Energy:  -868.82019693843495
    Total Energy =                       -868.8201969384348331
  Basis Set: CC-PVDZ
    Blend: CC-PVDZ
  Basis Set: (CC-PVDZ AUX)
    Blend: CC-PVDZ-JKFIT
  Charge       = -1
  Multiplicity = 3
  Basis Set: CC-PVDZ
    Blend: CC-PVDZ
  Basis Set: (CC-PVDZ AUX)
    Blend: CC-PVDZ-JKFIT

    Orbital Energies [Eh]
    ---------------------

    Alpha Occupied:

       1A1  -114.976069     2A1   -76.773789     3A1   -11.012163
       1B1    -8.562118     1B2    -8.562103     4A1    -8.561882
       5A1    -6.239615     6A1    -4.406607     2B1    -4.406598
       2B2    -4.392943     7A1    -0.840636     3B1    -0.299350
       3B2    -0.299190     8A1    -0.296432     9A1    -0.256496
      10A1     0.047925     4B1     0.047988     4B2     0.087391

    Alpha Virtual:

      11A1     0.603249    12A1     0.650002     5B1     0.676357
       5B2     0.696581     6B1     0.706355     6B2     0.716077
      13A1     0.739121     7B1     0.745242    14A1     0.759850
       1A2     0.777528     7B2     0.777555    15A1     0.790261
      16A1     0.868442     2A2     0.958630    17A1     0.958632
       8B1     0.960187     8B2     0.960290    18A1     0.962171

    Beta Occupied:

       1A1  -114.976032     2A1   -76.767134     3A1   -11.012126
       1B1    -8.562089     1B2    -8.562076     4A1    -8.561792
       5A1    -6.232520     6A1    -4.392843     2B1    -4.392813
       2B2    -4.388922     7A1    -0.840513     3B1    -0.299324
       3B2    -0.299166     8A1    -0.296248     9A1    -0.183268
       4B2     0.107654

    Beta Virtual:

      10A1     0.174910     4B1     0.175280    11A1     0.629818
      12A1     0.682304     5B2     0.699295     5B1     0.699831
       6B2     0.724669     6B1     0.729454    13A1     0.767851
       7B2     0.823462     1A2     0.823529    14A1     0.826378
       7B1     0.833537    15A1     0.833876    16A1     0.873144
       2A2     0.958672    17A1     0.958674     8B1     0.960308
       8B2     0.960405    18A1     0.962548

    Final Occupation by Irrep:
             A1    A2    B1    B2
    DOCC [     9,    0,    3,    4 ]
    SOCC [     1,    0,    1,    0 ]
    NA   [    10,    0,    4,    4 ]
    NB   [     9,    0,    3,    4 ]

  @DF-UKS Final Energy:  -868.82019716694958

   => Energetics <=

    Nuclear Repulsion Energy =             33.5351788609745682
    One-Electron Energy =               -1274.2376587404655766
    Two-Electron Energy =                 415.6495001394447968
    DFT Exchange-Correlation Energy =     -43.7672174269034500
    Empirical Dispersion Energy =           0.0000000000000000
    VV10 Nonlocal Energy =                  0.0000000000000000
    Total Energy =                       -868.8201971669495833

  UHF NO Occupations:
  HONO-2 :    9 A1 1.9989790
  HONO-1 :    4 B1 1.0000000
  HONO-0 :   10 A1 1.0000000
  LUNO+0 :   11 A1 0.0010210
  LUNO+1 :    5 B2 0.0000518
  LUNO+2 :   12 A1 0.0000003
  LUNO+3 :    5 B1 0.0000000

Computation Completed

Properties will be evaluated at   0.000000,   0.000000,   0.000000 [a0]

Properties computed using the SCF density matrix

 Multipole Moments:

 ------------------------------------------------------------------------------------
     Multipole            Electronic (a.u.)      Nuclear  (a.u.)        Total (a.u.)
 ------------------------------------------------------------------------------------

 L = 1.  Multiply by 2.5417464519 to convert [e a0] to [Debye]
 Dipole X            :          0.0000000            0.0000000            0.0000000
 Dipole Y            :          0.0000000            0.0000000            0.0000000
 Dipole Z            :         -9.2245673            4.7565581           -4.4680092
 Magnitude           :                                                    4.4680092

 ------------------------------------------------------------------------------------

*** tstop() called on Joses-MacBook-Pro-2.local at Thu Jul 17 12:04:33 2025
Module time:
	user time   =       3.29 seconds =       0.05 minutes
	system time =       1.77 seconds =       0.03 minutes
	total time  =          0 seconds =       0.00 minutes
Total time:
	user time   =     235.22 seconds =       3.92 minutes
	system time =      66.38 seconds =       1.11 minutes
	total time  =         28 seconds =       0.47 minutes

*** tstart() called on Joses-MacBook-Pro-2.local
*** at Thu Jul 17 12:04:33 2025

         ------------------------------------------------------------
                                   SCF GRAD
                          Rob Parrish, Justin Turney,
                       Andy Simmonett, and Alex Sokolov
         ------------------------------------------------------------

  ==> Geometry <==

    Molecular point group: c2v
    Full point group: C_inf_v

    Geometry (in Angstrom), charge = -1, multiplicity = 3:

       Center              X                  Y                   Z               Mass
    ------------   -----------------  -----------------  -----------------  -----------------
         P            0.000000000000     0.000000000000     2.400203502176    30.973761998420
         AR           0.000000000000     0.000000000000    -1.860332798323    39.962383123700

  Nuclear repulsion =   33.535178860974568

  ==> Basis Set <==

  Basis Set: CC-PVDZ
    Blend: CC-PVDZ
    Number of shells: 16
    Number of basis functions: 36
    Number of Cartesian functions: 38
    Spherical Harmonics?: true
    Max angular momentum: 2

  ==> DFJKGrad: Density-Fitted SCF Gradients <==

    Gradient:                    1
    J tasked:                  Yes
    K tasked:                  Yes
    wK tasked:                  No
    OpenMP threads:              1
    Integrals threads:           1
    Memory [MiB]:              375
    Schwarz Cutoff:          1E-12
    Fitting Condition:       1E-10

   => Auxiliary Basis Set <=

  Basis Set: (CC-PVDZ AUX)
    Blend: CC-PVDZ-JKFIT
    Number of shells: 72
    Number of basis functions: 224
    Number of Cartesian functions: 260
    Spherical Harmonics?: true
    Max angular momentum: 3

  ==> DFT Potential <==

   => LibXC <=

    Version 6.2.2
    S. Lehtola, C. Steigemann, M. J.T. Oliveira, and M. A.L. Marques.,  SoftwareX 7, 1â€“5 (2018) (10.1016/j.softx.2017.11.002)

   => Composite Functional: B3LYP <=

    B3LYP Hyb-GGA Exchange-Correlation Functional

    P. J. Stephens, F. J. Devlin, C. F. Chabalowski, and M. J. Frisch.,  J. Phys. Chem. 98, 11623 (1994) (10.1021/j100096a001)

    Deriv               =              1
    GGA                 =           TRUE
    Meta                =          FALSE

    Exchange Hybrid     =           TRUE
    MP2 Hybrid          =          FALSE

   => Exchange Functionals <=

    0.0800   Slater exchange
    0.7200         Becke 88

   => Exact (HF) Exchange <=

    0.2000               HF

   => Correlation Functionals <=

    0.1900   Vosko, Wilk & Nusair (VWN5_RPA)
    0.8100   Lee, Yang & Parr

   => LibXC Density Thresholds  <==

    XC_HYB_GGA_XC_B3LYP:  1.00E-15

   => Molecular Quadrature <=

    Radial Scheme          =       TREUTLER
    Pruning Scheme         =           NONE
    Nuclear Scheme         =       TREUTLER

    Blocking Scheme        =         OCTREE
    BS radius alpha        =              1
    Pruning alpha          =              1
    Radial Points          =             75
    Spherical Points       =            302
    Total Points           =          41008
    Total Blocks           =            426
    Max Points             =            241
    Max Functions          =             36
    Weights Tolerance      =       1.00E-15

  -Total Gradient:
     Atom            X                  Y                   Z
    ------   -----------------  -----------------  -----------------
       1        0.000000000000    -0.000000000000    -0.000011929933
       2        0.000000000000     0.000000000000     0.000004808698

*** tstop() called on Joses-MacBook-Pro-2.local at Thu Jul 17 12:04:34 2025
Module time:
	user time   =       2.05 seconds =       0.03 minutes
	system time =       1.37 seconds =       0.02 minutes
	total time  =          1 seconds =       0.02 minutes
Total time:
	user time   =     237.27 seconds =       3.95 minutes
	system time =      67.75 seconds =       1.13 minutes
	total time  =         29 seconds =       0.48 minutes

    			-----------------------------------------

    			 OPTKING 3.0: for geometry optimizations

    			     By R.A. King, Bethel University

    			        with contributions from

    			    A.V. Copan, J. Cayton, A. Heide

    			-----------------------------------------

	                            ===> Fragment 1 <==

	 Z (Atomic Numbers)          Masses                          Geom
	      15.000000            30.973762          0.00000000  0.00000000  4.53572726
	      18.000000            39.962383          0.00000000  0.00000000 -3.51551949

	 - Coordinate -           - BOHR/RAD -       - ANG/DEG -
	 R(1,2)           =         8.051247           4.260536

	        --- Internal Coordinate Step in ANG or DEG, aJ/ANG or AJ/DEG ---
	-------------------------------------------------------------------------------
	           Coordinate      Previous         Force          Change          New
	           ----------      --------        ------          ------        ------
	               R(1,2)       4.26054        0.00007        0.00520       4.26574
	-------------------------------------------------------------------------------

	                                 ==> Convergence Check <==

	Measures of convergence in internal coordinates in au.

	Criteria marked as inactive (o), active & met (*), and active & unmet ( ).

	----------------------------------------------------------------------------------------------
	   Step    Total Energy     Delta E     Max Force     RMS Force      Max Disp      RMS Disp
	----------------------------------------------------------------------------------------------
	  Convergence Criteria     1.00e-06 *    3.00e-04 *             o    1.20e-03 *             o
	----------------------------------------------------------------------------------------------
	    22    -868.82019717   -2.29e-07 *    8.37e-06 *    8.37e-06 o    9.83e-03      9.83e-03 o  ~
	----------------------------------------------------------------------------------------------

Next Geometry in Ang
	Fragment 1 (Ang)

	    P   0.0000000000   0.0000000000   2.4028037320
	   Ar   0.0000000000   0.0000000000  -1.8629330281

    Final optimized geometry and variables:
    Molecular point group: c2v
    Full point group: C_inf_v

    Geometry (in Angstrom), charge = -1, multiplicity = 3:

    P            0.000000000000     0.000000000000     2.400203502176
    AR           0.000000000000     0.000000000000    -1.860332798323

    Psi4 stopped on: Thursday, 17 July 2025 12:04PM
    Psi4 wall time for execution: 0:00:29.54

*** Psi4 exiting successfully. Buy a developer a beer!
