                               Psi4 1.9.1 release

  ==> Input File <==

--------------------------------------------------------------------------
molecule {
-1 3
Ne   0.00000        0.60000        0.00000
P   0.00000       -0.60000        0.00000
}

set {
basis              cc-pvdz
reference          uks
maxiter            500
geom_maxiter       500
DAMPING_PERCENTAGE 1
guess              SAP
}

optimize('b3lyp')
--------------------------------------------------------------------------

    Molecular point group: c2v
  Charge       = -1
  Multiplicity = 3
  Basis Set: CC-PVDZ
    Blend: CC-PVDZ
  Basis Set: (CC-PVDZ AUX)
    Blend: CC-PVDZ-JKFIT
  @DF-UKS Final Energy:  -469.50055988579464
    Total Energy =                       -469.5005598857946438
 Dipole X            :          0.0000000            0.0000000            0.0000000
 Dipole Y            :          0.0000000            0.0000000            0.0000000
 Dipole Z            :          1.6800388            0.4383075            2.1183464
 Magnitude           :                                                    2.1183464
    Molecular point group: c2v
  Basis Set: CC-PVDZ
    Blend: CC-PVDZ
  Basis Set: (CC-PVDZ AUX)
    Blend: CC-PVDZ-JKFIT
  Basis Set: CC-PVDZ
    Blend: CC-PVDZ
  Basis Set: (CC-PVDZ AUX)
    Blend: CC-PVDZ-JKFIT
  @DF-UKS Final Energy:  -469.74888380785978
    Total Energy =                       -469.7488838078597837
  Basis Set: CC-PVDZ
    Blend: CC-PVDZ
  Basis Set: (CC-PVDZ AUX)
    Blend: CC-PVDZ-JKFIT
  Basis Set: CC-PVDZ
    Blend: CC-PVDZ
  @DF-UKS Final Energy:  -469.90841227090743
    Total Energy =                       -469.9084122709074336
  @DF-UKS Final Energy:  -470.01937115409902
    Total Energy =                       -470.0193711540990193
  @DF-UKS Final Energy:  -470.09943362410303
    Total Energy =                       -470.0994336241030283
  @DF-UKS Final Energy:  -470.14205130321039
    Total Energy =                       -470.1420513032103941
  @DF-UKS Final Energy:  -470.16440045007494
    Total Energy =                       -470.1644004500749361
  @DF-UKS Final Energy:  -470.17603441553695
    Total Energy =                       -470.1760344155369467
  @DF-UKS Final Energy:  -470.18199352407214
    Total Energy =                       -470.1819935240721406
  @DF-UKS Final Energy:  -470.18494654451450
    Total Energy =                       -470.1849465445145029
  @DF-UKS Final Energy:  -470.18634721942834
    Total Energy =                       -470.1863472194283418
  @DF-UKS Final Energy:  -470.18696633170651
    Total Energy =                       -470.1869663317065715
  @DF-UKS Final Energy:  -470.18720983607852
    Total Energy =                       -470.1872098360784662
  @DF-UKS Final Energy:  -470.18729232541347
    Total Energy =                       -470.1872923254134662
  @DF-UKS Final Energy:  -470.18730926941191
    Total Energy =                       -470.1873092694119123
  @DF-UKS Final Energy:  -470.18731597019973
    Total Energy =                       -470.1873159701996769
  Basis Set: (CC-PVDZ AUX)
    Blend: CC-PVDZ-JKFIT
  Basis Set: CC-PVDZ
    Blend: CC-PVDZ
  Basis Set: (CC-PVDZ AUX)
    Blend: CC-PVDZ-JKFIT
  @DF-UKS Final Energy:  -470.18731746594483
    Total Energy =                       -470.1873174659448296
  Basis Set: CC-PVDZ
    Blend: CC-PVDZ
  Basis Set: (CC-PVDZ AUX)
    Blend: CC-PVDZ-JKFIT
  Charge       = -1
  Multiplicity = 3
  Basis Set: CC-PVDZ
    Blend: CC-PVDZ
  Basis Set: (CC-PVDZ AUX)
    Blend: CC-PVDZ-JKFIT

    Orbital Energies [Eh]
    ---------------------

    Alpha Occupied:

       1A1   -76.772354     2A1   -30.818670     3A1    -6.238231
       1B1    -4.405215     4A1    -4.405211     1B2    -4.391570
       5A1    -1.284163     2B1    -0.393091     2B2    -0.392964
       6A1    -0.391775     7A1    -0.255387     3B1     0.049086
       8A1     0.049438     3B2     0.088481

    Alpha Virtual:

       9A1     0.616992    10A1     0.679651     4B1     0.680473
       4B2     0.710026    11A1     0.746219     5B1     0.746291
       5B2     0.778649     1A2     0.778673    12A1     0.790514
       6B1     1.505290     6B2     1.505574    13A1     1.523253
      14A1     1.971978     2A2     4.872485    15A1     4.872623
       7B1     4.873264     7B2     4.873335    16A1     4.873829

    Beta Occupied:

       1A1   -76.765684     2A1   -30.818580     3A1    -6.231121
       1B1    -4.391429     4A1    -4.391396     1B2    -4.387539
       5A1    -1.284022     2B1    -0.393038     2B2    -0.392916
       6A1    -0.391504     7A1    -0.182030     3B2     0.108751

    Beta Virtual:

       3B1     0.176340     8A1     0.176625     9A1     0.647884
       4B2     0.721459    10A1     0.725618     4B1     0.727093
       1A2     0.824675     5B2     0.824679    11A1     0.827319
      12A1     0.834669     5B1     0.834753     6B1     1.505223
       6B2     1.505505    13A1     1.523576    14A1     1.972239
       2A2     4.872532    15A1     4.872670     7B1     4.873406
       7B2     4.873475    16A1     4.874001

    Final Occupation by Irrep:
             A1    A2    B1    B2
    DOCC [     7,    0,    2,    3 ]
    SOCC [     1,    0,    1,    0 ]
    NA   [     8,    0,    3,    3 ]
    NB   [     7,    0,    2,    3 ]

  @DF-UKS Final Energy:  -470.18731785110197

   => Energetics <=

    Nuclear Repulsion Energy =             21.7653330433142358
    One-Electron Energy =                -704.1421509893098118
    Two-Electron Energy =                 241.1835637234872252
    DFT Exchange-Correlation Energy =     -28.9940636285936364
    Empirical Dispersion Energy =           0.0000000000000000
    VV10 Nonlocal Energy =                  0.0000000000000000
    Total Energy =                       -470.1873178511019660

  UHF NO Occupations:
  HONO-2 :    7 A1 1.9989764
  HONO-1 :    8 A1 1.0000000
  HONO-0 :    3 B1 1.0000000
  LUNO+0 :    9 A1 0.0010236
  LUNO+1 :    4 B2 0.0000525
  LUNO+2 :   10 A1 0.0000001
  LUNO+3 :   11 A1 0.0000000

Computation Completed

Properties will be evaluated at   0.000000,   0.000000,   0.000000 [a0]

Properties computed using the SCF density matrix

 Multipole Moments:

 ------------------------------------------------------------------------------------
     Multipole            Electronic (a.u.)      Nuclear  (a.u.)        Total (a.u.)
 ------------------------------------------------------------------------------------

 L = 1.  Multiply by 2.5417464519 to convert [e a0] to [Debye]
 Dipole X            :          0.0000000            0.0000000            0.0000000
 Dipole Y            :          0.0000000            0.0000000            0.0000000
 Dipole Z            :          1.3694493            1.3320630            2.7015123
 Magnitude           :                                                    2.7015123

 ------------------------------------------------------------------------------------

*** tstop() called on Joses-MacBook-Pro-2.local at Thu Jul 17 11:02:09 2025
Module time:
	user time   =       3.32 seconds =       0.06 minutes
	system time =       1.96 seconds =       0.03 minutes
	total time  =          1 seconds =       0.02 minutes
Total time:
	user time   =      91.28 seconds =       1.52 minutes
	system time =      93.72 seconds =       1.56 minutes
	total time  =         19 seconds =       0.32 minutes

*** tstart() called on Joses-MacBook-Pro-2.local
*** at Thu Jul 17 11:02:09 2025

         ------------------------------------------------------------
                                   SCF GRAD
                          Rob Parrish, Justin Turney,
                       Andy Simmonett, and Alex Sokolov
         ------------------------------------------------------------

  ==> Geometry <==

    Molecular point group: c2v
    Full point group: C_inf_v

    Geometry (in Angstrom), charge = -1, multiplicity = 3:

       Center              X                  Y                   Z               Mass
    ------------   -----------------  -----------------  -----------------  -----------------
         NE           0.000000000000     0.000000000000     2.216352118246    19.992440176200
         P            0.000000000000     0.000000000000    -1.430574921305    30.973761998420

  Nuclear repulsion =   21.765333043314236

  ==> Basis Set <==

  Basis Set: CC-PVDZ
    Blend: CC-PVDZ
    Number of shells: 14
    Number of basis functions: 32
    Number of Cartesian functions: 34
    Spherical Harmonics?: true
    Max angular momentum: 2

  ==> DFJKGrad: Density-Fitted SCF Gradients <==

    Gradient:                    1
    J tasked:                  Yes
    K tasked:                  Yes
    wK tasked:                  No
    OpenMP threads:              1
    Integrals threads:           1
    Memory [MiB]:              375
    Schwarz Cutoff:          1E-12
    Fitting Condition:       1E-10

   => Auxiliary Basis Set <=

  Basis Set: (CC-PVDZ AUX)
    Blend: CC-PVDZ-JKFIT
    Number of shells: 60
    Number of basis functions: 182
    Number of Cartesian functions: 211
    Spherical Harmonics?: true
    Max angular momentum: 3

  ==> DFT Potential <==

   => LibXC <=

    Version 6.2.2
    S. Lehtola, C. Steigemann, M. J.T. Oliveira, and M. A.L. Marques.,  SoftwareX 7, 1â€“5 (2018) (10.1016/j.softx.2017.11.002)

   => Composite Functional: B3LYP <=

    B3LYP Hyb-GGA Exchange-Correlation Functional

    P. J. Stephens, F. J. Devlin, C. F. Chabalowski, and M. J. Frisch.,  J. Phys. Chem. 98, 11623 (1994) (10.1021/j100096a001)

    Deriv               =              1
    GGA                 =           TRUE
    Meta                =          FALSE

    Exchange Hybrid     =           TRUE
    MP2 Hybrid          =          FALSE

   => Exchange Functionals <=

    0.0800   Slater exchange
    0.7200         Becke 88

   => Exact (HF) Exchange <=

    0.2000               HF

   => Correlation Functionals <=

    0.1900   Vosko, Wilk & Nusair (VWN5_RPA)
    0.8100   Lee, Yang & Parr

   => LibXC Density Thresholds  <==

    XC_HYB_GGA_XC_B3LYP:  1.00E-15

   => Molecular Quadrature <=

    Radial Scheme          =       TREUTLER
    Pruning Scheme         =           NONE
    Nuclear Scheme         =       TREUTLER

    Blocking Scheme        =         OCTREE
    BS radius alpha        =              1
    Pruning alpha          =              1
    Radial Points          =             75
    Spherical Points       =            302
    Total Points           =          42822
    Total Blocks           =            400
    Max Points             =            253
    Max Functions          =             32
    Weights Tolerance      =       1.00E-15

  -Total Gradient:
     Atom            X                  Y                   Z
    ------   -----------------  -----------------  -----------------
       1        0.000000000000     0.000000000000     0.000011441592
       2        0.000000000000     0.000000000000     0.000023121318

*** tstop() called on Joses-MacBook-Pro-2.local at Thu Jul 17 11:02:09 2025
Module time:
	user time   =       0.99 seconds =       0.02 minutes
	system time =       1.20 seconds =       0.02 minutes
	total time  =          0 seconds =       0.00 minutes
Total time:
	user time   =      92.27 seconds =       1.54 minutes
	system time =      94.94 seconds =       1.58 minutes
	total time  =         19 seconds =       0.32 minutes

    			-----------------------------------------

    			 OPTKING 3.0: for geometry optimizations

    			     By R.A. King, Bethel University

    			        with contributions from

    			    A.V. Copan, J. Cayton, A. Heide

    			-----------------------------------------

	                            ===> Fragment 1 <==

	 Z (Atomic Numbers)          Masses                          Geom
	      10.000000            19.992440          0.00000000  0.00000000  4.18829850
	      15.000000            30.973762          0.00000000  0.00000000 -2.70339480

	 - Coordinate -           - BOHR/RAD -       - ANG/DEG -
	 R(1,2)           =         6.891693           3.646927

	        --- Internal Coordinate Step in ANG or DEG, aJ/ANG or AJ/DEG ---
	-------------------------------------------------------------------------------
	           Coordinate      Previous         Force          Change          New
	           ----------      --------        ------          ------        ------
	               R(1,2)       3.64693        0.00005        0.00206       3.64899
	-------------------------------------------------------------------------------

	                                 ==> Convergence Check <==

	Measures of convergence in internal coordinates in au.

	Criteria marked as inactive (o), active & met (*), and active & unmet ( ).

	----------------------------------------------------------------------------------------------
	   Step    Total Energy     Delta E     Max Force     RMS Force      Max Disp      RMS Disp
	----------------------------------------------------------------------------------------------
	  Convergence Criteria     1.00e-06 *    3.00e-04 *             o    1.20e-03 *             o
	----------------------------------------------------------------------------------------------
	    18    -470.18731785   -3.85e-07 *    5.84e-06 *    5.84e-06 o    3.90e-03      3.90e-03 o  ~
	----------------------------------------------------------------------------------------------

Next Geometry in Ang
	Fragment 1 (Ang)

	   Ne   0.0000000000   0.0000000000   2.2173842419
	    P   0.0000000000   0.0000000000  -1.4316070449

    Final optimized geometry and variables:
    Molecular point group: c2v
    Full point group: C_inf_v

    Geometry (in Angstrom), charge = -1, multiplicity = 3:

    NE           0.000000000000     0.000000000000     2.216352118246
    P            0.000000000000     0.000000000000    -1.430574921305

    Psi4 stopped on: Thursday, 17 July 2025 11:02AM
    Psi4 wall time for execution: 0:00:20.10

*** Psi4 exiting successfully. Buy a developer a beer!
