                               Psi4 1.9.1 release

  ==> Input File <==

--------------------------------------------------------------------------
molecule {
-1 3
Li   0.00000        0.60000        0.00000
Ne   0.00000       -0.60000        0.00000
}

set {
basis              cc-pvdz
reference          uks
maxiter            500
geom_maxiter       500
DAMPING_PERCENTAGE 1
guess              SAP
}

optimize('b3lyp')
--------------------------------------------------------------------------

    Molecular point group: c2v
  Charge       = -1
  Multiplicity = 3
  Basis Set: CC-PVDZ
    Blend: CC-PVDZ
  Basis Set: (CC-PVDZ AUX)
    Blend: CC-PVDZ-JKFIT + DEF2-UNIVERSAL-JKFIT
  @DF-UKS Final Energy:  -136.25349609665878
    Total Energy =                       -136.2534960966587789
 Dipole X            :          0.0000000            0.0000000            0.0000000
 Dipole Y            :          0.0000000            0.0000000            0.0000000
 Dipole Z            :         -1.6172453           -0.8549566           -2.4722020
 Magnitude           :                                                    2.4722020
    Molecular point group: c2v
  Basis Set: CC-PVDZ
    Blend: CC-PVDZ
  Basis Set: (CC-PVDZ AUX)
    Blend: CC-PVDZ-JKFIT + DEF2-UNIVERSAL-JKFIT
  Basis Set: CC-PVDZ
    Blend: CC-PVDZ
  Basis Set: (CC-PVDZ AUX)
    Blend: CC-PVDZ-JKFIT + DEF2-UNIVERSAL-JKFIT
  @DF-UKS Final Energy:  -136.34025573247868
    Total Energy =                       -136.3402557324786812
  Basis Set: CC-PVDZ
    Blend: CC-PVDZ
  Basis Set: (CC-PVDZ AUX)
    Blend: CC-PVDZ-JKFIT + DEF2-UNIVERSAL-JKFIT
  Basis Set: CC-PVDZ
    Blend: CC-PVDZ
  @DF-UKS Final Energy:  -136.36360910725392
    Total Energy =                       -136.3636091072539216
  @DF-UKS Final Energy:  -136.37840339452683
    Total Energy =                       -136.3784033945268277
  @DF-UKS Final Energy:  -136.38394063270593
    Total Energy =                       -136.3839406327059294
  @DF-UKS Final Energy:  -136.38745265095048
    Total Energy =                       -136.3874526509504790
  @DF-UKS Final Energy:  -136.38968513680749
    Total Energy =                       -136.3896851368074863
  @DF-UKS Final Energy:  -136.39084559710926
    Total Energy =                       -136.3908455971092621
  @DF-UKS Final Energy:  -136.39144690653390
    Total Energy =                       -136.3914469065339006
  @DF-UKS Final Energy:  -136.39175448922475
    Total Energy =                       -136.3917544892247520
  @DF-UKS Final Energy:  -136.39185321208259
    Total Energy =                       -136.3918532120825944
  @DF-UKS Final Energy:  -136.39189812631011
    Total Energy =                       -136.3918981263101102
  @DF-UKS Final Energy:  -136.39191192757892
    Total Energy =                       -136.3919119275789171
  Basis Set: (CC-PVDZ AUX)
    Blend: CC-PVDZ-JKFIT + DEF2-UNIVERSAL-JKFIT
  Basis Set: CC-PVDZ
    Blend: CC-PVDZ
  Basis Set: (CC-PVDZ AUX)
    Blend: CC-PVDZ-JKFIT + DEF2-UNIVERSAL-JKFIT
  @DF-UKS Final Energy:  -136.39191686996995
    Total Energy =                       -136.3919168699699469
  Basis Set: CC-PVDZ
    Blend: CC-PVDZ
  Basis Set: (CC-PVDZ AUX)
    Blend: CC-PVDZ-JKFIT + DEF2-UNIVERSAL-JKFIT
  Charge       = -1
  Multiplicity = 3
  Basis Set: CC-PVDZ
    Blend: CC-PVDZ
  Basis Set: (CC-PVDZ AUX)
    Blend: CC-PVDZ-JKFIT + DEF2-UNIVERSAL-JKFIT

    Orbital Energies [Eh]
    ---------------------

    Alpha Occupied:

       1A1   -30.888294     2A1    -1.868504     3A1    -1.349396
       4A1    -0.463160     1B2    -0.455890     1B1    -0.455310
       5A1     0.016916     2B1     0.060163

    Alpha Virtual:

       2B2     0.098260     6A1     0.105061     3B1     0.194667
       3B2     0.206676     7A1     0.210292     8A1     0.228311
       1A2     0.363371     9A1     0.367085     4B1     0.372056
       4B2     0.379025    10A1     0.423836     5B2     1.525916
       5B1     1.527146    11A1     1.552637    12A1     2.300410
      13A1     4.807951    14A1     4.810415     6B2     4.810578
       2A2     4.810638     6B1     4.811166

    Beta Occupied:

       1A1   -30.887639     2A1    -1.862458     3A1    -1.348091
       4A1    -0.461967     1B2    -0.455264     1B1    -0.453694

    Beta Virtual:

       5A1     0.091201     2B2     0.124741     6A1     0.126063
       2B1     0.129833     3B2     0.225142     3B1     0.235130
       7A1     0.238758     8A1     0.241667     4B2     0.402750
       4B1     0.414396     9A1     0.418618     1A2     0.419431
      10A1     0.456882     5B2     1.528113     5B1     1.531058
      11A1     1.554256    12A1     2.303045    13A1     4.808750
       6B2     4.811257    14A1     4.811290     2A2     4.811435
       6B1     4.812248

    Final Occupation by Irrep:
             A1    A2    B1    B2
    DOCC [     4,    0,    1,    1 ]
    SOCC [     1,    0,    1,    0 ]
    NA   [     5,    0,    2,    1 ]
    NB   [     4,    0,    1,    1 ]

  @DF-UKS Final Energy:  -136.39191773692636

   => Energetics <=

    Nuclear Repulsion Energy =              6.9551492504584536
    One-Electron Energy =                -207.4580105369613818
    Two-Electron Energy =                  75.7785158484507377
    DFT Exchange-Correlation Energy =     -11.6675722988741715
    Empirical Dispersion Energy =           0.0000000000000000
    VV10 Nonlocal Energy =                  0.0000000000000000
    Total Energy =                       -136.3919177369263593

  UHF NO Occupations:
  HONO-2 :    4 A1 1.9999968
  HONO-1 :    2 B1 1.0000000
  HONO-0 :    5 A1 1.0000000
  LUNO+0 :    6 A1 0.0000032
  LUNO+1 :    3 B1 0.0000005
  LUNO+2 :    2 B2 0.0000004
  LUNO+3 :    7 A1 0.0000004

Computation Completed

Properties will be evaluated at   0.000000,   0.000000,   0.000000 [a0]

Properties computed using the SCF density matrix

 Multipole Moments:

 ------------------------------------------------------------------------------------
     Multipole            Electronic (a.u.)      Nuclear  (a.u.)        Total (a.u.)
 ------------------------------------------------------------------------------------

 L = 1.  Multiply by 2.5417464519 to convert [e a0] to [Debye]
 Dipole X            :          0.0000000            0.0000000            0.0000000
 Dipole Y            :          0.0000000            0.0000000            0.0000000
 Dipole Z            :         -2.1683161           -1.6262181           -3.7945342
 Magnitude           :                                                    3.7945342

 ------------------------------------------------------------------------------------

*** tstop() called on Joses-MacBook-Pro-2.local at Thu Jul 17 09:31:27 2025
Module time:
	user time   =       2.99 seconds =       0.05 minutes
	system time =       2.58 seconds =       0.04 minutes
	total time  =          0 seconds =       0.00 minutes
Total time:
	user time   =      59.03 seconds =       0.98 minutes
	system time =      65.69 seconds =       1.09 minutes
	total time  =         11 seconds =       0.18 minutes

*** tstart() called on Joses-MacBook-Pro-2.local
*** at Thu Jul 17 09:31:27 2025

         ------------------------------------------------------------
                                   SCF GRAD
                          Rob Parrish, Justin Turney,
                       Andy Simmonett, and Alex Sokolov
         ------------------------------------------------------------

  ==> Geometry <==

    Molecular point group: c2v
    Full point group: C_inf_v

    Geometry (in Angstrom), charge = -1, multiplicity = 3:

       Center              X                  Y                   Z               Mass
    ------------   -----------------  -----------------  -----------------  -----------------
         LI           0.000000000000     0.000000000000     1.689593306705     7.016003436600
         NE           0.000000000000     0.000000000000    -0.592933746047    19.992440176200

  Nuclear repulsion =    6.955149250458454

  ==> Basis Set <==

  Basis Set: CC-PVDZ
    Blend: CC-PVDZ
    Number of shells: 12
    Number of basis functions: 28
    Number of Cartesian functions: 30
    Spherical Harmonics?: true
    Max angular momentum: 2

  ==> DFJKGrad: Density-Fitted SCF Gradients <==

    Gradient:                    1
    J tasked:                  Yes
    K tasked:                  Yes
    wK tasked:                  No
    OpenMP threads:              1
    Integrals threads:           1
    Memory [MiB]:              375
    Schwarz Cutoff:          1E-12
    Fitting Condition:       1E-10

   => Auxiliary Basis Set <=

  Basis Set: (CC-PVDZ AUX)
    Blend: CC-PVDZ-JKFIT + DEF2-UNIVERSAL-JKFIT
    Number of shells: 41
    Number of basis functions: 121
    Number of Cartesian functions: 141
    Spherical Harmonics?: true
    Max angular momentum: 3

  ==> DFT Potential <==

   => LibXC <=

    Version 6.2.2
    S. Lehtola, C. Steigemann, M. J.T. Oliveira, and M. A.L. Marques.,  SoftwareX 7, 1â€“5 (2018) (10.1016/j.softx.2017.11.002)

   => Composite Functional: B3LYP <=

    B3LYP Hyb-GGA Exchange-Correlation Functional

    P. J. Stephens, F. J. Devlin, C. F. Chabalowski, and M. J. Frisch.,  J. Phys. Chem. 98, 11623 (1994) (10.1021/j100096a001)

    Deriv               =              1
    GGA                 =           TRUE
    Meta                =          FALSE

    Exchange Hybrid     =           TRUE
    MP2 Hybrid          =          FALSE

   => Exchange Functionals <=

    0.0800   Slater exchange
    0.7200         Becke 88

   => Exact (HF) Exchange <=

    0.2000               HF

   => Correlation Functionals <=

    0.1900   Vosko, Wilk & Nusair (VWN5_RPA)
    0.8100   Lee, Yang & Parr

   => LibXC Density Thresholds  <==

    XC_HYB_GGA_XC_B3LYP:  1.00E-15

   => Molecular Quadrature <=

    Radial Scheme          =       TREUTLER
    Pruning Scheme         =           NONE
    Nuclear Scheme         =       TREUTLER

    Blocking Scheme        =         OCTREE
    BS radius alpha        =              1
    Pruning alpha          =              1
    Radial Points          =             75
    Spherical Points       =            302
    Total Points           =          44311
    Total Blocks           =            419
    Max Points             =            253
    Max Functions          =             28
    Weights Tolerance      =       1.00E-15

  -Total Gradient:
     Atom            X                  Y                   Z
    ------   -----------------  -----------------  -----------------
       1        0.000000000000     0.000000000000    -0.000077714652
       2       -0.000000000000    -0.000000000000    -0.000036643745

*** tstop() called on Joses-MacBook-Pro-2.local at Thu Jul 17 09:31:27 2025
Module time:
	user time   =       0.53 seconds =       0.01 minutes
	system time =       1.08 seconds =       0.02 minutes
	total time  =          0 seconds =       0.00 minutes
Total time:
	user time   =      59.56 seconds =       0.99 minutes
	system time =      66.77 seconds =       1.11 minutes
	total time  =         11 seconds =       0.18 minutes

    			-----------------------------------------

    			 OPTKING 3.0: for geometry optimizations

    			     By R.A. King, Bethel University

    			        with contributions from

    			    A.V. Copan, J. Cayton, A. Heide

    			-----------------------------------------

	                            ===> Fragment 1 <==

	 Z (Atomic Numbers)          Masses                          Geom
	       3.000000             7.016003          0.00000000  0.00000000  3.19286861
	      10.000000            19.992440          0.00000000  0.00000000 -1.12048239

	 - Coordinate -           - BOHR/RAD -       - ANG/DEG -
	 R(1,2)           =         4.313351           2.282527

	        --- Internal Coordinate Step in ANG or DEG, aJ/ANG or AJ/DEG ---
	-------------------------------------------------------------------------------
	           Coordinate      Previous         Force          Change          New
	           ----------      --------        ------          ------        ------
	               R(1,2)       2.28253        0.00017        0.00241       2.28493
	-------------------------------------------------------------------------------

	                                 ==> Convergence Check <==

	Measures of convergence in internal coordinates in au.

	Criteria marked as inactive (o), active & met (*), and active & unmet ( ).

	----------------------------------------------------------------------------------------------
	   Step    Total Energy     Delta E     Max Force     RMS Force      Max Disp      RMS Disp
	----------------------------------------------------------------------------------------------
	  Convergence Criteria     1.00e-06 *    3.00e-04 *             o    1.20e-03 *             o
	----------------------------------------------------------------------------------------------
	    15    -136.39191774   -8.67e-07 *    2.05e-05 *    2.05e-05 o    4.55e-03      4.55e-03 o  ~
	----------------------------------------------------------------------------------------------

Next Geometry in Ang
	Fragment 1 (Ang)

	   Li   0.0000000000   0.0000000000   1.6907961631
	   Ne   0.0000000000   0.0000000000  -0.5941366025

    Final optimized geometry and variables:
    Molecular point group: c2v
    Full point group: C_inf_v

    Geometry (in Angstrom), charge = -1, multiplicity = 3:

    LI           0.000000000000     0.000000000000     1.689593306705
    NE           0.000000000000     0.000000000000    -0.592933746047

    Psi4 stopped on: Thursday, 17 July 2025 09:31AM
    Psi4 wall time for execution: 0:00:12.63

*** Psi4 exiting successfully. Buy a developer a beer!
