                               Psi4 1.9.1 release

  ==> Input File <==

--------------------------------------------------------------------------
molecule {
1 2
O           0.000000           0.000000           0.000000
C           0.000000           0.000000           1.117824
}

set {
basis              cc-pvtz
reference          uks
maxiter            500
DAMPING_PERCENTAGE 1
E_CONVERGENCE      1.0E-8
D_CONVERGENCE      1.0E-8
DIIS_MAX_VECS      400
MBIS_MAXITER       8000
guess              SAP
}

E, wfn = optimize('b3lyp', return_wfn=True)
frequencies('b3lyp', wfn=wfn, return_wfn=True)
properties('b3lyp','MULLIKEN_CHARGES', wfn=wfn)
--------------------------------------------------------------------------

    Molecular point group: c2v
  Charge       = 1
  Multiplicity = 2
  Basis Set: CC-PVTZ
    Blend: CC-PVTZ
  Basis Set: (CC-PVTZ AUX)
    Blend: CC-PVTZ-JKFIT
  @DF-UKS Final Energy:  -112.83711498807281
    Total Energy =                       -112.8371149880728126
 Dipole X            :          0.0000000            0.0000000            0.0000000
 Dipole Y            :          0.0000000            0.0000000            0.0000000
 Dipole Z            :          1.0817177           -0.0023023            1.0794154
 Magnitude           :                                                    1.0794154
    Molecular point group: c2v
  Basis Set: CC-PVTZ
    Blend: CC-PVTZ
  Basis Set: (CC-PVTZ AUX)
    Blend: CC-PVTZ-JKFIT
  Basis Set: CC-PVTZ
    Blend: CC-PVTZ
  Basis Set: (CC-PVTZ AUX)
    Blend: CC-PVTZ-JKFIT
  @DF-UKS Final Energy:  -112.83725561883510
    Total Energy =                       -112.8372556188351012
  Basis Set: CC-PVTZ
    Blend: CC-PVTZ
  Basis Set: (CC-PVTZ AUX)
    Blend: CC-PVTZ-JKFIT
  Basis Set: CC-PVTZ
    Blend: CC-PVTZ
  @DF-UKS Final Energy:  -112.83726001142483
    Total Energy =                       -112.8372600114248314
    Final optimized geometry and variables:
                               Psi4 1.9.1 release
  @DF-UKS Final Energy:  -112.83726001117294
    Total Energy =                       -112.8372600111729440
                               Psi4 1.9.1 release
  @DF-UKS Final Energy:  -112.83725771319121
    Total Energy =                       -112.8372577131912067
                               Psi4 1.9.1 release
  @DF-UKS Final Energy:  -112.83725734146820
    Total Energy =                       -112.8372573414682023
                               Psi4 1.9.1 release
    Blend: CC-PVTZ-JKFIT
  @DF-UKS Final Energy:  -112.83726000864203
    Total Energy =                       -112.8372600086420334
  Basis Set: CC-PVTZ
    Blend: CC-PVTZ
  Basis Set: (CC-PVTZ AUX)
    Blend: CC-PVTZ-JKFIT
                               Psi4 1.9.1 release
  Basis Set: CC-PVTZ
    Blend: CC-PVTZ
  Basis Set: (CC-PVTZ AUX)
    Blend: CC-PVTZ-JKFIT
  @DF-UKS Final Energy:  -112.83726000864256
    Total Energy =                       -112.8372600086425592
    Molecular point group: cs
  Basis Set: CC-PVTZ
    Blend: CC-PVTZ
  Basis Set: (CC-PVTZ AUX)
    Blend: CC-PVTZ-JKFIT

  -Total Gradient:
     Atom            X                  Y                   Z
    ------   -----------------  -----------------  -----------------
       1        0.000000000000     0.000000092931     0.000102082891
       2        0.000000000000    -0.000000088524    -0.000097241306

  Vibration                       6
  Freq [cm^-1]                2291.4690
  Irrep                           A1
  Reduced mass [u]             13.4388
  Force const [mDyne/A]        41.5755

  IR activ [km/mol]            13.1576

  ==> Thermochemistry Components <==

  Entropy, S
    Electronic S                             1.377 [cal/(mol K)]        5.763 [J/(mol K)]       0.00219507 [mEh/K] (multiplicity = 2)
    Translational S                         35.923 [cal/(mol K)]      150.302 [J/(mol K)]       0.05724692 [mEh/K] (mol. weight = 27.9949 [u], P = 101325.00 [Pa])
    Rotational S                            11.214 [cal/(mol K)]       46.917 [J/(mol K)]       0.01786986 [mEh/K] (symmetry no. = 1)
    Vibrational S                            0.000 [cal/(mol K)]        0.002 [J/(mol K)]       0.00000060 [mEh/K]
  Total S                                   48.514 [cal/(mol K)]      202.984 [J/(mol K)]       0.07731245 [mEh/K]
  Correction S                               0.000 [cal/(mol K)]        0.000 [J/(mol K)]       0.00000000 [mEh/K]

  Constant volume heat capacity, Cv
    Electronic Cv                            0.000 [cal/(mol K)]        0.000 [J/(mol K)]       0.00000000 [mEh/K]
    Translational Cv                         2.981 [cal/(mol K)]       12.472 [J/(mol K)]       0.00475022 [mEh/K]
    Rotational Cv                            1.987 [cal/(mol K)]        8.314 [J/(mol K)]       0.00316681 [mEh/K]
    Vibrational Cv                           0.004 [cal/(mol K)]        0.016 [J/(mol K)]       0.00000610 [mEh/K]
  Total Cv                                   4.972 [cal/(mol K)]       20.802 [J/(mol K)]       0.00792313 [mEh/K]
  Correction Cv                              0.000 [cal/(mol K)]        0.000 [J/(mol K)]       0.00000000 [mEh/K]

  Constant pressure heat capacity, Cp
    Electronic Cp                            0.000 [cal/(mol K)]        0.000 [J/(mol K)]       0.00000000 [mEh/K]
    Translational Cp                         4.968 [cal/(mol K)]       20.786 [J/(mol K)]       0.00791703 [mEh/K]
    Rotational Cp                            1.987 [cal/(mol K)]        8.314 [J/(mol K)]       0.00316681 [mEh/K]
    Vibrational Cp                           0.004 [cal/(mol K)]        0.016 [J/(mol K)]       0.00000610 [mEh/K]
  Total Cp                                   6.959 [cal/(mol K)]       29.117 [J/(mol K)]       0.01108994 [mEh/K]
  Correction Cp                              0.000 [cal/(mol K)]        0.000 [J/(mol K)]       0.00000000 [mEh/K]

  ==> Thermochemistry Energy Analysis <==

  Raw electronic energy, E_e
  Total E_e, Electronic energy at well bottom                                          -112.83726001 [Eh]

  Zero-point vibrational energy, ZPVE = Sum_i omega_i / 2,  E_0 = E_e + ZPVE
    Vibrational ZPVE                         3.276 [kcal/mol]       13.706 [kJ/mol]       0.00522035 [Eh]        1145.735 [cm^-1]
  Correction ZPVE to E_e                     3.276 [kcal/mol]       13.706 [kJ/mol]       0.00522035 [Eh]        1145.735 [cm^-1]
  Total E_0, Enthalpy at 0 [K]                                                         -112.83203966 [Eh]
  *** Absolute enthalpy, not an enthalpy of formation ***

  Thermal (internal) energy, E (includes ZPVE and finite-temperature corrections)
    Electronic contrib to E beyond E_e       0.000 [kcal/mol]        0.000 [kJ/mol]       0.00000000 [Eh]
    Translational contrib to E               0.889 [kcal/mol]        3.718 [kJ/mol]       0.00141628 [Eh]
    Rotational contrib to E                  0.592 [kcal/mol]        2.479 [kJ/mol]       0.00094418 [Eh]
    Vibrational contrib to E                 3.276 [kcal/mol]       13.706 [kJ/mol]       0.00522052 [Eh]
  Correction E                               4.757 [kcal/mol]       19.904 [kJ/mol]       0.00758098 [Eh]
  Total E, Thermal (internal) energy at  298.15 [K]                                    -112.82967903 [Eh]

  Enthalpy, H_trans = E_trans + k_B * T = E_trans + P * V
    Electronic contrib to H beyond E_e       0.000 [kcal/mol]        0.000 [kJ/mol]       0.00000000 [Eh]
    Translational contrib to H               1.481 [kcal/mol]        6.197 [kJ/mol]       0.00236046 [Eh]
    Rotational contrib to H                  0.592 [kcal/mol]        2.479 [kJ/mol]       0.00094418 [Eh]
    Vibrational contrib to H                 3.276 [kcal/mol]       13.706 [kJ/mol]       0.00522052 [Eh]
  Correction H                               5.350 [kcal/mol]       22.383 [kJ/mol]       0.00852516 [Eh]
  Total H, Enthalpy at  298.15 [K]                                                     -112.82873485 [Eh]
  *** Absolute enthalpy, not an enthalpy of formation ***

  Gibbs free energy, G = H - T * S
    Electronic contrib to G beyond E_e      -0.411 [kcal/mol]       -1.718 [kJ/mol]      -0.00065446 [Eh]
    Translational contrib to G              -9.229 [kcal/mol]      -38.615 [kJ/mol]      -0.01470771 [Eh]
    Rotational contrib to G                 -2.751 [kcal/mol]      -11.509 [kJ/mol]      -0.00438371 [Eh]
    Vibrational contrib to G                 3.276 [kcal/mol]       13.706 [kJ/mol]       0.00522034 [Eh]
  Correction G                              -9.115 [kcal/mol]      -38.137 [kJ/mol]      -0.01452555 [Eh]
  Total G, Gibbs energy at  298.15 [K]                                                 -112.85178556 [Eh]

    Molecular point group: c2v

    Geometry (in Angstrom), charge = 1, multiplicity = 2:

       Center              X                  Y                   Z               Mass
    ------------   -----------------  -----------------  -----------------  -----------------
         O            0.000000000000     0.000000000000    -0.475796816494    15.994914619570
         C            0.000000000000     0.000000000000     0.634194121341    12.000000000000

  Charge       = 1
  Multiplicity = 2
  Basis Set: CC-PVTZ
    Blend: CC-PVTZ
  Basis Set: (CC-PVTZ AUX)
    Blend: CC-PVTZ-JKFIT

    Irrep   Nso     Nmo     Nalpha   Nbeta   Ndocc  Nsocc

    Orbital Energies [Eh]
    ---------------------

    Alpha Occupied:

       1A1   -19.653718     2A1   -10.795876     3A1    -1.576590
       4A1    -0.968083     1B2    -0.867948     1B1    -0.867948
       5A1    -0.865478

    Alpha Virtual:

       2B2    -0.431087     2B1    -0.431087     6A1    -0.118153
       7A1    -0.021762     3B2    -0.010942     3B1    -0.010942
       8A1     0.203121     9A1     0.268268    10A1     0.278151
       1A2     0.278151     4B2     0.329644     4B1     0.329644
       5B2     0.489659     5B1     0.489659    11A1     0.791936
      12A1     0.945554     2A2     1.158852    13A1     1.158852
       6B2     1.477917     6B1     1.477917    14A1     1.511760
       7B2     1.612015     7B1     1.612015    15A1     2.044308
       8B1     2.218388     8B2     2.218388    16A1     2.412531
       3A2     2.412531    17A1     2.465745     4A2     2.465746
       9B1     2.483852     9B2     2.483852    18A1     2.651090
      10B2     2.836543    10B1     2.836543    19A1     2.940135
      11B1     3.688262    11B2     3.688262    20A1     4.071655
      12B2     4.713187    12B1     4.713187     5A2     5.120431
      21A1     5.120433    22A1     5.719582    23A1     5.850570
       6A2     5.850579    13B2     5.868264    13B1     5.868264
      14B1     6.348068    14B2     6.348068    24A1     6.381946
      25A1     6.645142    26A1    12.049350

    Beta Occupied:

       1A1   -19.654348     2A1   -10.770976     3A1    -1.568641
       4A1    -0.934213     1B2    -0.863738     1B1    -0.863738

    Beta Virtual:

       5A1    -0.648647     2B2    -0.389178     2B1    -0.389178
       6A1    -0.102496     3B2    -0.000199     3B1    -0.000199
       7A1     0.018140     8A1     0.250983     9A1     0.277379
      10A1     0.298723     1A2     0.298723     4B2     0.327102
       4B1     0.327102     5B2     0.526864     5B1     0.526864
      11A1     0.802848    12A1     0.977248     2A2     1.158523
      13A1     1.158523     6B2     1.504704     6B1     1.504704
      14A1     1.568567     7B2     1.623216     7B1     1.623216
      15A1     2.089158     8B1     2.254102     8B2     2.254102
      16A1     2.432205     3A2     2.432205    17A1     2.542783
       4A2     2.542783     9B1     2.584564     9B2     2.584564
      18A1     2.730445    10B2     2.862191    10B1     2.862191
      19A1     3.008393    11B1     3.699585    11B2     3.699585
      20A1     4.097277    12B2     4.703098    12B1     4.703098
       5A2     5.121944    21A1     5.121945    22A1     5.740455
      23A1     5.837781     6A2     5.837790    13B2     5.882239
      13B1     5.882239    14B1     6.356313    14B2     6.356313
      24A1     6.390446    25A1     6.660293    26A1    12.071302

    Final Occupation by Irrep:
             A1    A2    B1    B2
    DOCC [     4,    0,    1,    1 ]
    SOCC [     1,    0,    0,    0 ]
    NA   [     5,    0,    1,    1 ]
    NB   [     4,    0,    1,    1 ]

  @DF-UKS Final Energy:  -112.83726001117294

   => Energetics <=

    Nuclear Repulsion Energy =             22.8835256634719357
    One-Electron Energy =                -193.3139203313535859
    Two-Electron Energy =                  68.5426658620902032
    DFT Exchange-Correlation Energy =     -10.9495312053815059
    Empirical Dispersion Energy =           0.0000000000000000
    VV10 Nonlocal Energy =                  0.0000000000000000
    Total Energy =                       -112.8372600111729440

  UHF NO Occupations:
  HONO-2 :    1 B2 1.9965443
  HONO-1 :    1 B1 1.9965443
  HONO-0 :    5 A1 1.0000000
  LUNO+0 :    2 B2 0.0034557
  LUNO+1 :    2 B1 0.0034557
  LUNO+2 :    6 A1 0.0002566
  LUNO+3 :    7 A1 0.0000205

Computation Completed

Properties will be evaluated at   0.000000,   0.000000,   0.000000 [a0]

Properties computed using the B3LYP density matrix

 Multipole Moments:

 ------------------------------------------------------------------------------------
     Multipole            Electronic (a.u.)      Nuclear  (a.u.)        Total (a.u.)
 ------------------------------------------------------------------------------------

 L = 1.  Multiply by 2.5417464519 to convert [e a0] to [Debye]
 Dipole X            :          0.0000000            0.0000000            0.0000000
 Dipole Y            :          0.0000000            0.0000000            0.0000000
 Dipole Z            :          1.0772472           -0.0022862            1.0749610
 Magnitude           :                                                    1.0749610

 L = 2.  Multiply by 1.3450342976 to convert [e a0^2] to [Debye ang]
 Quadrupole XX       :         -5.9134308            0.0000000           -5.9134308
 Quadrupole XY       :          0.0000000            0.0000000            0.0000000
 Quadrupole XZ       :          0.0000000            0.0000000            0.0000000
 Quadrupole YY       :         -5.9134308            0.0000000           -5.9134308
 Quadrupole YZ       :          0.0000000            0.0000000            0.0000000
 Quadrupole ZZ       :        -19.1135036           15.0851563           -4.0283473
 Traceless XX        :          4.4000243           -5.0283854           -0.6283612
 Traceless YY        :          4.4000243           -5.0283854           -0.6283612
 Traceless ZZ        :         -8.8000485           10.0567708            1.2567223

 ------------------------------------------------------------------------------------
  Mulliken Charges: (a.u.)
   Center  Symbol    Alpha    Beta     Spin     Total
       1     O     3.82636  3.88121 -0.05485  0.29243
       2     C     3.17364  2.11879  1.05485  0.70757

   Total alpha =  7.00000, Total beta =  6.00000, Total charge =  1.00000

*** tstop() called on Mac.lan at Sun Aug 10 18:35:45 2025
Module time:
	user time   =      27.86 seconds =       0.46 minutes
	system time =       1.85 seconds =       0.03 minutes
	total time  =          3 seconds =       0.05 minutes
Total time:
	user time   =     241.62 seconds =       4.03 minutes
	system time =      18.30 seconds =       0.30 minutes
	total time  =         26 seconds =       0.43 minutes

    Psi4 stopped on: Sunday, 10 August 2025 06:35PM
    Psi4 wall time for execution: 0:00:26.64

*** Psi4 exiting successfully. Buy a developer a beer!
