                               Psi4 1.9.1 release

  ==> Input File <==

--------------------------------------------------------------------------
molecule {
1 2
H           0.000000           0.000000           0.000000
H           0.000000           0.000000           1.113771
}

set {
basis              cc-pvtz
reference          uks
maxiter            500
DAMPING_PERCENTAGE 1
E_CONVERGENCE      1.0E-8
D_CONVERGENCE      1.0E-8
DIIS_MAX_VECS      400
MBIS_MAXITER       8000
guess              SAP
}

E, wfn = optimize('b3lyp', return_wfn=True)
frequencies('b3lyp', wfn=wfn, return_wfn=True)
properties('b3lyp','MULLIKEN_CHARGES', wfn=wfn)
--------------------------------------------------------------------------

    Molecular point group: d2h
  Charge       = 1
  Multiplicity = 2
  Basis Set: CC-PVTZ
    Blend: CC-PVTZ
  Basis Set: (CC-PVTZ AUX)
    Blend: CC-PVTZ-JKFIT
  @DF-UKS Final Energy:    -0.61025173254060
    Total Energy =                         -0.6102517325405989
 Dipole X            :          0.0000000            0.0000000            0.0000000
 Dipole Y            :          0.0000000            0.0000000            0.0000000
 Dipole Z            :          0.0000000            0.0000000            0.0000000
 Magnitude           :                                                    0.0000000
    Molecular point group: d2h
  Basis Set: CC-PVTZ
    Blend: CC-PVTZ
  Basis Set: (CC-PVTZ AUX)
    Blend: CC-PVTZ-JKFIT
    Final optimized geometry and variables:
                               Psi4 1.9.1 release
  Basis Set: CC-PVTZ
    Blend: CC-PVTZ
  Basis Set: (CC-PVTZ AUX)
    Blend: CC-PVTZ-JKFIT
  @DF-UKS Final Energy:    -0.61025173254060
    Total Energy =                         -0.6102517325405989
  Basis Set: CC-PVTZ
    Blend: CC-PVTZ
  Basis Set: (CC-PVTZ AUX)
    Blend: CC-PVTZ-JKFIT
                               Psi4 1.9.1 release
  Basis Set: CC-PVTZ
    Blend: CC-PVTZ
  @DF-UKS Final Energy:    -0.61025037526340
    Total Energy =                         -0.6102503752633972
                               Psi4 1.9.1 release
  @DF-UKS Final Energy:    -0.61024928517147
    Total Energy =                         -0.6102492851714707
                               Psi4 1.9.1 release
    Blend: CC-PVTZ-JKFIT
  @DF-UKS Final Energy:    -0.61025173342789
    Total Energy =                         -0.6102517334278905
  Basis Set: CC-PVTZ
    Blend: CC-PVTZ
  Basis Set: (CC-PVTZ AUX)
    Blend: CC-PVTZ-JKFIT
                               Psi4 1.9.1 release
  Basis Set: CC-PVTZ
    Blend: CC-PVTZ
  Basis Set: (CC-PVTZ AUX)
    Blend: CC-PVTZ-JKFIT
  @DF-UKS Final Energy:    -0.61025173342789
    Total Energy =                         -0.6102517334278861
    Molecular point group: c2h
  Basis Set: CC-PVTZ
    Blend: CC-PVTZ
  Basis Set: (CC-PVTZ AUX)
    Blend: CC-PVTZ-JKFIT

  -Total Gradient:
     Atom            X                  Y                   Z
    ------   -----------------  -----------------  -----------------
       1        0.000000000000     0.000000250350     0.000074808221
       2        0.000000000000    -0.000000250350    -0.000074808221

  Vibration                       6
  Freq [cm^-1]                2005.3818
  Irrep                           Ag
  Reduced mass [u]              1.0078
  Force const [mDyne/A]         2.3880

  IR activ [km/mol]             0.0000

  ==> Thermochemistry Components <==

  Entropy, S
    Electronic S                             1.377 [cal/(mol K)]        5.763 [J/(mol K)]       0.00219507 [mEh/K] (multiplicity = 2)
    Translational S                         28.080 [cal/(mol K)]      117.488 [J/(mol K)]       0.04474872 [mEh/K] (mol. weight = 2.0157 [u], P = 101325.00 [Pa])
    Rotational S                             4.662 [cal/(mol K)]       19.506 [J/(mol K)]       0.00742935 [mEh/K] (symmetry no. = 2)
    Vibrational S                            0.001 [cal/(mol K)]        0.006 [J/(mol K)]       0.00000212 [mEh/K]
  Total S                                   34.121 [cal/(mol K)]      142.762 [J/(mol K)]       0.05437525 [mEh/K]
  Correction S                               0.000 [cal/(mol K)]        0.000 [J/(mol K)]       0.00000000 [mEh/K]

  Constant volume heat capacity, Cv
    Electronic Cv                            0.000 [cal/(mol K)]        0.000 [J/(mol K)]       0.00000000 [mEh/K]
    Translational Cv                         2.981 [cal/(mol K)]       12.472 [J/(mol K)]       0.00475022 [mEh/K]
    Rotational Cv                            1.987 [cal/(mol K)]        8.314 [J/(mol K)]       0.00316681 [mEh/K]
    Vibrational Cv                           0.012 [cal/(mol K)]        0.049 [J/(mol K)]       0.00001859 [mEh/K]
  Total Cv                                   4.980 [cal/(mol K)]       20.835 [J/(mol K)]       0.00793562 [mEh/K]
  Correction Cv                              0.000 [cal/(mol K)]        0.000 [J/(mol K)]       0.00000000 [mEh/K]

  Constant pressure heat capacity, Cp
    Electronic Cp                            0.000 [cal/(mol K)]        0.000 [J/(mol K)]       0.00000000 [mEh/K]
    Translational Cp                         4.968 [cal/(mol K)]       20.786 [J/(mol K)]       0.00791703 [mEh/K]
    Rotational Cp                            1.987 [cal/(mol K)]        8.314 [J/(mol K)]       0.00316681 [mEh/K]
    Vibrational Cp                           0.012 [cal/(mol K)]        0.049 [J/(mol K)]       0.00001859 [mEh/K]
  Total Cp                                   6.967 [cal/(mol K)]       29.149 [J/(mol K)]       0.01110243 [mEh/K]
  Correction Cp                              0.000 [cal/(mol K)]        0.000 [J/(mol K)]       0.00000000 [mEh/K]

  ==> Thermochemistry Energy Analysis <==

  Raw electronic energy, E_e
  Total E_e, Electronic energy at well bottom                                            -0.61025173 [Eh]

  Zero-point vibrational energy, ZPVE = Sum_i omega_i / 2,  E_0 = E_e + ZPVE
    Vibrational ZPVE                         2.867 [kcal/mol]       11.995 [kJ/mol]       0.00456860 [Eh]        1002.691 [cm^-1]
  Correction ZPVE to E_e                     2.867 [kcal/mol]       11.995 [kJ/mol]       0.00456860 [Eh]        1002.691 [cm^-1]
  Total E_0, Enthalpy at 0 [K]                                                           -0.60568314 [Eh]
  *** Absolute enthalpy, not an enthalpy of formation ***

  Thermal (internal) energy, E (includes ZPVE and finite-temperature corrections)
    Electronic contrib to E beyond E_e       0.000 [kcal/mol]        0.000 [kJ/mol]       0.00000000 [Eh]
    Translational contrib to E               0.889 [kcal/mol]        3.718 [kJ/mol]       0.00141628 [Eh]
    Rotational contrib to E                  0.592 [kcal/mol]        2.479 [kJ/mol]       0.00094418 [Eh]
    Vibrational contrib to E                 2.867 [kcal/mol]       11.996 [kJ/mol]       0.00456917 [Eh]
  Correction E                               4.348 [kcal/mol]       18.194 [kJ/mol]       0.00692963 [Eh]
  Total E, Thermal (internal) energy at  298.15 [K]                                      -0.60332210 [Eh]

  Enthalpy, H_trans = E_trans + k_B * T = E_trans + P * V
    Electronic contrib to H beyond E_e       0.000 [kcal/mol]        0.000 [kJ/mol]       0.00000000 [Eh]
    Translational contrib to H               1.481 [kcal/mol]        6.197 [kJ/mol]       0.00236046 [Eh]
    Rotational contrib to H                  0.592 [kcal/mol]        2.479 [kJ/mol]       0.00094418 [Eh]
    Vibrational contrib to H                 2.867 [kcal/mol]       11.996 [kJ/mol]       0.00456917 [Eh]
  Correction H                               4.941 [kcal/mol]       20.673 [kJ/mol]       0.00787381 [Eh]
  Total H, Enthalpy at  298.15 [K]                                                       -0.60237792 [Eh]
  *** Absolute enthalpy, not an enthalpy of formation ***

  Gibbs free energy, G = H - T * S
    Electronic contrib to G beyond E_e      -0.411 [kcal/mol]       -1.718 [kJ/mol]      -0.00065446 [Eh]
    Translational contrib to G              -6.891 [kcal/mol]      -28.832 [kJ/mol]      -0.01098137 [Eh]
    Rotational contrib to G                 -0.797 [kcal/mol]       -3.337 [kJ/mol]      -0.00127088 [Eh]
    Vibrational contrib to G                 2.867 [kcal/mol]       11.995 [kJ/mol]       0.00456854 [Eh]
  Correction G                              -5.232 [kcal/mol]      -21.892 [kJ/mol]      -0.00833817 [Eh]
  Total G, Gibbs energy at  298.15 [K]                                                   -0.61858990 [Eh]

    Molecular point group: d2h

    Geometry (in Angstrom), charge = 1, multiplicity = 2:

       Center              X                  Y                   Z               Mass
    ------------   -----------------  -----------------  -----------------  -----------------
         H            0.000000000000     0.000000000000    -0.556885500000     1.007825032230
         H            0.000000000000     0.000000000000     0.556885500000     1.007825032230

  Charge       = 1
  Multiplicity = 2
  Basis Set: CC-PVTZ
    Blend: CC-PVTZ
  Basis Set: (CC-PVTZ AUX)
    Blend: CC-PVTZ-JKFIT

    Irrep   Nso     Nmo     Nalpha   Nbeta   Ndocc  Nsocc

    Orbital Energies [Eh]
    ---------------------

    Alpha Occupied:

       1Ag    -0.898810

    Alpha Virtual:

       1B1u   -0.438191     2Ag    -0.087322     2B1u    0.031689
       1B3u    0.062973     1B2u    0.062973     3Ag     0.361680
       1B2g    0.454542     1B3g    0.454542     3B1u    0.885042
       4Ag     1.724974     4B1u    1.870038     2B2u    2.343028
       2B3u    2.343028     5Ag     2.443898     6Ag     2.480867
       1B1g    2.480867     5B1u    2.961132     1Au     2.961133
       3B2u    3.079035     3B3u    3.079035     2B3g    3.159169
       2B2g    3.159169     6B1u    3.290180     3B2g    3.848825
       3B3g    3.848825     7Ag     3.941572     7B1u    5.121080

    Beta Occupied:

    Beta Virtual:

       1Ag    -0.553485     1B1u   -0.248925     2Ag     0.003882
       2B1u    0.149046     1B2u    0.203508     1B3u    0.203508
       3Ag     0.499901     1B2g    0.569359     1B3g    0.569359
       3B1u    1.002831     4Ag     2.020179     4B1u    2.160439
       2B2u    2.555979     2B3u    2.555979     5Ag     2.668642
       1B1g    2.668642     6Ag     2.718656     5B1u    3.145620
       1Au     3.145620     3B3u    3.323471     3B2u    3.323471
       2B2g    3.411176     2B3g    3.411176     6B1u    3.508990
       3B2g    4.045716     3B3g    4.045716     7Ag     4.166834
       7B1u    5.370276

    Final Occupation by Irrep:
             Ag   B1g   B2g   B3g    Au   B1u   B2u   B3u
    DOCC [     0,    0,    0,    0,    0,    0,    0,    0 ]
    SOCC [     1,    0,    0,    0,    0,    0,    0,    0 ]
    NA   [     1,    0,    0,    0,    0,    0,    0,    0 ]
    NB   [     0,    0,    0,    0,    0,    0,    0,    0 ]

  @DF-UKS Final Energy:    -0.61025173254060

   => Energetics <=

    Nuclear Repulsion Energy =              0.4751220948202099
    One-Electron Energy =                  -1.0758064214296983
    Two-Electron Energy =                   0.2582268491410172
    DFT Exchange-Correlation Energy =      -0.2677942550721278
    Empirical Dispersion Energy =           0.0000000000000000
    VV10 Nonlocal Energy =                  0.0000000000000000
    Total Energy =                         -0.6102517325405989

  UHF NO Occupations:
  HONO-0 :    1 Ag 1.0000000
  LUNO+0 :    2 Ag 0.0000000
  LUNO+1 :    3 Ag 0.0000000
  LUNO+2 :    4 Ag 0.0000000
  LUNO+3 :    5 Ag 0.0000000

Computation Completed

Properties will be evaluated at   0.000000,   0.000000,   0.000000 [a0]

Properties computed using the B3LYP density matrix

 Multipole Moments:

 ------------------------------------------------------------------------------------
     Multipole            Electronic (a.u.)      Nuclear  (a.u.)        Total (a.u.)
 ------------------------------------------------------------------------------------

 L = 1.  Multiply by 2.5417464519 to convert [e a0] to [Debye]
 Dipole X            :          0.0000000            0.0000000            0.0000000
 Dipole Y            :          0.0000000            0.0000000            0.0000000
 Dipole Z            :          0.0000000            0.0000000            0.0000000
 Magnitude           :                                                    0.0000000

 L = 2.  Multiply by 1.3450342976 to convert [e a0^2] to [Debye ang]
 Quadrupole XX       :         -0.6457546            0.0000000           -0.6457546
 Quadrupole XY       :          0.0000000            0.0000000            0.0000000
 Quadrupole XZ       :          0.0000000            0.0000000            0.0000000
 Quadrupole YY       :         -0.6457546            0.0000000           -0.6457546
 Quadrupole YZ       :          0.0000000            0.0000000            0.0000000
 Quadrupole ZZ       :         -1.2526537            2.2149277            0.9622739
 Traceless XX        :          0.2022997           -0.7383092           -0.5360095
 Traceless YY        :          0.2022997           -0.7383092           -0.5360095
 Traceless ZZ        :         -0.4045994            1.4766185            1.0720190

 ------------------------------------------------------------------------------------
  Mulliken Charges: (a.u.)
   Center  Symbol    Alpha    Beta     Spin     Total
       1     H     0.50000  0.00000  0.50000  0.50000
       2     H     0.50000  0.00000  0.50000  0.50000

   Total alpha =  1.00000, Total beta =  0.00000, Total charge =  1.00000

*** tstop() called on Mac.lan at Sun Aug 10 18:11:04 2025
Module time:
	user time   =       0.78 seconds =       0.01 minutes
	system time =       2.71 seconds =       0.05 minutes
	total time  =          0 seconds =       0.00 minutes
Total time:
	user time   =       8.90 seconds =       0.15 minutes
	system time =      25.48 seconds =       0.42 minutes
	total time  =          4 seconds =       0.07 minutes

    Psi4 stopped on: Sunday, 10 August 2025 06:11PM
    Psi4 wall time for execution: 0:00:04.94

*** Psi4 exiting successfully. Buy a developer a beer!
