                               Psi4 1.9.1 release

  ==> Input File <==

--------------------------------------------------------------------------
molecule {
1 2
O           0.000000           0.000000           0.000000
O           0.000000           0.000000           1.110983
}

set {
basis              cc-pvtz
reference          uks
maxiter            500
DAMPING_PERCENTAGE 1
E_CONVERGENCE      1.0E-8
D_CONVERGENCE      1.0E-8
DIIS_MAX_VECS      400
MBIS_MAXITER       8000
guess              SAP
}

E, wfn = optimize('b3lyp', return_wfn=True)
frequencies('b3lyp', wfn=wfn, return_wfn=True)
properties('b3lyp','MULLIKEN_CHARGES', wfn=wfn)
--------------------------------------------------------------------------

    Molecular point group: d2h
  Charge       = 1
  Multiplicity = 2
  Basis Set: CC-PVTZ
    Blend: CC-PVTZ
  Basis Set: (CC-PVTZ AUX)
    Blend: CC-PVTZ-JKFIT
  @DF-UKS Final Energy:  -149.92238514791447
    Total Energy =                       -149.9223851479144400
 Dipole X            :          0.0000000            0.0000000            0.0000000
 Dipole Y            :          0.0000000            0.0000000            0.0000000
 Dipole Z            :          0.0000000            0.0000000            0.0000000
 Magnitude           :                                                    0.0000000
    Molecular point group: d2h
  Basis Set: CC-PVTZ
    Blend: CC-PVTZ
  Basis Set: (CC-PVTZ AUX)
    Blend: CC-PVTZ-JKFIT
  Basis Set: CC-PVTZ
    Blend: CC-PVTZ
  Basis Set: (CC-PVTZ AUX)
    Blend: CC-PVTZ-JKFIT
  @DF-UKS Final Energy:  -149.92243063426639
    Total Energy =                       -149.9224306342663908
  Basis Set: CC-PVTZ
    Blend: CC-PVTZ
  Basis Set: (CC-PVTZ AUX)
    Blend: CC-PVTZ-JKFIT
  Basis Set: CC-PVTZ
    Blend: CC-PVTZ
  @DF-UKS Final Energy:  -149.92243365793777
    Total Energy =                       -149.9224336579377734
    Final optimized geometry and variables:
                               Psi4 1.9.1 release
  @DF-UKS Final Energy:  -149.92243365800002
    Total Energy =                       -149.9224336580000170
                               Psi4 1.9.1 release
  @DF-UKS Final Energy:  -149.92243175668261
    Total Energy =                       -149.9224317566826130
                               Psi4 1.9.1 release
  @DF-UKS Final Energy:  -149.92243158316307
    Total Energy =                       -149.9224315831630747
                               Psi4 1.9.1 release
    Blend: CC-PVTZ-JKFIT
  @DF-UKS Final Energy:  -149.92243365802514
    Total Energy =                       -149.9224336580251418
  Basis Set: CC-PVTZ
    Blend: CC-PVTZ
  Basis Set: (CC-PVTZ AUX)
    Blend: CC-PVTZ-JKFIT
                               Psi4 1.9.1 release
  Basis Set: CC-PVTZ
    Blend: CC-PVTZ
  Basis Set: (CC-PVTZ AUX)
    Blend: CC-PVTZ-JKFIT
  @DF-UKS Final Energy:  -149.92243365802435
    Total Energy =                       -149.9224336580243460
    Molecular point group: c2h
  Basis Set: CC-PVTZ
    Blend: CC-PVTZ
  Basis Set: (CC-PVTZ AUX)
    Blend: CC-PVTZ-JKFIT

  -Total Gradient:
     Atom            X                  Y                   Z
    ------   -----------------  -----------------  -----------------
       1        0.000000000000     0.000000042513     0.000050269713
       2        0.000000000000    -0.000000042513    -0.000050269713

  Vibration                       6
  Freq [cm^-1]                2050.0673
  Irrep                           Ag
  Reduced mass [u]             15.9949
  Force const [mDyne/A]        39.6067

  IR activ [km/mol]             0.0000

  ==> Thermochemistry Components <==

  Entropy, S
    Electronic S                             1.377 [cal/(mol K)]        5.763 [J/(mol K)]       0.00219507 [mEh/K] (multiplicity = 2)
    Translational S                         36.321 [cal/(mol K)]      151.965 [J/(mol K)]       0.05788058 [mEh/K] (mol. weight = 31.9898 [u], P = 101325.00 [Pa])
    Rotational S                            10.129 [cal/(mol K)]       42.379 [J/(mol K)]       0.01614137 [mEh/K] (symmetry no. = 2)
    Vibrational S                            0.001 [cal/(mol K)]        0.005 [J/(mol K)]       0.00000174 [mEh/K]
  Total S                                   47.828 [cal/(mol K)]      200.112 [J/(mol K)]       0.07621876 [mEh/K]
  Correction S                               0.000 [cal/(mol K)]        0.000 [J/(mol K)]       0.00000000 [mEh/K]

  Constant volume heat capacity, Cv
    Electronic Cv                            0.000 [cal/(mol K)]        0.000 [J/(mol K)]       0.00000000 [mEh/K]
    Translational Cv                         2.981 [cal/(mol K)]       12.472 [J/(mol K)]       0.00475022 [mEh/K]
    Rotational Cv                            1.987 [cal/(mol K)]        8.314 [J/(mol K)]       0.00316681 [mEh/K]
    Vibrational Cv                           0.010 [cal/(mol K)]        0.041 [J/(mol K)]       0.00001566 [mEh/K]
  Total Cv                                   4.978 [cal/(mol K)]       20.827 [J/(mol K)]       0.00793269 [mEh/K]
  Correction Cv                              0.000 [cal/(mol K)]        0.000 [J/(mol K)]       0.00000000 [mEh/K]

  Constant pressure heat capacity, Cp
    Electronic Cp                            0.000 [cal/(mol K)]        0.000 [J/(mol K)]       0.00000000 [mEh/K]
    Translational Cp                         4.968 [cal/(mol K)]       20.786 [J/(mol K)]       0.00791703 [mEh/K]
    Rotational Cp                            1.987 [cal/(mol K)]        8.314 [J/(mol K)]       0.00316681 [mEh/K]
    Vibrational Cp                           0.010 [cal/(mol K)]        0.041 [J/(mol K)]       0.00001566 [mEh/K]
  Total Cp                                   6.965 [cal/(mol K)]       29.142 [J/(mol K)]       0.01109950 [mEh/K]
  Correction Cp                              0.000 [cal/(mol K)]        0.000 [J/(mol K)]       0.00000000 [mEh/K]

  ==> Thermochemistry Energy Analysis <==

  Raw electronic energy, E_e
  Total E_e, Electronic energy at well bottom                                          -149.92243366 [Eh]

  Zero-point vibrational energy, ZPVE = Sum_i omega_i / 2,  E_0 = E_e + ZPVE
    Vibrational ZPVE                         2.931 [kcal/mol]       12.262 [kJ/mol]       0.00467040 [Eh]        1025.034 [cm^-1]
  Correction ZPVE to E_e                     2.931 [kcal/mol]       12.262 [kJ/mol]       0.00467040 [Eh]        1025.034 [cm^-1]
  Total E_0, Enthalpy at 0 [K]                                                         -149.91776326 [Eh]
  *** Absolute enthalpy, not an enthalpy of formation ***

  Thermal (internal) energy, E (includes ZPVE and finite-temperature corrections)
    Electronic contrib to E beyond E_e       0.000 [kcal/mol]        0.000 [kJ/mol]       0.00000000 [Eh]
    Translational contrib to E               0.889 [kcal/mol]        3.718 [kJ/mol]       0.00141628 [Eh]
    Rotational contrib to E                  0.592 [kcal/mol]        2.479 [kJ/mol]       0.00094418 [Eh]
    Vibrational contrib to E                 2.931 [kcal/mol]       12.263 [kJ/mol]       0.00467087 [Eh]
  Correction E                               4.412 [kcal/mol]       18.461 [kJ/mol]       0.00703133 [Eh]
  Total E, Thermal (internal) energy at  298.15 [K]                                    -149.91540233 [Eh]

  Enthalpy, H_trans = E_trans + k_B * T = E_trans + P * V
    Electronic contrib to H beyond E_e       0.000 [kcal/mol]        0.000 [kJ/mol]       0.00000000 [Eh]
    Translational contrib to H               1.481 [kcal/mol]        6.197 [kJ/mol]       0.00236046 [Eh]
    Rotational contrib to H                  0.592 [kcal/mol]        2.479 [kJ/mol]       0.00094418 [Eh]
    Vibrational contrib to H                 2.931 [kcal/mol]       12.263 [kJ/mol]       0.00467087 [Eh]
  Correction H                               5.005 [kcal/mol]       20.940 [kJ/mol]       0.00797551 [Eh]
  Total H, Enthalpy at  298.15 [K]                                                     -149.91445814 [Eh]
  *** Absolute enthalpy, not an enthalpy of formation ***

  Gibbs free energy, G = H - T * S
    Electronic contrib to G beyond E_e      -0.411 [kcal/mol]       -1.718 [kJ/mol]      -0.00065446 [Eh]
    Translational contrib to G              -9.348 [kcal/mol]      -39.111 [kJ/mol]      -0.01489663 [Eh]
    Rotational contrib to G                 -2.427 [kcal/mol]      -10.156 [kJ/mol]      -0.00386836 [Eh]
    Vibrational contrib to G                 2.931 [kcal/mol]       12.262 [kJ/mol]       0.00467035 [Eh]
  Correction G                              -9.255 [kcal/mol]      -38.724 [kJ/mol]      -0.01474911 [Eh]
  Total G, Gibbs energy at  298.15 [K]                                                 -149.93718277 [Eh]

    Molecular point group: d2h

    Geometry (in Angstrom), charge = 1, multiplicity = 2:

       Center              X                  Y                   Z               Mass
    ------------   -----------------  -----------------  -----------------  -----------------
         O            0.000000000000     0.000000000000    -0.553156727033    15.994914619570
         O            0.000000000000     0.000000000000     0.553156727033    15.994914619570

  Charge       = 1
  Multiplicity = 2
  Basis Set: CC-PVTZ
    Blend: CC-PVTZ
  Basis Set: (CC-PVTZ AUX)
    Blend: CC-PVTZ-JKFIT

    Irrep   Nso     Nmo     Nalpha   Nbeta   Ndocc  Nsocc

    Orbital Energies [Eh]
    ---------------------

    Alpha Occupied:

       1Ag   -19.818335     1B1u  -19.817778     2Ag    -1.876721
       2B1u   -1.251446     1B3u   -1.066842     1B2u   -1.030030
       3Ag    -1.022030     1B2g   -0.735239

    Alpha Virtual:

       1B3g   -0.607807     3B1u   -0.104156     2B3u    0.138381
       2B2u    0.140118     4B1u    0.177153     4Ag     0.204521
       5Ag     0.263168     2B2g    0.286908     2B3g    0.295025
       1B1g    0.759130     6Ag     0.760405     5B1u    0.832121
       3B2u    0.922381     3B3u    0.923294     1Au     1.237336
       6B1u    1.239030     7Ag     1.763006     7B1u    1.770362
       3B2g    1.814015     3B3g    1.816528     4B3u    2.942597
       4B2u    2.959949     8Ag     3.161090     4B2g    3.278492
       4B3g    3.291747     2B1g    4.054416     9Ag     4.055682
       8B1u    4.198791     5B2u    4.205983     5B3u    4.212101
       6B3u    4.362159     6B2u    4.362449    10Ag     4.565284
       5B2g    4.734900     5B3g    4.735203     9B1u    5.188879
       2Au     5.424599    10B1u    5.427115     3B1g    5.517299
      11Ag     5.521449     3Au     5.782999    11B1u    5.786365
       6B2g    5.836895     6B3g    5.846435     7B3u    6.041917
       7B2u    6.046792    12B1u    6.497276    12Ag     6.617231
       7B3g    7.082764     7B2g    7.086075    13Ag     7.135287
      13B1u   14.383723

    Beta Occupied:

       1Ag   -19.801774     1B1u  -19.801123     2Ag    -1.849917
       2B1u   -1.204826     1B2u   -1.016304     3Ag    -0.999227
       1B3u   -0.971184

    Beta Virtual:

       1B3g   -0.589780     1B2g   -0.540806     3B1u   -0.082692
       2B2u    0.144060     2B3u    0.163877     4B1u    0.186530
       4Ag     0.206665     5Ag     0.275712     2B3g    0.299989
       2B2g    0.318751     1B1g    0.780605     6Ag     0.780762
       5B1u    0.847252     3B2u    0.924769     3B3u    0.954088
       1Au     1.270153     6B1u    1.270161     7Ag     1.778275
       7B1u    1.781319     3B3g    1.820775     3B2g    1.847008
       4B2u    2.971478     4B3u    3.010977     8Ag     3.172422
       4B3g    3.304015     4B2g    3.345714     2B1g    4.074413
       9Ag     4.074442     5B2u    4.209363     8B1u    4.218290
       5B3u    4.241046     6B2u    4.398867     6B3u    4.398981
      10Ag     4.581449     5B3g    4.774569     5B2g    4.774589
       9B1u    5.208811     2Au     5.461632    10B1u    5.461834
      11Ag     5.577376     3B1g    5.577420     3Au     5.833070
      11B1u    5.833714     6B3g    5.852991     6B2g    5.890796
       7B2u    6.052917     7B3u    6.092161    12B1u    6.514620
      12Ag     6.649059     7B3g    7.087119     7B2g    7.120898
      13Ag     7.147899    13B1u   14.407129

    Final Occupation by Irrep:
             Ag   B1g   B2g   B3g    Au   B1u   B2u   B3u
    DOCC [     3,    0,    0,    0,    0,    2,    1,    1 ]
    SOCC [     0,    0,    1,    0,    0,    0,    0,    0 ]
    NA   [     3,    0,    1,    0,    0,    2,    1,    1 ]
    NB   [     3,    0,    0,    0,    0,    2,    1,    1 ]

  @DF-UKS Final Energy:  -149.92243365800002

   => Energetics <=

    Nuclear Repulsion Energy =             30.6127900355759586
    One-Electron Energy =                -259.1504336879489188
    Two-Electron Energy =                  92.0577738217161254
    DFT Exchange-Correlation Energy =     -13.4425638273431698
    Empirical Dispersion Energy =           0.0000000000000000
    VV10 Nonlocal Energy =                  0.0000000000000000
    Total Energy =                       -149.9224336580000170

  UHF NO Occupations:
  HONO-2 :    2B1u 1.9997210
  HONO-1 :    1B3u 1.9991719
  HONO-0 :    1B2g 1.0000000
  LUNO+0 :    2B3u 0.0008281
  LUNO+1 :    3B1u 0.0002790
  LUNO+2 :    4 Ag 0.0001431
  LUNO+3 :    2B2u 0.0000300

Computation Completed

Properties will be evaluated at   0.000000,   0.000000,   0.000000 [a0]

Properties computed using the B3LYP density matrix

 Multipole Moments:

 ------------------------------------------------------------------------------------
     Multipole            Electronic (a.u.)      Nuclear  (a.u.)        Total (a.u.)
 ------------------------------------------------------------------------------------

 L = 1.  Multiply by 2.5417464519 to convert [e a0] to [Debye]
 Dipole X            :          0.0000000            0.0000000            0.0000000
 Dipole Y            :          0.0000000            0.0000000            0.0000000
 Dipole Z            :          0.0000000            0.0000000            0.0000000
 Magnitude           :                                                    0.0000000

 L = 2.  Multiply by 1.3450342976 to convert [e a0^2] to [Debye ang]
 Quadrupole XX       :         -6.1373308            0.0000000           -6.1373308
 Quadrupole XY       :          0.0000000            0.0000000            0.0000000
 Quadrupole XZ       :          0.0000000            0.0000000            0.0000000
 Quadrupole YY       :         -5.5901851            0.0000000           -5.5901851
 Quadrupole YZ       :          0.0000000            0.0000000            0.0000000
 Quadrupole ZZ       :        -22.5156199           17.4829258           -5.0326942
 Traceless XX        :          5.2770478           -5.8276419           -0.5505941
 Traceless YY        :          5.8241935           -5.8276419           -0.0034484
 Traceless ZZ        :        -11.1012413           11.6552838            0.5540425

 ------------------------------------------------------------------------------------
  Mulliken Charges: (a.u.)
   Center  Symbol    Alpha    Beta     Spin     Total
       1     O     4.00000  3.50000  0.50000  0.50000
       2     O     4.00000  3.50000  0.50000  0.50000

   Total alpha =  8.00000, Total beta =  7.00000, Total charge =  1.00000

*** tstop() called on Mac.lan at Sun Aug 10 18:12:17 2025
Module time:
	user time   =      12.69 seconds =       0.21 minutes
	system time =       1.32 seconds =       0.02 minutes
	total time  =          1 seconds =       0.02 minutes
Total time:
	user time   =     150.11 seconds =       2.50 minutes
	system time =      14.16 seconds =       0.24 minutes
	total time  =         15 seconds =       0.25 minutes

    Psi4 stopped on: Sunday, 10 August 2025 06:12PM
    Psi4 wall time for execution: 0:00:16.36

*** Psi4 exiting successfully. Buy a developer a beer!
