                               Psi4 1.9.1 release

  ==> Input File <==

--------------------------------------------------------------------------
molecule {
1 2
N           0.000000           0.000000           0.000000
N           0.000000           0.000000           1.116260
}

set {
basis              cc-pvtz
reference          uks
maxiter            500
DAMPING_PERCENTAGE 1
E_CONVERGENCE      1.0E-8
D_CONVERGENCE      1.0E-8
DIIS_MAX_VECS      400
MBIS_MAXITER       8000
guess              SAP
}

E, wfn = optimize('b3lyp', return_wfn=True)
frequencies('b3lyp', wfn=wfn, return_wfn=True)
properties('b3lyp','MULLIKEN_CHARGES', wfn=wfn)
--------------------------------------------------------------------------

    Molecular point group: d2h
  Charge       = 1
  Multiplicity = 2
  Basis Set: CC-PVTZ
    Blend: CC-PVTZ
  Basis Set: (CC-PVTZ AUX)
    Blend: CC-PVTZ-JKFIT
  @DF-UKS Final Energy:  -108.98778251657839
    Total Energy =                       -108.9877825165783918
 Dipole X            :          0.0000000            0.0000000            0.0000000
 Dipole Y            :          0.0000000            0.0000000            0.0000000
 Dipole Z            :          0.0000000           -0.0000000           -0.0000000
 Magnitude           :                                                    0.0000000
    Molecular point group: d2h
  Basis Set: CC-PVTZ
    Blend: CC-PVTZ
  Basis Set: (CC-PVTZ AUX)
    Blend: CC-PVTZ-JKFIT
  Basis Set: CC-PVTZ
    Blend: CC-PVTZ
  Basis Set: (CC-PVTZ AUX)
    Blend: CC-PVTZ-JKFIT
  @DF-UKS Final Energy:  -108.98810139172740
    Total Energy =                       -108.9881013917273975
  Basis Set: CC-PVTZ
    Blend: CC-PVTZ
  Basis Set: (CC-PVTZ AUX)
    Blend: CC-PVTZ-JKFIT
  Basis Set: CC-PVTZ
    Blend: CC-PVTZ
  @DF-UKS Final Energy:  -108.98810832836291
    Total Energy =                       -108.9881083283629124
    Final optimized geometry and variables:
                               Psi4 1.9.1 release
  @DF-UKS Final Energy:  -108.98810833027399
    Total Energy =                       -108.9881083302739881
                               Psi4 1.9.1 release
  @DF-UKS Final Energy:  -108.98810612624378
    Total Energy =                       -108.9881061262437782
                               Psi4 1.9.1 release
  @DF-UKS Final Energy:  -108.98810538946009
    Total Energy =                       -108.9881053894600882
                               Psi4 1.9.1 release
    Blend: CC-PVTZ-JKFIT
  @DF-UKS Final Energy:  -108.98810833043680
    Total Energy =                       -108.9881083304368019
  Basis Set: CC-PVTZ
    Blend: CC-PVTZ
  Basis Set: (CC-PVTZ AUX)
    Blend: CC-PVTZ-JKFIT
                               Psi4 1.9.1 release
  Basis Set: CC-PVTZ
    Blend: CC-PVTZ
  Basis Set: (CC-PVTZ AUX)
    Blend: CC-PVTZ-JKFIT
  @DF-UKS Final Energy:  -108.98810833043409
    Total Energy =                       -108.9881083304340876
    Molecular point group: c2h
  Basis Set: CC-PVTZ
    Blend: CC-PVTZ
  Basis Set: (CC-PVTZ AUX)
    Blend: CC-PVTZ-JKFIT

  -Total Gradient:
     Atom            X                  Y                   Z
    ------   -----------------  -----------------  -----------------
       1        0.000000000000     0.000000173955     0.000192191794
       2        0.000000000000    -0.000000173955    -0.000192191794

  Vibration                       6
  Freq [cm^-1]                2331.9423
  Irrep                           Ag
  Reduced mass [u]             14.0031
  Force const [mDyne/A]        44.8652

  IR activ [km/mol]             0.0000

  ==> Thermochemistry Components <==

  Entropy, S
    Electronic S                             1.377 [cal/(mol K)]        5.763 [J/(mol K)]       0.00219507 [mEh/K] (multiplicity = 2)
    Translational S                         35.924 [cal/(mol K)]      150.307 [J/(mol K)]       0.05724883 [mEh/K] (mol. weight = 28.0061 [u], P = 101325.00 [Pa])
    Rotational S                             9.859 [cal/(mol K)]       41.250 [J/(mol K)]       0.01571138 [mEh/K] (symmetry no. = 2)
    Vibrational S                            0.000 [cal/(mol K)]        0.001 [J/(mol K)]       0.00000050 [mEh/K]
  Total S                                   47.161 [cal/(mol K)]      197.321 [J/(mol K)]       0.07515578 [mEh/K]
  Correction S                               0.000 [cal/(mol K)]        0.000 [J/(mol K)]       0.00000000 [mEh/K]

  Constant volume heat capacity, Cv
    Electronic Cv                            0.000 [cal/(mol K)]        0.000 [J/(mol K)]       0.00000000 [mEh/K]
    Translational Cv                         2.981 [cal/(mol K)]       12.472 [J/(mol K)]       0.00475022 [mEh/K]
    Rotational Cv                            1.987 [cal/(mol K)]        8.314 [J/(mol K)]       0.00316681 [mEh/K]
    Vibrational Cv                           0.003 [cal/(mol K)]        0.014 [J/(mol K)]       0.00000520 [mEh/K]
  Total Cv                                   4.971 [cal/(mol K)]       20.800 [J/(mol K)]       0.00792223 [mEh/K]
  Correction Cv                              0.000 [cal/(mol K)]        0.000 [J/(mol K)]       0.00000000 [mEh/K]

  Constant pressure heat capacity, Cp
    Electronic Cp                            0.000 [cal/(mol K)]        0.000 [J/(mol K)]       0.00000000 [mEh/K]
    Translational Cp                         4.968 [cal/(mol K)]       20.786 [J/(mol K)]       0.00791703 [mEh/K]
    Rotational Cp                            1.987 [cal/(mol K)]        8.314 [J/(mol K)]       0.00316681 [mEh/K]
    Vibrational Cp                           0.003 [cal/(mol K)]        0.014 [J/(mol K)]       0.00000520 [mEh/K]
  Total Cp                                   6.958 [cal/(mol K)]       29.114 [J/(mol K)]       0.01108904 [mEh/K]
  Correction Cp                              0.000 [cal/(mol K)]        0.000 [J/(mol K)]       0.00000000 [mEh/K]

  ==> Thermochemistry Energy Analysis <==

  Raw electronic energy, E_e
  Total E_e, Electronic energy at well bottom                                          -108.98810833 [Eh]

  Zero-point vibrational energy, ZPVE = Sum_i omega_i / 2,  E_0 = E_e + ZPVE
    Vibrational ZPVE                         3.334 [kcal/mol]       13.948 [kJ/mol]       0.00531256 [Eh]        1165.971 [cm^-1]
  Correction ZPVE to E_e                     3.334 [kcal/mol]       13.948 [kJ/mol]       0.00531256 [Eh]        1165.971 [cm^-1]
  Total E_0, Enthalpy at 0 [K]                                                         -108.98279577 [Eh]
  *** Absolute enthalpy, not an enthalpy of formation ***

  Thermal (internal) energy, E (includes ZPVE and finite-temperature corrections)
    Electronic contrib to E beyond E_e       0.000 [kcal/mol]        0.000 [kJ/mol]       0.00000000 [Eh]
    Translational contrib to E               0.889 [kcal/mol]        3.718 [kJ/mol]       0.00141628 [Eh]
    Rotational contrib to E                  0.592 [kcal/mol]        2.479 [kJ/mol]       0.00094418 [Eh]
    Vibrational contrib to E                 3.334 [kcal/mol]       13.948 [kJ/mol]       0.00531269 [Eh]
  Correction E                               4.815 [kcal/mol]       20.146 [kJ/mol]       0.00767315 [Eh]
  Total E, Thermal (internal) energy at  298.15 [K]                                    -108.98043518 [Eh]

  Enthalpy, H_trans = E_trans + k_B * T = E_trans + P * V
    Electronic contrib to H beyond E_e       0.000 [kcal/mol]        0.000 [kJ/mol]       0.00000000 [Eh]
    Translational contrib to H               1.481 [kcal/mol]        6.197 [kJ/mol]       0.00236046 [Eh]
    Rotational contrib to H                  0.592 [kcal/mol]        2.479 [kJ/mol]       0.00094418 [Eh]
    Vibrational contrib to H                 3.334 [kcal/mol]       13.948 [kJ/mol]       0.00531269 [Eh]
  Correction H                               5.407 [kcal/mol]       22.625 [kJ/mol]       0.00861734 [Eh]
  Total H, Enthalpy at  298.15 [K]                                                     -108.97949099 [Eh]
  *** Absolute enthalpy, not an enthalpy of formation ***

  Gibbs free energy, G = H - T * S
    Electronic contrib to G beyond E_e      -0.411 [kcal/mol]       -1.718 [kJ/mol]      -0.00065446 [Eh]
    Translational contrib to G              -9.230 [kcal/mol]      -38.617 [kJ/mol]      -0.01470828 [Eh]
    Rotational contrib to G                 -2.347 [kcal/mol]       -9.820 [kJ/mol]      -0.00374016 [Eh]
    Vibrational contrib to G                 3.334 [kcal/mol]       13.948 [kJ/mol]       0.00531254 [Eh]
  Correction G                              -8.654 [kcal/mol]      -36.207 [kJ/mol]      -0.01379036 [Eh]
  Total G, Gibbs energy at  298.15 [K]                                                 -109.00189869 [Eh]

    Molecular point group: d2h

    Geometry (in Angstrom), charge = 1, multiplicity = 2:

       Center              X                  Y                   Z               Mass
    ------------   -----------------  -----------------  -----------------  -----------------
         N            0.000000000000     0.000000000000    -0.552386961877    14.003074004430
         N            0.000000000000     0.000000000000     0.552386961877    14.003074004430

  Charge       = 1
  Multiplicity = 2
  Basis Set: CC-PVTZ
    Blend: CC-PVTZ
  Basis Set: (CC-PVTZ AUX)
    Blend: CC-PVTZ-JKFIT

    Irrep   Nso     Nmo     Nalpha   Nbeta   Ndocc  Nsocc

    Orbital Energies [Eh]
    ---------------------

    Alpha Occupied:

       1Ag   -14.919405     1B1u  -14.917701     2Ag    -1.572695
       2B1u   -1.016678     3Ag    -0.907204     1B2u   -0.887109
       1B3u   -0.887109

    Alpha Virtual:

       1B3g   -0.449298     1B2g   -0.449298     3B1u    0.000824
       2B3u    0.076801     2B2u    0.076801     4Ag     0.103639
       5Ag     0.126691     2B2g    0.220137     2B3g    0.220137
       4B1u    0.245064     1B1g    0.468598     6Ag     0.468598
       5B1u    0.545011     3B3u    0.690725     3B2u    0.690725
       1Au     0.896012     6B1u    0.896012     7Ag     1.295236
       3B2g    1.307798     3B3g    1.307798     7B1u    1.489472
       4B3u    2.318599     4B2u    2.318599     8Ag     2.473775
       4B2g    2.654294     4B3g    2.654294     8B1u    2.927686
       2B1g    3.038125     9Ag     3.038125     5B2u    3.141037
       5B3u    3.141037     6B2u    3.198112     6B3u    3.198112
      10Ag     3.470086     5B3g    3.664719     5B2g    3.664719
       3B1g    3.907894    11Ag     3.907897     6B2g    4.022530
       6B3g    4.022530     2Au     4.045439     9B1u    4.045442
      10B1u    4.153352    11B1u    4.468881     3Au     4.468881
       7B2u    4.522220     7B3u    4.522220    12Ag     4.689955
      12B1u    5.190344     7B3g    5.927618     7B2g    5.927618
      13Ag     5.949568    13B1u   15.231710

    Beta Occupied:

       1Ag   -14.906062     1B1u  -14.904624     2Ag    -1.542908
       2B1u   -0.925176     1B2u   -0.874076     1B3u   -0.874076

    Beta Virtual:

       3Ag    -0.726723     1B3g   -0.426064     1B2g   -0.426064
       3B1u    0.011330     2B3u    0.080844     2B2u    0.080844
       4Ag     0.120797     5Ag     0.154018     2B2g    0.225699
       2B3g    0.225699     4B1u    0.308497     1B1g    0.472423
       6Ag     0.472423     5B1u    0.551325     3B3u    0.722588
       3B2u    0.722588     1Au     0.906162     6B1u    0.906162
       3B2g    1.334135     3B3g    1.334135     7Ag     1.335619
       7B1u    1.528415     4B3u    2.329291     4B2u    2.329291
       8Ag     2.510725     4B2g    2.663657     4B3g    2.663657
       8B1u    2.978395     2B1g    3.056709     9Ag     3.056710
       5B2u    3.174527     5B3u    3.174527     6B2u    3.203671
       6B3u    3.203671    10Ag     3.544455     5B3g    3.671919
       5B2g    3.671919     3B1g    3.924431    11Ag     3.924435
       2Au     4.057928     9B1u    4.057932     6B2g    4.084606
       6B3g    4.084606    10B1u    4.203044     3Au     4.494662
      11B1u    4.494663     7B2u    4.577475     7B3u    4.577475
      12Ag     4.726128    12B1u    5.252994     7B3g    5.961162
       7B2g    5.961162    13Ag     5.988444    13B1u   15.250505

    Final Occupation by Irrep:
             Ag   B1g   B2g   B3g    Au   B1u   B2u   B3u
    DOCC [     2,    0,    0,    0,    0,    2,    1,    1 ]
    SOCC [     1,    0,    0,    0,    0,    0,    0,    0 ]
    NA   [     3,    0,    0,    0,    0,    2,    1,    1 ]
    NB   [     2,    0,    0,    0,    0,    2,    1,    1 ]

  @DF-UKS Final Energy:  -108.98810833027399

   => Energetics <=

    Nuclear Repulsion Energy =             23.4705786996919521
    One-Electron Energy =                -188.0555558056865948
    Two-Electron Energy =                  66.3320834163390316
    DFT Exchange-Correlation Energy =     -10.7352146406183664
    Empirical Dispersion Energy =           0.0000000000000000
    VV10 Nonlocal Energy =                  0.0000000000000000
    Total Energy =                       -108.9881083302739881

  UHF NO Occupations:
  HONO-2 :    2 Ag 1.9998913
  HONO-1 :    2B1u 1.9983473
  HONO-0 :    3 Ag 1.0000000
  LUNO+0 :    3B1u 0.0016527
  LUNO+1 :    4 Ag 0.0001087
  LUNO+2 :    2B2u 0.0000916
  LUNO+3 :    2B3u 0.0000916

Computation Completed

Properties will be evaluated at   0.000000,   0.000000,   0.000000 [a0]

Properties computed using the B3LYP density matrix

 Multipole Moments:

 ------------------------------------------------------------------------------------
     Multipole            Electronic (a.u.)      Nuclear  (a.u.)        Total (a.u.)
 ------------------------------------------------------------------------------------

 L = 1.  Multiply by 2.5417464519 to convert [e a0] to [Debye]
 Dipole X            :          0.0000000            0.0000000            0.0000000
 Dipole Y            :          0.0000000            0.0000000            0.0000000
 Dipole Z            :          0.0000000            0.0000000            0.0000000
 Magnitude           :                                                    0.0000000

 L = 2.  Multiply by 1.3450342976 to convert [e a0^2] to [Debye ang]
 Quadrupole XX       :         -6.1676739            0.0000000           -6.1676739
 Quadrupole XY       :          0.0000000            0.0000000            0.0000000
 Quadrupole XZ       :          0.0000000            0.0000000            0.0000000
 Quadrupole YY       :         -6.1676739            0.0000000           -6.1676739
 Quadrupole YZ       :          0.0000000            0.0000000            0.0000000
 Quadrupole ZZ       :        -19.6327709           15.2550139           -4.3777570
 Traceless XX        :          4.4883657           -5.0850046           -0.5966390
 Traceless YY        :          4.4883657           -5.0850046           -0.5966390
 Traceless ZZ        :         -8.9767313           10.1700093            1.1932780

 ------------------------------------------------------------------------------------
  Mulliken Charges: (a.u.)
   Center  Symbol    Alpha    Beta     Spin     Total
       1     N     3.50000  3.00000  0.50000  0.50000
       2     N     3.50000  3.00000  0.50000  0.50000

   Total alpha =  7.00000, Total beta =  6.00000, Total charge =  1.00000

*** tstop() called on Mac.lan at Sun Aug 10 18:23:41 2025
Module time:
	user time   =      21.13 seconds =       0.35 minutes
	system time =       1.68 seconds =       0.03 minutes
	total time  =          2 seconds =       0.03 minutes
Total time:
	user time   =     173.33 seconds =       2.89 minutes
	system time =      17.38 seconds =       0.29 minutes
	total time  =         19 seconds =       0.32 minutes

    Psi4 stopped on: Sunday, 10 August 2025 06:23PM
    Psi4 wall time for execution: 0:00:19.31

*** Psi4 exiting successfully. Buy a developer a beer!
