                               Psi4 1.9.1 release

  ==> Input File <==

--------------------------------------------------------------------------
molecule {
1 1
O           0.000000           0.000000           0.000000
N           0.000000           0.000000           1.066773
}

set {
basis              cc-pvtz
reference          uks
maxiter            500
DAMPING_PERCENTAGE 1
E_CONVERGENCE      1.0E-8
D_CONVERGENCE      1.0E-8
DIIS_MAX_VECS      400
MBIS_MAXITER       8000
guess              SAP
}

E, wfn = optimize('b3lyp', return_wfn=True)
frequencies('b3lyp', wfn=wfn, return_wfn=True)
properties('b3lyp','MULLIKEN_CHARGES', wfn=wfn)
--------------------------------------------------------------------------

    Molecular point group: c2v
  Charge       = 1
  Multiplicity = 1
  Basis Set: CC-PVTZ
    Blend: CC-PVTZ
  Basis Set: (CC-PVTZ AUX)
    Blend: CC-PVTZ-JKFIT
  @DF-UKS Final Energy:  -129.58614918438010
    Total Energy =                       -129.5861491843801048
 Dipole X            :          0.0000000            0.0000000            0.0000000
 Dipole Y            :          0.0000000            0.0000000            0.0000000
 Dipole Z            :          0.1657784           -0.0040448            0.1617335
 Magnitude           :                                                    0.1617335
    Molecular point group: c2v
  Basis Set: CC-PVTZ
    Blend: CC-PVTZ
  Basis Set: (CC-PVTZ AUX)
    Blend: CC-PVTZ-JKFIT
  Basis Set: CC-PVTZ
    Blend: CC-PVTZ
  Basis Set: (CC-PVTZ AUX)
    Blend: CC-PVTZ-JKFIT
  @DF-UKS Final Energy:  -129.58640553786077
    Total Energy =                       -129.5864055378607702
  Basis Set: CC-PVTZ
    Blend: CC-PVTZ
  Basis Set: (CC-PVTZ AUX)
    Blend: CC-PVTZ-JKFIT
  Basis Set: CC-PVTZ
    Blend: CC-PVTZ
  @DF-UKS Final Energy:  -129.58641888681080
    Total Energy =                       -129.5864188868108045
    Final optimized geometry and variables:
                               Psi4 1.9.1 release
  @DF-UKS Final Energy:  -129.58641888608534
    Total Energy =                       -129.5864188860853403
                               Psi4 1.9.1 release
  @DF-UKS Final Energy:  -129.58641644507497
    Total Energy =                       -129.5864164450749740
                               Psi4 1.9.1 release
  @DF-UKS Final Energy:  -129.58641550478285
    Total Energy =                       -129.5864155047828490
                               Psi4 1.9.1 release
    Blend: CC-PVTZ-JKFIT
  @DF-UKS Final Energy:  -129.58641888628657
    Total Energy =                       -129.5864188862865660
  Basis Set: CC-PVTZ
    Blend: CC-PVTZ
  Basis Set: (CC-PVTZ AUX)
    Blend: CC-PVTZ-JKFIT
                               Psi4 1.9.1 release
  Basis Set: CC-PVTZ
    Blend: CC-PVTZ
  Basis Set: (CC-PVTZ AUX)
    Blend: CC-PVTZ-JKFIT
  @DF-UKS Final Energy:  -129.58641888629191
    Total Energy =                       -129.5864188862919093
    Molecular point group: cs
  Basis Set: CC-PVTZ
    Blend: CC-PVTZ
  Basis Set: (CC-PVTZ AUX)
    Blend: CC-PVTZ-JKFIT

  -Total Gradient:
     Atom            X                  Y                   Z
    ------   -----------------  -----------------  -----------------
       1        0.000000000000     0.000000231859     0.000253157982
       2        0.000000000000    -0.000000230583    -0.000251764097

  Vibration                       6
  Freq [cm^-1]                2480.7764
  Irrep                           A1
  Reduced mass [u]             14.8673
  Force const [mDyne/A]        53.9086

  IR activ [km/mol]            29.0980

  ==> Thermochemistry Components <==

  Entropy, S
    Electronic S                             0.000 [cal/(mol K)]        0.000 [J/(mol K)]       0.00000000 [mEh/K] (multiplicity = 1)
    Translational S                         36.129 [cal/(mol K)]      151.164 [J/(mol K)]       0.05757520 [mEh/K] (mol. weight = 29.9980 [u], P = 101325.00 [Pa])
    Rotational S                            11.189 [cal/(mol K)]       46.817 [J/(mol K)]       0.01783160 [mEh/K] (symmetry no. = 1)
    Vibrational S                            0.000 [cal/(mol K)]        0.001 [J/(mol K)]       0.00000026 [mEh/K]
  Total S                                   47.319 [cal/(mol K)]      197.981 [J/(mol K)]       0.07540706 [mEh/K]
  Correction S                               0.000 [cal/(mol K)]        0.000 [J/(mol K)]       0.00000000 [mEh/K]

  Constant volume heat capacity, Cv
    Electronic Cv                            0.000 [cal/(mol K)]        0.000 [J/(mol K)]       0.00000000 [mEh/K]
    Translational Cv                         2.981 [cal/(mol K)]       12.472 [J/(mol K)]       0.00475022 [mEh/K]
    Rotational Cv                            1.987 [cal/(mol K)]        8.314 [J/(mol K)]       0.00316681 [mEh/K]
    Vibrational Cv                           0.002 [cal/(mol K)]        0.008 [J/(mol K)]       0.00000287 [mEh/K]
  Total Cv                                   4.970 [cal/(mol K)]       20.794 [J/(mol K)]       0.00791990 [mEh/K]
  Correction Cv                              0.000 [cal/(mol K)]        0.000 [J/(mol K)]       0.00000000 [mEh/K]

  Constant pressure heat capacity, Cp
    Electronic Cp                            0.000 [cal/(mol K)]        0.000 [J/(mol K)]       0.00000000 [mEh/K]
    Translational Cp                         4.968 [cal/(mol K)]       20.786 [J/(mol K)]       0.00791703 [mEh/K]
    Rotational Cp                            1.987 [cal/(mol K)]        8.314 [J/(mol K)]       0.00316681 [mEh/K]
    Vibrational Cp                           0.002 [cal/(mol K)]        0.008 [J/(mol K)]       0.00000287 [mEh/K]
  Total Cp                                   6.957 [cal/(mol K)]       29.108 [J/(mol K)]       0.01108671 [mEh/K]
  Correction Cp                              0.000 [cal/(mol K)]        0.000 [J/(mol K)]       0.00000000 [mEh/K]

  ==> Thermochemistry Energy Analysis <==

  Raw electronic energy, E_e
  Total E_e, Electronic energy at well bottom                                          -129.58641889 [Eh]

  Zero-point vibrational energy, ZPVE = Sum_i omega_i / 2,  E_0 = E_e + ZPVE
    Vibrational ZPVE                         3.546 [kcal/mol]       14.838 [kJ/mol]       0.00565162 [Eh]        1240.388 [cm^-1]
  Correction ZPVE to E_e                     3.546 [kcal/mol]       14.838 [kJ/mol]       0.00565162 [Eh]        1240.388 [cm^-1]
  Total E_0, Enthalpy at 0 [K]                                                         -129.58076726 [Eh]
  *** Absolute enthalpy, not an enthalpy of formation ***

  Thermal (internal) energy, E (includes ZPVE and finite-temperature corrections)
    Electronic contrib to E beyond E_e       0.000 [kcal/mol]        0.000 [kJ/mol]       0.00000000 [Eh]
    Translational contrib to E               0.889 [kcal/mol]        3.718 [kJ/mol]       0.00141628 [Eh]
    Rotational contrib to E                  0.592 [kcal/mol]        2.479 [kJ/mol]       0.00094418 [Eh]
    Vibrational contrib to E                 3.546 [kcal/mol]       14.839 [kJ/mol]       0.00565170 [Eh]
  Correction E                               5.028 [kcal/mol]       21.036 [kJ/mol]       0.00801216 [Eh]
  Total E, Thermal (internal) energy at  298.15 [K]                                    -129.57840673 [Eh]

  Enthalpy, H_trans = E_trans + k_B * T = E_trans + P * V
    Electronic contrib to H beyond E_e       0.000 [kcal/mol]        0.000 [kJ/mol]       0.00000000 [Eh]
    Translational contrib to H               1.481 [kcal/mol]        6.197 [kJ/mol]       0.00236046 [Eh]
    Rotational contrib to H                  0.592 [kcal/mol]        2.479 [kJ/mol]       0.00094418 [Eh]
    Vibrational contrib to H                 3.546 [kcal/mol]       14.839 [kJ/mol]       0.00565170 [Eh]
  Correction H                               5.620 [kcal/mol]       23.515 [kJ/mol]       0.00895634 [Eh]
  Total H, Enthalpy at  298.15 [K]                                                     -129.57746254 [Eh]
  *** Absolute enthalpy, not an enthalpy of formation ***

  Gibbs free energy, G = H - T * S
    Electronic contrib to G beyond E_e       0.000 [kcal/mol]        0.000 [kJ/mol]       0.00000000 [Eh]
    Translational contrib to G              -9.291 [kcal/mol]      -38.872 [kJ/mol]      -0.01480558 [Eh]
    Rotational contrib to G                 -2.744 [kcal/mol]      -11.479 [kJ/mol]      -0.00437231 [Eh]
    Vibrational contrib to G                 3.546 [kcal/mol]       14.838 [kJ/mol]       0.00565162 [Eh]
  Correction G                              -8.488 [kcal/mol]      -35.513 [kJ/mol]      -0.01352627 [Eh]
  Total G, Gibbs energy at  298.15 [K]                                                 -129.59994516 [Eh]

    Molecular point group: c2v

    Geometry (in Angstrom), charge = 1, multiplicity = 1:

       Center              X                  Y                   Z               Mass
    ------------   -----------------  -----------------  -----------------  -----------------
         O            0.000000000000     0.000000000000    -0.493529049443    15.994914619570
         N            0.000000000000     0.000000000000     0.563730149938    14.003074004430

  Charge       = 1
  Multiplicity = 1
  Basis Set: CC-PVTZ
    Blend: CC-PVTZ
  Basis Set: (CC-PVTZ AUX)
    Blend: CC-PVTZ-JKFIT

    Irrep   Nso     Nmo     Nalpha   Nbeta   Ndocc  Nsocc

    Orbital Energies [Eh]
    ---------------------

    Alpha Occupied:

       1A1   -19.768834     2A1   -14.960033     3A1    -1.786423
       4A1    -1.096236     1B1    -0.990361     1B2    -0.990361
       5A1    -0.920086

    Alpha Virtual:

       2B1    -0.492073     2B2    -0.492073     6A1    -0.058866
       3B1     0.081149     3B2     0.081149     7A1     0.122840
       8A1     0.193160     9A1     0.275819     4B1     0.283516
       4B2     0.283516     1A2     0.527427    10A1     0.527427
       5B1     0.785632     5B2     0.785632    11A1     0.829441
       2A2     1.161142    12A1     1.161142    13A1     1.342011
       6B2     1.657160     6B1     1.657160    14A1     1.878509
       7B2     2.387144     7B1     2.387144    15A1     2.658868
       8B1     3.174414     8B2     3.174414    16A1     3.312344
       9B2     3.339867     9B1     3.339867    17A1     3.353379
       3A2     3.353379    10B2     3.632988    10B1     3.632988
       4A2     3.927732    18A1     3.927733    19A1     4.005894
      11B2     4.341834    11B1     4.341834    20A1     4.630034
      12B2     4.636064    12B1     4.636064     5A2     5.285098
      21A1     5.285098     6A2     5.713913    22A1     5.713914
      13B1     6.065147    13B2     6.065147    23A1     6.106341
      24A1     6.630204    14B2     6.788325    14B1     6.788325
      25A1     7.020089    26A1    15.448526

    Beta Occupied:

       1A1   -19.768834     2A1   -14.960033     3A1    -1.786423
       4A1    -1.096236     1B1    -0.990361     1B2    -0.990361
       5A1    -0.920086

    Beta Virtual:

       2B1    -0.492073     2B2    -0.492073     6A1    -0.058866
       3B1     0.081149     3B2     0.081149     7A1     0.122840
       8A1     0.193160     9A1     0.275819     4B1     0.283516
       4B2     0.283516     1A2     0.527427    10A1     0.527427
       5B1     0.785632     5B2     0.785632    11A1     0.829441
       2A2     1.161142    12A1     1.161142    13A1     1.342011
       6B2     1.657160     6B1     1.657160    14A1     1.878509
       7B2     2.387144     7B1     2.387144    15A1     2.658868
       8B1     3.174414     8B2     3.174414    16A1     3.312344
       9B2     3.339867     9B1     3.339867    17A1     3.353379
       3A2     3.353379    10B2     3.632988    10B1     3.632988
       4A2     3.927732    18A1     3.927733    19A1     4.005894
      11B2     4.341834    11B1     4.341834    20A1     4.630034
      12B2     4.636064    12B1     4.636064     5A2     5.285098
      21A1     5.285098     6A2     5.713913    22A1     5.713914
      13B1     6.065147    13B2     6.065147    23A1     6.106341
      24A1     6.630204    14B2     6.788325    14B1     6.788325
      25A1     7.020089    26A1    15.448526

    Final Occupation by Irrep:
             A1    A2    B1    B2
    DOCC [     5,    0,    1,    1 ]
    SOCC [     0,    0,    0,    0 ]
    NA   [     5,    0,    1,    1 ]
    NB   [     5,    0,    1,    1 ]

  @DF-UKS Final Energy:  -129.58641888608534

   => Energetics <=

    Nuclear Repulsion Energy =             28.0290053894658691
    One-Electron Energy =                -225.4879574409843030
    Two-Electron Energy =                  79.9995596357215817
    DFT Exchange-Correlation Energy =     -12.1270264702884862
    Empirical Dispersion Energy =           0.0000000000000000
    VV10 Nonlocal Energy =                  0.0000000000000000
    Total Energy =                       -129.5864188860853403

  UHF NO Occupations:
  HONO-2 :    1 B1 2.0000000
  HONO-1 :    4 A1 2.0000000
  HONO-0 :    5 A1 2.0000000
  LUNO+0 :    6 A1 0.0000000
  LUNO+1 :    7 A1 0.0000000
  LUNO+2 :    8 A1 0.0000000
  LUNO+3 :    9 A1 0.0000000

Computation Completed

Properties will be evaluated at   0.000000,   0.000000,   0.000000 [a0]

Properties computed using the B3LYP density matrix

 Multipole Moments:

 ------------------------------------------------------------------------------------
     Multipole            Electronic (a.u.)      Nuclear  (a.u.)        Total (a.u.)
 ------------------------------------------------------------------------------------

 L = 1.  Multiply by 2.5417464519 to convert [e a0] to [Debye]
 Dipole X            :          0.0000000            0.0000000            0.0000000
 Dipole Y            :          0.0000000            0.0000000            0.0000000
 Dipole Z            :          0.1572501           -0.0040088            0.1532414
 Magnitude           :                                                    0.1532414

 L = 2.  Multiply by 1.3450342976 to convert [e a0^2] to [Debye ang]
 Quadrupole XX       :         -5.8084006            0.0000000           -5.8084006
 Quadrupole XY       :          0.0000000            0.0000000            0.0000000
 Quadrupole XZ       :          0.0000000            0.0000000            0.0000000
 Quadrupole YY       :         -5.8084006            0.0000000           -5.8084006
 Quadrupole YZ       :          0.0000000            0.0000000            0.0000000
 Quadrupole ZZ       :        -20.3077255           14.9024433           -5.4052821
 Traceless XX        :          4.8331083           -4.9674811           -0.1343728
 Traceless YY        :          4.8331083           -4.9674811           -0.1343728
 Traceless ZZ        :         -9.6662166            9.9349622            0.2687456

 ------------------------------------------------------------------------------------
  Mulliken Charges: (a.u.)
   Center  Symbol    Alpha    Beta     Spin     Total
       1     O     3.77288  3.77288  0.00000  0.45424
       2     N     3.22712  3.22712 -0.00000  0.54576

   Total alpha =  7.00000, Total beta =  7.00000, Total charge =  1.00000

*** tstop() called on Mac.lan at Sun Aug 10 18:39:39 2025
Module time:
	user time   =      19.18 seconds =       0.32 minutes
	system time =       1.42 seconds =       0.02 minutes
	total time  =          2 seconds =       0.03 minutes
Total time:
	user time   =     162.54 seconds =       2.71 minutes
	system time =      15.81 seconds =       0.26 minutes
	total time  =         18 seconds =       0.30 minutes

    Psi4 stopped on: Sunday, 10 August 2025 06:39PM
    Psi4 wall time for execution: 0:00:18.37

*** Psi4 exiting successfully. Buy a developer a beer!
