                               Psi4 1.9.1 release

  ==> Input File <==

--------------------------------------------------------------------------
molecule {
1 1
C           0.000000           0.000000           0.000000
H           0.000000           0.000000           1.151319
}

set {
basis              cc-pvtz
reference          uks
maxiter            500
DAMPING_PERCENTAGE 1
E_CONVERGENCE      1.0E-8
D_CONVERGENCE      1.0E-8
DIIS_MAX_VECS      400
MBIS_MAXITER       8000
guess              SAP
}

E, wfn = optimize('b3lyp', return_wfn=True)
frequencies('b3lyp', wfn=wfn, return_wfn=True)
properties('b3lyp','MULLIKEN_CHARGES', wfn=wfn)
--------------------------------------------------------------------------

    Molecular point group: c2v
  Charge       = 1
  Multiplicity = 1
  Basis Set: CC-PVTZ
    Blend: CC-PVTZ
  Basis Set: (CC-PVTZ AUX)
    Blend: CC-PVTZ-JKFIT
  @DF-UKS Final Energy:   -38.09215638841705
    Total Energy =                        -38.0921563884170595
 Dipole X            :          0.0000000            0.0000000            0.0000000
 Dipole Y            :          0.0000000            0.0000000            0.0000000
 Dipole Z            :         -0.2801060            0.9957020            0.7155960
 Magnitude           :                                                    0.7155960
    Molecular point group: c2v
  Basis Set: CC-PVTZ
    Blend: CC-PVTZ
  Basis Set: (CC-PVTZ AUX)
    Blend: CC-PVTZ-JKFIT
  Basis Set: CC-PVTZ
    Blend: CC-PVTZ
  Basis Set: (CC-PVTZ AUX)
    Blend: CC-PVTZ-JKFIT
  @DF-UKS Final Energy:   -38.09225704982761
    Total Energy =                        -38.0922570498276087
  Basis Set: CC-PVTZ
    Blend: CC-PVTZ
  Basis Set: (CC-PVTZ AUX)
    Blend: CC-PVTZ-JKFIT
  Basis Set: CC-PVTZ
    Blend: CC-PVTZ
  @DF-UKS Final Energy:   -38.09225766625008
    Total Energy =                        -38.0922576662500774
    Final optimized geometry and variables:
                               Psi4 1.9.1 release
  @DF-UKS Final Energy:   -38.09225766548377
    Total Energy =                        -38.0922576654837641
                               Psi4 1.9.1 release
  @DF-UKS Final Energy:   -38.09225411161807
    Total Energy =                        -38.0922541116180682
                               Psi4 1.9.1 release
  @DF-UKS Final Energy:   -38.09225382108288
    Total Energy =                        -38.0922538210828776
                               Psi4 1.9.1 release
    Blend: CC-PVTZ-JKFIT
  @DF-UKS Final Energy:   -38.09225766564543
    Total Energy =                        -38.0922576656454268
  Basis Set: CC-PVTZ
    Blend: CC-PVTZ
  Basis Set: (CC-PVTZ AUX)
    Blend: CC-PVTZ-JKFIT
                               Psi4 1.9.1 release
  Basis Set: CC-PVTZ
    Blend: CC-PVTZ
  Basis Set: (CC-PVTZ AUX)
    Blend: CC-PVTZ-JKFIT
  @DF-UKS Final Energy:   -38.09225766564617
    Total Energy =                        -38.0922576656461658
    Molecular point group: cs
  Basis Set: CC-PVTZ
    Blend: CC-PVTZ
  Basis Set: (CC-PVTZ AUX)
    Blend: CC-PVTZ-JKFIT

  -Total Gradient:
     Atom            X                  Y                   Z
    ------   -----------------  -----------------  -----------------
       1        0.000000000000     0.000000054885     0.000022736230
       2        0.000000000000    -0.000000054479    -0.000022567958

  Vibration                       6
  Freq [cm^-1]                2796.4292
  Irrep                           A1
  Reduced mass [u]              1.0848
  Force const [mDyne/A]         4.9982

  IR activ [km/mol]             1.2536

  ==> Thermochemistry Components <==

  Entropy, S
    Electronic S                             0.000 [cal/(mol K)]        0.000 [J/(mol K)]       0.00000000 [mEh/K] (multiplicity = 1)
    Translational S                         33.638 [cal/(mol K)]      140.743 [J/(mol K)]       0.05360602 [mEh/K] (mol. weight = 13.0078 [u], P = 101325.00 [Pa])
    Rotational S                             7.338 [cal/(mol K)]       30.701 [J/(mol K)]       0.01169324 [mEh/K] (symmetry no. = 1)
    Vibrational S                            0.000 [cal/(mol K)]        0.000 [J/(mol K)]       0.00000006 [mEh/K]
  Total S                                   40.976 [cal/(mol K)]      171.443 [J/(mol K)]       0.06529932 [mEh/K]
  Correction S                               0.000 [cal/(mol K)]        0.000 [J/(mol K)]       0.00000000 [mEh/K]

  Constant volume heat capacity, Cv
    Electronic Cv                            0.000 [cal/(mol K)]        0.000 [J/(mol K)]       0.00000000 [mEh/K]
    Translational Cv                         2.981 [cal/(mol K)]       12.472 [J/(mol K)]       0.00475022 [mEh/K]
    Rotational Cv                            1.987 [cal/(mol K)]        8.314 [J/(mol K)]       0.00316681 [mEh/K]
    Vibrational Cv                           0.000 [cal/(mol K)]        0.002 [J/(mol K)]       0.00000079 [mEh/K]
  Total Cv                                   4.969 [cal/(mol K)]       20.788 [J/(mol K)]       0.00791782 [mEh/K]
  Correction Cv                              0.000 [cal/(mol K)]        0.000 [J/(mol K)]       0.00000000 [mEh/K]

  Constant pressure heat capacity, Cp
    Electronic Cp                            0.000 [cal/(mol K)]        0.000 [J/(mol K)]       0.00000000 [mEh/K]
    Translational Cp                         4.968 [cal/(mol K)]       20.786 [J/(mol K)]       0.00791703 [mEh/K]
    Rotational Cp                            1.987 [cal/(mol K)]        8.314 [J/(mol K)]       0.00316681 [mEh/K]
    Vibrational Cp                           0.000 [cal/(mol K)]        0.002 [J/(mol K)]       0.00000079 [mEh/K]
  Total Cp                                   6.956 [cal/(mol K)]       29.103 [J/(mol K)]       0.01108463 [mEh/K]
  Correction Cp                              0.000 [cal/(mol K)]        0.000 [J/(mol K)]       0.00000000 [mEh/K]

  ==> Thermochemistry Energy Analysis <==

  Raw electronic energy, E_e
  Total E_e, Electronic energy at well bottom                                           -38.09225767 [Eh]

  Zero-point vibrational energy, ZPVE = Sum_i omega_i / 2,  E_0 = E_e + ZPVE
    Vibrational ZPVE                         3.998 [kcal/mol]       16.726 [kJ/mol]       0.00637073 [Eh]        1398.215 [cm^-1]
  Correction ZPVE to E_e                     3.998 [kcal/mol]       16.726 [kJ/mol]       0.00637073 [Eh]        1398.215 [cm^-1]
  Total E_0, Enthalpy at 0 [K]                                                          -38.08588693 [Eh]
  *** Absolute enthalpy, not an enthalpy of formation ***

  Thermal (internal) energy, E (includes ZPVE and finite-temperature corrections)
    Electronic contrib to E beyond E_e       0.000 [kcal/mol]        0.000 [kJ/mol]       0.00000000 [Eh]
    Translational contrib to E               0.889 [kcal/mol]        3.718 [kJ/mol]       0.00141628 [Eh]
    Rotational contrib to E                  0.592 [kcal/mol]        2.479 [kJ/mol]       0.00094418 [Eh]
    Vibrational contrib to E                 3.998 [kcal/mol]       16.726 [kJ/mol]       0.00637075 [Eh]
  Correction E                               5.479 [kcal/mol]       22.924 [kJ/mol]       0.00873121 [Eh]
  Total E, Thermal (internal) energy at  298.15 [K]                                     -38.08352645 [Eh]

  Enthalpy, H_trans = E_trans + k_B * T = E_trans + P * V
    Electronic contrib to H beyond E_e       0.000 [kcal/mol]        0.000 [kJ/mol]       0.00000000 [Eh]
    Translational contrib to H               1.481 [kcal/mol]        6.197 [kJ/mol]       0.00236046 [Eh]
    Rotational contrib to H                  0.592 [kcal/mol]        2.479 [kJ/mol]       0.00094418 [Eh]
    Vibrational contrib to H                 3.998 [kcal/mol]       16.726 [kJ/mol]       0.00637075 [Eh]
  Correction H                               6.071 [kcal/mol]       25.403 [kJ/mol]       0.00967540 [Eh]
  Total H, Enthalpy at  298.15 [K]                                                      -38.08258227 [Eh]
  *** Absolute enthalpy, not an enthalpy of formation ***

  Gibbs free energy, G = H - T * S
    Electronic contrib to G beyond E_e       0.000 [kcal/mol]        0.000 [kJ/mol]       0.00000000 [Eh]
    Translational contrib to G              -8.548 [kcal/mol]      -35.765 [kJ/mol]      -0.01362217 [Eh]
    Rotational contrib to G                 -1.595 [kcal/mol]       -6.674 [kJ/mol]      -0.00254216 [Eh]
    Vibrational contrib to G                 3.998 [kcal/mol]       16.726 [kJ/mol]       0.00637073 [Eh]
  Correction G                              -6.146 [kcal/mol]      -25.713 [kJ/mol]      -0.00979359 [Eh]
  Total G, Gibbs energy at  298.15 [K]                                                  -38.10205126 [Eh]

    Molecular point group: c2v

    Geometry (in Angstrom), charge = 1, multiplicity = 1:

       Center              X                  Y                   Z               Mass
    ------------   -----------------  -----------------  -----------------  -----------------
         C            0.000000000000     0.000000000000    -0.088070819579    12.000000000000
         H            0.000000000000     0.000000000000     1.048644160590     1.007825032230

  Charge       = 1
  Multiplicity = 1
  Basis Set: CC-PVTZ
    Blend: CC-PVTZ
  Basis Set: (CC-PVTZ AUX)
    Blend: CC-PVTZ-JKFIT

    Irrep   Nso     Nmo     Nalpha   Nbeta   Ndocc  Nsocc

    Orbital Energies [Eh]
    ---------------------

    Alpha Occupied:

       1A1   -10.801916     2A1    -1.051781     3A1    -0.722415

    Alpha Virtual:

       1B1    -0.545899     1B2    -0.545899     4A1    -0.224712
       5A1    -0.009109     2B2     0.008005     2B1     0.008005
       6A1     0.030387     7A1     0.164447     3B1     0.226047
       3B2     0.226047     8A1     0.317995     1A2     0.317995
       9A1     0.624806     4B1     0.703919     4B2     0.703919
      10A1     1.024945     5B2     1.535343     5B1     1.535343
      11A1     1.689542    12A1     1.801093    13A1     2.127502
       2A2     2.127503     6B1     2.202034     6B2     2.202034
       7B1     2.248268     7B2     2.248268    14A1     2.485065
      15A1     2.492110     3A2     2.492110     8B2     2.649641
       8B1     2.649641    16A1     2.833306    17A1     3.170561
       4A2     3.170562     9B1     3.427930     9B2     3.427930
      18A1     3.985179    10B1     4.254050    10B2     4.254050
      19A1     4.325438    20A1     7.485358

    Beta Occupied:

       1A1   -10.801916     2A1    -1.051781     3A1    -0.722415

    Beta Virtual:

       1B1    -0.545899     1B2    -0.545899     4A1    -0.224712
       5A1    -0.009109     2B2     0.008005     2B1     0.008005
       6A1     0.030387     7A1     0.164447     3B1     0.226047
       3B2     0.226047     8A1     0.317995     1A2     0.317995
       9A1     0.624806     4B1     0.703919     4B2     0.703919
      10A1     1.024945     5B2     1.535343     5B1     1.535343
      11A1     1.689542    12A1     1.801093    13A1     2.127502
       2A2     2.127503     6B1     2.202034     6B2     2.202034
       7B1     2.248268     7B2     2.248268    14A1     2.485065
      15A1     2.492110     3A2     2.492110     8B2     2.649641
       8B1     2.649641    16A1     2.833306    17A1     3.170561
       4A2     3.170562     9B1     3.427930     9B2     3.427930
      18A1     3.985179    10B1     4.254050    10B2     4.254050
      19A1     4.325438    20A1     7.485358

    Final Occupation by Irrep:
             A1    A2    B1    B2
    DOCC [     3,    0,    0,    0 ]
    SOCC [     0,    0,    0,    0 ]
    NA   [     3,    0,    0,    0 ]
    NB   [     3,    0,    0,    0 ]

  @DF-UKS Final Energy:   -38.09225766548377

   => Energetics <=

    Nuclear Repulsion Energy =              2.7931920660963732
    One-Electron Energy =                 -53.5344059579455731
    Two-Electron Energy =                  16.9152816241049742
    DFT Exchange-Correlation Energy =      -4.2663253977395410
    Empirical Dispersion Energy =           0.0000000000000000
    VV10 Nonlocal Energy =                  0.0000000000000000
    Total Energy =                        -38.0922576654837641

  UHF NO Occupations:
  HONO-2 :    1 A1 2.0000000
  HONO-1 :    2 A1 2.0000000
  HONO-0 :    3 A1 2.0000000
  LUNO+0 :    4 A1 0.0000000
  LUNO+1 :    5 A1 0.0000000
  LUNO+2 :    6 A1 0.0000000
  LUNO+3 :    7 A1 0.0000000

Computation Completed

Properties will be evaluated at   0.000000,   0.000000,   0.000000 [a0]

Properties computed using the B3LYP density matrix

 Multipole Moments:

 ------------------------------------------------------------------------------------
     Multipole            Electronic (a.u.)      Nuclear  (a.u.)        Total (a.u.)
 ------------------------------------------------------------------------------------

 L = 1.  Multiply by 2.5417464519 to convert [e a0] to [Debye]
 Dipole X            :          0.0000000            0.0000000            0.0000000
 Dipole Y            :          0.0000000            0.0000000            0.0000000
 Dipole Z            :         -0.2684727            0.9830719            0.7145992
 Magnitude           :                                                    0.7145992

 L = 2.  Multiply by 1.3450342976 to convert [e a0^2] to [Debye ang]
 Quadrupole XX       :         -2.9121634            0.0000000           -2.9121634
 Quadrupole XY       :          0.0000000            0.0000000            0.0000000
 Quadrupole XZ       :          0.0000000            0.0000000            0.0000000
 Quadrupole YY       :         -2.9121634            0.0000000           -2.9121634
 Quadrupole YZ       :          0.0000000            0.0000000            0.0000000
 Quadrupole ZZ       :         -7.2053346            4.0931309           -3.1122037
 Traceless XX        :          1.4310571           -1.3643770            0.0666801
 Traceless YY        :          1.4310571           -1.3643770            0.0666801
 Traceless ZZ        :         -2.8621141            2.7287539           -0.1333602

 ------------------------------------------------------------------------------------
  Mulliken Charges: (a.u.)
   Center  Symbol    Alpha    Beta     Spin     Total
       1     C     2.63432  2.63432  0.00000  0.73135
       2     H     0.36568  0.36568  0.00000  0.26865

   Total alpha =  3.00000, Total beta =  3.00000, Total charge =  1.00000

*** tstop() called on Mac.lan at Sun Aug 10 18:26:18 2025
Module time:
	user time   =       8.65 seconds =       0.14 minutes
	system time =       1.01 seconds =       0.02 minutes
	total time  =          1 seconds =       0.02 minutes
Total time:
	user time   =      99.99 seconds =       1.67 minutes
	system time =      12.03 seconds =       0.20 minutes
	total time  =         11 seconds =       0.18 minutes

    Psi4 stopped on: Sunday, 10 August 2025 06:26PM
    Psi4 wall time for execution: 0:00:11.53

*** Psi4 exiting successfully. Buy a developer a beer!
