                               Psi4 1.9.1 release

  ==> Input File <==

--------------------------------------------------------------------------
molecule {
1 4
C           0.000000           0.000000           0.000000
C           0.000000           0.000000           1.256987
}

set {
basis              cc-pvtz
reference          uks
maxiter            500
DAMPING_PERCENTAGE 1
E_CONVERGENCE      1.0E-8
D_CONVERGENCE      1.0E-8
DIIS_MAX_VECS      400
MBIS_MAXITER       8000
guess              SAP
}

E, wfn = optimize('b3lyp', return_wfn=True)
frequencies('b3lyp', wfn=wfn, return_wfn=True)
properties('b3lyp','MULLIKEN_CHARGES', wfn=wfn)
--------------------------------------------------------------------------

    Molecular point group: d2h
  Charge       = 1
  Multiplicity = 4
  Basis Set: CC-PVTZ
    Blend: CC-PVTZ
  Basis Set: (CC-PVTZ AUX)
    Blend: CC-PVTZ-JKFIT
  @DF-UKS Final Energy:   -75.46616986352480
    Total Energy =                        -75.4661698635248115
 Dipole X            :          0.0000000            0.0000000            0.0000000
 Dipole Y            :          0.0000000            0.0000000            0.0000000
 Dipole Z            :          0.0000000            0.0000000            0.0000000
 Magnitude           :                                                    0.0000000
    Molecular point group: d2h
  Basis Set: CC-PVTZ
    Blend: CC-PVTZ
  Basis Set: (CC-PVTZ AUX)
    Blend: CC-PVTZ-JKFIT
  Basis Set: CC-PVTZ
    Blend: CC-PVTZ
  Basis Set: (CC-PVTZ AUX)
    Blend: CC-PVTZ-JKFIT
  @DF-UKS Final Energy:   -75.46646469007834
    Total Energy =                        -75.4664646900783396
  Basis Set: CC-PVTZ
    Blend: CC-PVTZ
  Basis Set: (CC-PVTZ AUX)
    Blend: CC-PVTZ-JKFIT
  Basis Set: CC-PVTZ
    Blend: CC-PVTZ
  @DF-UKS Final Energy:   -75.46646693415460
    Total Energy =                        -75.4664669341545959
    Final optimized geometry and variables:
                               Psi4 1.9.1 release
  @DF-UKS Final Energy:   -75.46646693455071
    Total Energy =                        -75.4664669345507093
                               Psi4 1.9.1 release
  @DF-UKS Final Energy:   -75.46646486961518
    Total Energy =                        -75.4664648696151801
                               Psi4 1.9.1 release
  @DF-UKS Final Energy:   -75.46646519858947
    Total Energy =                        -75.4664651985894750
                               Psi4 1.9.1 release
    Blend: CC-PVTZ-JKFIT
  @DF-UKS Final Energy:   -75.46646693447356
    Total Energy =                        -75.4664669344735444
  Basis Set: CC-PVTZ
    Blend: CC-PVTZ
  Basis Set: (CC-PVTZ AUX)
    Blend: CC-PVTZ-JKFIT
                               Psi4 1.9.1 release
  Basis Set: CC-PVTZ
    Blend: CC-PVTZ
  Basis Set: (CC-PVTZ AUX)
    Blend: CC-PVTZ-JKFIT
  @DF-UKS Final Energy:   -75.46646693447393
    Total Energy =                        -75.4664669344739281
    Molecular point group: c2h
  Basis Set: CC-PVTZ
    Blend: CC-PVTZ
  Basis Set: (CC-PVTZ AUX)
    Blend: CC-PVTZ-JKFIT

  -Total Gradient:
     Atom            X                  Y                   Z
    ------   -----------------  -----------------  -----------------
       1        0.000000000000    -0.000000071658    -0.000082482298
       2        0.000000000000     0.000000071658     0.000082482298

  Vibration                       6
  Freq [cm^-1]                2004.3704
  Irrep                           Ag
  Reduced mass [u]             12.0000
  Force const [mDyne/A]        28.4045

  IR activ [km/mol]             0.0000

  ==> Thermochemistry Components <==

  Entropy, S
    Electronic S                             2.755 [cal/(mol K)]       11.526 [J/(mol K)]       0.00439013 [mEh/K] (multiplicity = 4)
    Translational S                         35.464 [cal/(mol K)]      148.382 [J/(mol K)]       0.05651554 [mEh/K] (mol. weight = 24.0000 [u], P = 101325.00 [Pa])
    Rotational S                            10.022 [cal/(mol K)]       41.932 [J/(mol K)]       0.01597097 [mEh/K] (symmetry no. = 2)
    Vibrational S                            0.001 [cal/(mol K)]        0.006 [J/(mol K)]       0.00000213 [mEh/K]
  Total S                                   48.242 [cal/(mol K)]      201.845 [J/(mol K)]       0.07687876 [mEh/K]
  Correction S                               0.000 [cal/(mol K)]        0.000 [J/(mol K)]       0.00000000 [mEh/K]

  Constant volume heat capacity, Cv
    Electronic Cv                            0.000 [cal/(mol K)]        0.000 [J/(mol K)]       0.00000000 [mEh/K]
    Translational Cv                         2.981 [cal/(mol K)]       12.472 [J/(mol K)]       0.00475022 [mEh/K]
    Rotational Cv                            1.987 [cal/(mol K)]        8.314 [J/(mol K)]       0.00316681 [mEh/K]
    Vibrational Cv                           0.012 [cal/(mol K)]        0.049 [J/(mol K)]       0.00001867 [mEh/K]
  Total Cv                                   4.980 [cal/(mol K)]       20.835 [J/(mol K)]       0.00793569 [mEh/K]
  Correction Cv                              0.000 [cal/(mol K)]        0.000 [J/(mol K)]       0.00000000 [mEh/K]

  Constant pressure heat capacity, Cp
    Electronic Cp                            0.000 [cal/(mol K)]        0.000 [J/(mol K)]       0.00000000 [mEh/K]
    Translational Cp                         4.968 [cal/(mol K)]       20.786 [J/(mol K)]       0.00791703 [mEh/K]
    Rotational Cp                            1.987 [cal/(mol K)]        8.314 [J/(mol K)]       0.00316681 [mEh/K]
    Vibrational Cp                           0.012 [cal/(mol K)]        0.049 [J/(mol K)]       0.00001867 [mEh/K]
  Total Cp                                   6.967 [cal/(mol K)]       29.150 [J/(mol K)]       0.01110250 [mEh/K]
  Correction Cp                              0.000 [cal/(mol K)]        0.000 [J/(mol K)]       0.00000000 [mEh/K]

  ==> Thermochemistry Energy Analysis <==

  Raw electronic energy, E_e
  Total E_e, Electronic energy at well bottom                                           -75.46646693 [Eh]

  Zero-point vibrational energy, ZPVE = Sum_i omega_i / 2,  E_0 = E_e + ZPVE
    Vibrational ZPVE                         2.865 [kcal/mol]       11.989 [kJ/mol]       0.00456629 [Eh]        1002.185 [cm^-1]
  Correction ZPVE to E_e                     2.865 [kcal/mol]       11.989 [kJ/mol]       0.00456629 [Eh]        1002.185 [cm^-1]
  Total E_0, Enthalpy at 0 [K]                                                          -75.46190064 [Eh]
  *** Absolute enthalpy, not an enthalpy of formation ***

  Thermal (internal) energy, E (includes ZPVE and finite-temperature corrections)
    Electronic contrib to E beyond E_e       0.000 [kcal/mol]        0.000 [kJ/mol]       0.00000000 [Eh]
    Translational contrib to E               0.889 [kcal/mol]        3.718 [kJ/mol]       0.00141628 [Eh]
    Rotational contrib to E                  0.592 [kcal/mol]        2.479 [kJ/mol]       0.00094418 [Eh]
    Vibrational contrib to E                 2.866 [kcal/mol]       11.990 [kJ/mol]       0.00456687 [Eh]
  Correction E                               4.347 [kcal/mol]       18.188 [kJ/mol]       0.00692733 [Eh]
  Total E, Thermal (internal) energy at  298.15 [K]                                     -75.45953961 [Eh]

  Enthalpy, H_trans = E_trans + k_B * T = E_trans + P * V
    Electronic contrib to H beyond E_e       0.000 [kcal/mol]        0.000 [kJ/mol]       0.00000000 [Eh]
    Translational contrib to H               1.481 [kcal/mol]        6.197 [kJ/mol]       0.00236046 [Eh]
    Rotational contrib to H                  0.592 [kcal/mol]        2.479 [kJ/mol]       0.00094418 [Eh]
    Vibrational contrib to H                 2.866 [kcal/mol]       11.990 [kJ/mol]       0.00456687 [Eh]
  Correction H                               4.939 [kcal/mol]       20.667 [kJ/mol]       0.00787151 [Eh]
  Total H, Enthalpy at  298.15 [K]                                                      -75.45859542 [Eh]
  *** Absolute enthalpy, not an enthalpy of formation ***

  Gibbs free energy, G = H - T * S
    Electronic contrib to G beyond E_e      -0.821 [kcal/mol]       -3.437 [kJ/mol]      -0.00130892 [Eh]
    Translational contrib to G              -9.092 [kcal/mol]      -38.043 [kJ/mol]      -0.01448965 [Eh]
    Rotational contrib to G                 -2.396 [kcal/mol]      -10.023 [kJ/mol]      -0.00381756 [Eh]
    Vibrational contrib to G                 2.865 [kcal/mol]       11.989 [kJ/mol]       0.00456623 [Eh]
  Correction G                              -9.444 [kcal/mol]      -39.513 [kJ/mol]      -0.01504989 [Eh]
  Total G, Gibbs energy at  298.15 [K]                                                  -75.48151683 [Eh]

    Molecular point group: d2h

    Geometry (in Angstrom), charge = 1, multiplicity = 4:

       Center              X                  Y                   Z               Mass
    ------------   -----------------  -----------------  -----------------  -----------------
         C            0.000000000000     0.000000000000    -0.621676098962    12.000000000000
         C            0.000000000000     0.000000000000     0.621676098962    12.000000000000

  Charge       = 1
  Multiplicity = 4
  Basis Set: CC-PVTZ
    Blend: CC-PVTZ
  Basis Set: (CC-PVTZ AUX)
    Blend: CC-PVTZ-JKFIT

    Irrep   Nso     Nmo     Nalpha   Nbeta   Ndocc  Nsocc

    Orbital Energies [Eh]
    ---------------------

    Alpha Occupied:

       1Ag   -10.693161     1B1u  -10.691241     2Ag    -1.203500
       2B1u   -0.835843     3Ag    -0.747026     1B3u   -0.742077
       1B2u   -0.704525

    Alpha Virtual:

       1B2g   -0.389271     1B3g   -0.359484     3B1u   -0.047218
       2B3u   -0.007104     2B2u    0.004714     4Ag     0.017590
       5Ag     0.026739     2B2g    0.105670     2B3g    0.114928
       4B1u    0.163909     1B1g    0.231395     6Ag     0.232027
       5B1u    0.366260     3B3u    0.399846     3B2u    0.423382
       1Au     0.541053     6B1u    0.541261     3B2g    0.816286
       7Ag     0.824649     3B3g    0.830322     7B1u    1.034742
       4B3u    1.529641     4B2u    1.556145     8Ag     1.675141
       4B2g    1.800558     4B3g    1.828732     8B1u    1.961098
       2B1g    2.040733     9Ag     2.041536     5B3u    2.076582
       5B2u    2.107779     6B3u    2.112660     6B2u    2.113297
      10Ag     2.314507     5B2g    2.494582     5B3g    2.494969
      11Ag     2.522277     3B1g    2.522411     6B2g    2.581267
       6B3g    2.600844     9B1u    2.615578     2Au     2.616402
      10B1u    2.883976     7B3u    3.041253     7B2u    3.067411
       3Au     3.122937    11B1u    3.123493    12Ag     3.236110
      12B1u    3.594953     7B2g    4.202672     7B3g    4.232376
      13Ag     4.411653    13B1u   12.170999

    Beta Occupied:

       1Ag   -10.659789     1B1u  -10.658188     2Ag    -1.121895
       1B2u   -0.662159

    Beta Virtual:

       2B1u   -0.584746     1B3u   -0.553399     3Ag    -0.493177
       1B3g   -0.295830     1B2g   -0.257382     3B1u   -0.019048
       2B2u    0.012421     2B3u    0.023600     4Ag     0.044580
       5Ag     0.091153     2B3g    0.128544     2B2g    0.143671
       1B1g    0.266331     6Ag     0.271031     4B1u    0.272442
       5B1u    0.400152     3B2u    0.474943     3B3u    0.491224
       1Au     0.580036     6B1u    0.586428     3B3g    0.866862
       3B2g    0.881653     7Ag     0.902198     7B1u    1.102808
       4B2u    1.581461     4B3u    1.597670     8Ag     1.739698
       4B3g    1.855937     4B2g    1.868864     8B1u    2.055355
       2B1g    2.093561     9Ag     2.100487     5B2u    2.161125
       6B2u    2.166573     5B3u    2.169070     6B3u    2.184040
      10Ag     2.455347     5B3g    2.553258     5B2g    2.557365
       3B1g    2.612660    11Ag     2.624529     2Au     2.700630
       6B3g    2.705827     9B1u    2.711365     6B2g    2.742608
      10B1u    3.014145     7B2u    3.161165     7B3u    3.191924
       3Au     3.191996    11B1u    3.202892    12Ag     3.328557
      12B1u    3.693916     7B3g    4.287687     7B2g    4.311796
      13Ag     4.478756    13B1u   12.223689

    Final Occupation by Irrep:
             Ag   B1g   B2g   B3g    Au   B1u   B2u   B3u
    DOCC [     2,    0,    0,    0,    0,    1,    1,    0 ]
    SOCC [     1,    0,    0,    0,    0,    1,    0,    1 ]
    NA   [     3,    0,    0,    0,    0,    2,    1,    1 ]
    NB   [     2,    0,    0,    0,    0,    1,    1,    0 ]

  @DF-UKS Final Energy:   -75.46646693455071

   => Energetics <=

    Nuclear Repulsion Energy =             15.3217886419605627
    One-Electron Energy =                -126.8308243207166299
    Two-Electron Energy =                  44.4017611779600614
    DFT Exchange-Correlation Energy =      -8.3591924337547070
    Empirical Dispersion Energy =           0.0000000000000000
    VV10 Nonlocal Energy =                  0.0000000000000000
    Total Energy =                        -75.4664669345507093

  UHF NO Occupations:
  HONO-2 :    2B1u 1.0000000
  HONO-1 :    1B3u 1.0000000
  HONO-0 :    3 Ag 1.0000000
  LUNO+0 :    2B2u 0.0007491
  LUNO+1 :    4 Ag 0.0005023
  LUNO+2 :    3B1u 0.0000009
  LUNO+3 :    5 Ag 0.0000005

Computation Completed

Properties will be evaluated at   0.000000,   0.000000,   0.000000 [a0]

Properties computed using the B3LYP density matrix

 Multipole Moments:

 ------------------------------------------------------------------------------------
     Multipole            Electronic (a.u.)      Nuclear  (a.u.)        Total (a.u.)
 ------------------------------------------------------------------------------------

 L = 1.  Multiply by 2.5417464519 to convert [e a0] to [Debye]
 Dipole X            :          0.0000000            0.0000000            0.0000000
 Dipole Y            :          0.0000000            0.0000000            0.0000000
 Dipole Z            :          0.0000000           -0.0000000           -0.0000000
 Magnitude           :                                                    0.0000000

 L = 2.  Multiply by 1.3450342976 to convert [e a0^2] to [Debye ang]
 Quadrupole XX       :         -5.8788824            0.0000000           -5.8788824
 Quadrupole XY       :          0.0000000            0.0000000            0.0000000
 Quadrupole XZ       :          0.0000000            0.0000000            0.0000000
 Quadrupole YY       :         -7.0900789            0.0000000           -7.0900789
 Quadrupole YZ       :          0.0000000            0.0000000            0.0000000
 Quadrupole ZZ       :        -20.2016054           16.5617918           -3.6398135
 Traceless XX        :          5.1779731           -5.5205973           -0.3426242
 Traceless YY        :          3.9667767           -5.5205973           -1.5538206
 Traceless ZZ        :         -9.1447498           11.0411946            1.8964448

 ------------------------------------------------------------------------------------
  Mulliken Charges: (a.u.)
   Center  Symbol    Alpha    Beta     Spin     Total
       1     C     3.50000  2.00000  1.50000  0.50000
       2     C     3.50000  2.00000  1.50000  0.50000

   Total alpha =  7.00000, Total beta =  4.00000, Total charge =  1.00000

*** tstop() called on Mac.lan at Sun Aug 10 18:14:46 2025
Module time:
	user time   =      18.00 seconds =       0.30 minutes
	system time =       1.37 seconds =       0.02 minutes
	total time  =          1 seconds =       0.02 minutes
Total time:
	user time   =     165.97 seconds =       2.77 minutes
	system time =      18.65 seconds =       0.31 minutes
	total time  =         18 seconds =       0.30 minutes

    Psi4 stopped on: Sunday, 10 August 2025 06:14PM
    Psi4 wall time for execution: 0:00:18.79

*** Psi4 exiting successfully. Buy a developer a beer!
