                               Psi4 1.9.1 release

  ==> Input File <==

--------------------------------------------------------------------------
molecule {
1 3
O           0.000000           0.000000           0.000000
H           0.000000           0.000000           1.048168
}

set {
basis              cc-pvtz
reference          uks
maxiter            500
DAMPING_PERCENTAGE 1
E_CONVERGENCE      1.0E-8
D_CONVERGENCE      1.0E-8
DIIS_MAX_VECS      400
MBIS_MAXITER       8000
guess              SAP
}

E, wfn = optimize('b3lyp', return_wfn=True)
frequencies('b3lyp', wfn=wfn, return_wfn=True)
properties('b3lyp','MULLIKEN_CHARGES', wfn=wfn)
--------------------------------------------------------------------------

    Molecular point group: c2v
  Charge       = 1
  Multiplicity = 3
  Basis Set: CC-PVTZ
    Blend: CC-PVTZ
  Basis Set: (CC-PVTZ AUX)
    Blend: CC-PVTZ-JKFIT
  @DF-UKS Final Energy:   -75.28112293778349
    Total Energy =                        -75.2811229377834934
 Dipole X            :          0.0000000            0.0000000            0.0000000
 Dipole Y            :          0.0000000            0.0000000            0.0000000
 Dipole Z            :         -0.0108440            0.9240826            0.9132386
 Magnitude           :                                                    0.9132386
    Molecular point group: c2v
  Basis Set: CC-PVTZ
    Blend: CC-PVTZ
  Basis Set: (CC-PVTZ AUX)
    Blend: CC-PVTZ-JKFIT
  Basis Set: CC-PVTZ
    Blend: CC-PVTZ
  Basis Set: (CC-PVTZ AUX)
    Blend: CC-PVTZ-JKFIT
  @DF-UKS Final Energy:   -75.28117596616055
    Total Energy =                        -75.2811759661605464
  Basis Set: CC-PVTZ
    Blend: CC-PVTZ
  Basis Set: (CC-PVTZ AUX)
    Blend: CC-PVTZ-JKFIT
  Basis Set: CC-PVTZ
    Blend: CC-PVTZ
  @DF-UKS Final Energy:   -75.28117824535505
    Total Energy =                        -75.2811782453550649
    Final optimized geometry and variables:
                               Psi4 1.9.1 release
  @DF-UKS Final Energy:   -75.28117824493445
    Total Energy =                        -75.2811782449344520
                               Psi4 1.9.1 release
  @DF-UKS Final Energy:   -75.28117411574064
    Total Energy =                        -75.2811741157406402
                               Psi4 1.9.1 release
  @DF-UKS Final Energy:   -75.28117362975424
    Total Energy =                        -75.2811736297542353
                               Psi4 1.9.1 release
    Blend: CC-PVTZ-JKFIT
  @DF-UKS Final Energy:   -75.28117824521105
    Total Energy =                        -75.2811782452110521
  Basis Set: CC-PVTZ
    Blend: CC-PVTZ
  Basis Set: (CC-PVTZ AUX)
    Blend: CC-PVTZ-JKFIT
                               Psi4 1.9.1 release
  Basis Set: CC-PVTZ
    Blend: CC-PVTZ
  Basis Set: (CC-PVTZ AUX)
    Blend: CC-PVTZ-JKFIT
  @DF-UKS Final Energy:   -75.28117824521041
    Total Energy =                        -75.2811782452104126
    Molecular point group: cs
  Basis Set: CC-PVTZ
    Blend: CC-PVTZ
  Basis Set: (CC-PVTZ AUX)
    Blend: CC-PVTZ-JKFIT

  -Total Gradient:
     Atom            X                  Y                   Z
    ------   -----------------  -----------------  -----------------
       1        0.000000000000     0.000000104299     0.000039853496
       2        0.000000000000    -0.000000103432    -0.000039522091

  Vibration                       6
  Freq [cm^-1]                3040.2085
  Irrep                           A1
  Reduced mass [u]              1.0671
  Force const [mDyne/A]         5.8111

  IR activ [km/mol]            269.0413

  ==> Thermochemistry Components <==

  Entropy, S
    Electronic S                             2.183 [cal/(mol K)]        9.134 [J/(mol K)]       0.00347910 [mEh/K] (multiplicity = 3)
    Translational S                         34.437 [cal/(mol K)]      144.083 [J/(mol K)]       0.05487824 [mEh/K] (mol. weight = 17.0027 [u], P = 101325.00 [Pa])
    Rotational S                             7.017 [cal/(mol K)]       29.358 [J/(mol K)]       0.01118172 [mEh/K] (symmetry no. = 1)
    Vibrational S                            0.000 [cal/(mol K)]        0.000 [J/(mol K)]       0.00000002 [mEh/K]
  Total S                                   43.636 [cal/(mol K)]      182.575 [J/(mol K)]       0.06953908 [mEh/K]
  Correction S                               0.000 [cal/(mol K)]        0.000 [J/(mol K)]       0.00000000 [mEh/K]

  Constant volume heat capacity, Cv
    Electronic Cv                            0.000 [cal/(mol K)]        0.000 [J/(mol K)]       0.00000000 [mEh/K]
    Translational Cv                         2.981 [cal/(mol K)]       12.472 [J/(mol K)]       0.00475022 [mEh/K]
    Rotational Cv                            1.987 [cal/(mol K)]        8.314 [J/(mol K)]       0.00316681 [mEh/K]
    Vibrational Cv                           0.000 [cal/(mol K)]        0.001 [J/(mol K)]       0.00000029 [mEh/K]
  Total Cv                                   4.968 [cal/(mol K)]       20.787 [J/(mol K)]       0.00791732 [mEh/K]
  Correction Cv                              0.000 [cal/(mol K)]        0.000 [J/(mol K)]       0.00000000 [mEh/K]

  Constant pressure heat capacity, Cp
    Electronic Cp                            0.000 [cal/(mol K)]        0.000 [J/(mol K)]       0.00000000 [mEh/K]
    Translational Cp                         4.968 [cal/(mol K)]       20.786 [J/(mol K)]       0.00791703 [mEh/K]
    Rotational Cp                            1.987 [cal/(mol K)]        8.314 [J/(mol K)]       0.00316681 [mEh/K]
    Vibrational Cp                           0.000 [cal/(mol K)]        0.001 [J/(mol K)]       0.00000029 [mEh/K]
  Total Cp                                   6.955 [cal/(mol K)]       29.101 [J/(mol K)]       0.01108413 [mEh/K]
  Correction Cp                              0.000 [cal/(mol K)]        0.000 [J/(mol K)]       0.00000000 [mEh/K]

  ==> Thermochemistry Energy Analysis <==

  Raw electronic energy, E_e
  Total E_e, Electronic energy at well bottom                                           -75.28117824 [Eh]

  Zero-point vibrational energy, ZPVE = Sum_i omega_i / 2,  E_0 = E_e + ZPVE
    Vibrational ZPVE                         4.346 [kcal/mol]       18.184 [kJ/mol]       0.00692610 [Eh]        1520.104 [cm^-1]
  Correction ZPVE to E_e                     4.346 [kcal/mol]       18.184 [kJ/mol]       0.00692610 [Eh]        1520.104 [cm^-1]
  Total E_0, Enthalpy at 0 [K]                                                          -75.27425214 [Eh]
  *** Absolute enthalpy, not an enthalpy of formation ***

  Thermal (internal) energy, E (includes ZPVE and finite-temperature corrections)
    Electronic contrib to E beyond E_e       0.000 [kcal/mol]        0.000 [kJ/mol]       0.00000000 [Eh]
    Translational contrib to E               0.889 [kcal/mol]        3.718 [kJ/mol]       0.00141628 [Eh]
    Rotational contrib to E                  0.592 [kcal/mol]        2.479 [kJ/mol]       0.00094418 [Eh]
    Vibrational contrib to E                 4.346 [kcal/mol]       18.185 [kJ/mol]       0.00692611 [Eh]
  Correction E                               5.827 [kcal/mol]       24.382 [kJ/mol]       0.00928657 [Eh]
  Total E, Thermal (internal) energy at  298.15 [K]                                     -75.27189167 [Eh]

  Enthalpy, H_trans = E_trans + k_B * T = E_trans + P * V
    Electronic contrib to H beyond E_e       0.000 [kcal/mol]        0.000 [kJ/mol]       0.00000000 [Eh]
    Translational contrib to H               1.481 [kcal/mol]        6.197 [kJ/mol]       0.00236046 [Eh]
    Rotational contrib to H                  0.592 [kcal/mol]        2.479 [kJ/mol]       0.00094418 [Eh]
    Vibrational contrib to H                 4.346 [kcal/mol]       18.185 [kJ/mol]       0.00692611 [Eh]
  Correction H                               6.420 [kcal/mol]       26.861 [kJ/mol]       0.01023076 [Eh]
  Total H, Enthalpy at  298.15 [K]                                                      -75.27094749 [Eh]
  *** Absolute enthalpy, not an enthalpy of formation ***

  Gibbs free energy, G = H - T * S
    Electronic contrib to G beyond E_e      -0.651 [kcal/mol]       -2.723 [kJ/mol]      -0.00103729 [Eh]
    Translational contrib to G              -8.786 [kcal/mol]      -36.761 [kJ/mol]      -0.01400148 [Eh]
    Rotational contrib to G                 -1.500 [kcal/mol]       -6.274 [kJ/mol]      -0.00238965 [Eh]
    Vibrational contrib to G                 4.346 [kcal/mol]       18.184 [kJ/mol]       0.00692610 [Eh]
  Correction G                              -6.590 [kcal/mol]      -27.574 [kJ/mol]      -0.01050232 [Eh]
  Total G, Gibbs energy at  298.15 [K]                                                  -75.29168056 [Eh]

    Molecular point group: c2v

    Geometry (in Angstrom), charge = 1, multiplicity = 3:

       Center              X                  Y                   Z               Mass
    ------------   -----------------  -----------------  -----------------  -----------------
         O            0.000000000000     0.000000000000    -0.061545995791    15.994914619570
         H            0.000000000000     0.000000000000     0.976779615870     1.007825032230

  Charge       = 1
  Multiplicity = 3
  Basis Set: CC-PVTZ
    Blend: CC-PVTZ
  Basis Set: (CC-PVTZ AUX)
    Blend: CC-PVTZ-JKFIT

    Irrep   Nso     Nmo     Nalpha   Nbeta   Ndocc  Nsocc

    Orbital Energies [Eh]
    ---------------------

    Alpha Occupied:

       1A1   -19.817347     2A1    -1.563037     3A1    -0.977833
       1B2    -0.946671     1B1    -0.946671

    Alpha Virtual:

       4A1    -0.325306     5A1    -0.008162     2B2     0.133970
       2B1     0.133970     6A1     0.172720     3B1     0.322645
       3B2     0.322645     7A1     0.481363     8A1     0.803921
       1A2     0.924690     9A1     0.924690     4B1     1.257618
       4B2     1.257618    10A1     1.519607    11A1     1.945098
      12A1     2.749038     2A2     2.749038     5B1     2.791270
       5B2     2.791270    13A1     3.142794     6B1     3.168079
       6B2     3.168079     7B1     3.519010     7B2     3.519010
      14A1     3.664857    15A1     4.225678     8B2     4.503749
       8B1     4.503749    16A1     4.733307     3A2     4.733307
       4A2     5.530398    17A1     5.530399     9B1     5.569752
       9B2     5.569752    18A1     5.702707    10B1     5.978745
      10B2     5.978745    19A1     6.340597    20A1     9.048613

    Beta Occupied:

       1A1   -19.761062     2A1    -1.409141     3A1    -0.924345

    Beta Virtual:

       1B2    -0.643872     1B1    -0.643872     4A1    -0.308583
       5A1    -0.002238     6A1     0.186951     2B2     0.200093
       2B1     0.200093     3B1     0.337441     3B2     0.337441
       7A1     0.536437     8A1     0.819145     9A1     1.036511
       1A2     1.036511     4B1     1.311470     4B2     1.311470
      10A1     1.548445    11A1     1.950740    12A1     2.755245
       2A2     2.755246     5B1     2.866416     5B2     2.866416
      13A1     3.154572     6B1     3.210608     6B2     3.210608
       7B1     3.562438     7B2     3.562438    14A1     3.699157
      15A1     4.281999     8B2     4.655856     8B1     4.655856
      16A1     4.830410     3A2     4.830410     9B1     5.664483
       9B2     5.664483     4A2     5.743321    17A1     5.743322
      18A1     5.754690    10B1     6.056814    10B2     6.056814
      19A1     6.407754    20A1     9.122212

    Final Occupation by Irrep:
             A1    A2    B1    B2
    DOCC [     3,    0,    0,    0 ]
    SOCC [     0,    0,    1,    1 ]
    NA   [     3,    0,    1,    1 ]
    NB   [     3,    0,    0,    0 ]

  @DF-UKS Final Energy:   -75.28117824493445

   => Energetics <=

    Nuclear Repulsion Energy =              4.0771581070704048
    One-Electron Energy =                -107.4357786302756210
    Two-Electron Energy =                  34.9430437535150489
    DFT Exchange-Correlation Energy =      -6.8656014752442740
    Empirical Dispersion Energy =           0.0000000000000000
    VV10 Nonlocal Energy =                  0.0000000000000000
    Total Energy =                        -75.2811782449344520

  UHF NO Occupations:
  HONO-2 :    3 A1 1.9981302
  HONO-1 :    1 B2 1.0000000
  HONO-0 :    1 B1 1.0000000
  LUNO+0 :    4 A1 0.0018698
  LUNO+1 :    5 A1 0.0006642
  LUNO+2 :    6 A1 0.0000014
  LUNO+3 :    7 A1 0.0000000

Computation Completed

Properties will be evaluated at   0.000000,   0.000000,   0.000000 [a0]

Properties computed using the B3LYP density matrix

 Multipole Moments:

 ------------------------------------------------------------------------------------
     Multipole            Electronic (a.u.)      Nuclear  (a.u.)        Total (a.u.)
 ------------------------------------------------------------------------------------

 L = 1.  Multiply by 2.5417464519 to convert [e a0] to [Debye]
 Dipole X            :          0.0000000            0.0000000            0.0000000
 Dipole Y            :          0.0000000            0.0000000            0.0000000
 Dipole Z            :         -0.0117270            0.9154053            0.9036783
 Magnitude           :                                                    0.9036783

 L = 2.  Multiply by 1.3450342976 to convert [e a0^2] to [Debye ang]
 Quadrupole XX       :         -3.0451173            0.0000000           -3.0451173
 Quadrupole XY       :          0.0000000            0.0000000            0.0000000
 Quadrupole XZ       :          0.0000000            0.0000000            0.0000000
 Quadrupole YY       :         -3.0451173            0.0000000           -3.0451173
 Quadrupole YZ       :          0.0000000            0.0000000            0.0000000
 Quadrupole ZZ       :         -5.0184708            3.5153623           -1.5031086
 Traceless XX        :          0.6577845           -1.1717874           -0.5140029
 Traceless YY        :          0.6577845           -1.1717874           -0.5140029
 Traceless ZZ        :         -1.3155691            2.3435748            1.0280058

 ------------------------------------------------------------------------------------
  Mulliken Charges: (a.u.)
   Center  Symbol    Alpha    Beta     Spin     Total
       1     O     4.71959  2.68839  2.03120  0.59201
       2     H     0.28041  0.31161 -0.03120  0.40799

   Total alpha =  5.00000, Total beta =  3.00000, Total charge =  1.00000

*** tstop() called on Mac.lan at Sun Aug 10 18:28:14 2025
Module time:
	user time   =      10.67 seconds =       0.18 minutes
	system time =       1.15 seconds =       0.02 minutes
	total time  =          1 seconds =       0.02 minutes
Total time:
	user time   =     116.24 seconds =       1.94 minutes
	system time =      11.57 seconds =       0.19 minutes
	total time  =         13 seconds =       0.22 minutes

    Psi4 stopped on: Sunday, 10 August 2025 06:28PM
    Psi4 wall time for execution: 0:00:12.88

*** Psi4 exiting successfully. Buy a developer a beer!
