                               Psi4 1.9.1 release

  ==> Input File <==

--------------------------------------------------------------------------
molecule {
1 3
N           0.000000           0.000000           0.000000
C           0.000000           0.000000           1.242755
}

set {
basis              cc-pvtz
reference          uks
maxiter            500
DAMPING_PERCENTAGE 1
E_CONVERGENCE      1.0E-8
D_CONVERGENCE      1.0E-8
DIIS_MAX_VECS      400
MBIS_MAXITER       8000
guess              SAP
}

E, wfn = optimize('b3lyp', return_wfn=True)
frequencies('b3lyp', wfn=wfn, return_wfn=True)
properties('b3lyp','MULLIKEN_CHARGES', wfn=wfn)
--------------------------------------------------------------------------

    Molecular point group: c2v
  Charge       = 1
  Multiplicity = 3
  Basis Set: CC-PVTZ
    Blend: CC-PVTZ
  Basis Set: (CC-PVTZ AUX)
    Blend: CC-PVTZ-JKFIT
  @DF-UKS Final Energy:   -92.23021779960504
    Total Energy =                        -92.2302177996050432
 Dipole X            :          0.0000000            0.0000000            0.0000000
 Dipole Y            :          0.0000000            0.0000000            0.0000000
 Dipole Z            :          0.7151788            0.0016658            0.7168445
 Magnitude           :                                                    0.7168445
    Molecular point group: c2v
  Basis Set: CC-PVTZ
    Blend: CC-PVTZ
  Basis Set: (CC-PVTZ AUX)
    Blend: CC-PVTZ-JKFIT
  Basis Set: CC-PVTZ
    Blend: CC-PVTZ
  Basis Set: (CC-PVTZ AUX)
    Blend: CC-PVTZ-JKFIT
  @DF-UKS Final Energy:   -92.23038453222466
    Total Energy =                        -92.2303845322246616
  Basis Set: CC-PVTZ
    Blend: CC-PVTZ
  Basis Set: (CC-PVTZ AUX)
    Blend: CC-PVTZ-JKFIT
  Basis Set: CC-PVTZ
    Blend: CC-PVTZ
  @DF-UKS Final Energy:   -92.23038713790315
    Total Energy =                        -92.2303871379031506
    Final optimized geometry and variables:
                               Psi4 1.9.1 release
  @DF-UKS Final Energy:   -92.23038713809520
    Total Energy =                        -92.2303871380951961
                               Psi4 1.9.1 release
  @DF-UKS Final Energy:   -92.23038578153823
    Total Energy =                        -92.2303857815382315
                               Psi4 1.9.1 release
  @DF-UKS Final Energy:   -92.23038545649987
    Total Energy =                        -92.2303854564998744
                               Psi4 1.9.1 release
    Blend: CC-PVTZ-JKFIT
  @DF-UKS Final Energy:   -92.23038714193420
    Total Energy =                        -92.2303871419342016
  Basis Set: CC-PVTZ
    Blend: CC-PVTZ
  Basis Set: (CC-PVTZ AUX)
    Blend: CC-PVTZ-JKFIT
                               Psi4 1.9.1 release
  Basis Set: CC-PVTZ
    Blend: CC-PVTZ
  Basis Set: (CC-PVTZ AUX)
    Blend: CC-PVTZ-JKFIT
  @DF-UKS Final Energy:   -92.23038713787948
    Total Energy =                        -92.2303871378794611
    Molecular point group: cs
  Basis Set: CC-PVTZ
    Blend: CC-PVTZ
  Basis Set: (CC-PVTZ AUX)
    Blend: CC-PVTZ-JKFIT

  -Total Gradient:
     Atom            X                  Y                   Z
    ------   -----------------  -----------------  -----------------
       1        0.000000000000     0.000000069290     0.000081987489
       2        0.000000000000    -0.000000068368    -0.000080896283

  Vibration                       6
  Freq [cm^-1]                1792.0142
  Irrep                           A1
  Reduced mass [u]             12.8481
  Force const [mDyne/A]        24.3094

  IR activ [km/mol]            13.1521

  ==> Thermochemistry Components <==

  Entropy, S
    Electronic S                             2.183 [cal/(mol K)]        9.134 [J/(mol K)]       0.00347910 [mEh/K] (multiplicity = 3)
    Translational S                         35.703 [cal/(mol K)]      149.381 [J/(mol K)]       0.05689632 [mEh/K] (mol. weight = 26.0031 [u], P = 101325.00 [Pa])
    Rotational S                            11.509 [cal/(mol K)]       48.154 [J/(mol K)]       0.01834070 [mEh/K] (symmetry no. = 1)
    Vibrational S                            0.003 [cal/(mol K)]        0.014 [J/(mol K)]       0.00000536 [mEh/K]
  Total S                                   49.398 [cal/(mol K)]      206.683 [J/(mol K)]       0.07872148 [mEh/K]
  Correction S                               0.000 [cal/(mol K)]        0.000 [J/(mol K)]       0.00000000 [mEh/K]

  Constant volume heat capacity, Cv
    Electronic Cv                            0.000 [cal/(mol K)]        0.000 [J/(mol K)]       0.00000000 [mEh/K]
    Translational Cv                         2.981 [cal/(mol K)]       12.472 [J/(mol K)]       0.00475022 [mEh/K]
    Rotational Cv                            1.987 [cal/(mol K)]        8.314 [J/(mol K)]       0.00316681 [mEh/K]
    Vibrational Cv                           0.026 [cal/(mol K)]        0.109 [J/(mol K)]       0.00004158 [mEh/K]
  Total Cv                                   4.994 [cal/(mol K)]       20.895 [J/(mol K)]       0.00795861 [mEh/K]
  Correction Cv                              0.000 [cal/(mol K)]        0.000 [J/(mol K)]       0.00000000 [mEh/K]

  Constant pressure heat capacity, Cp
    Electronic Cp                            0.000 [cal/(mol K)]        0.000 [J/(mol K)]       0.00000000 [mEh/K]
    Translational Cp                         4.968 [cal/(mol K)]       20.786 [J/(mol K)]       0.00791703 [mEh/K]
    Rotational Cp                            1.987 [cal/(mol K)]        8.314 [J/(mol K)]       0.00316681 [mEh/K]
    Vibrational Cp                           0.026 [cal/(mol K)]        0.109 [J/(mol K)]       0.00004158 [mEh/K]
  Total Cp                                   6.981 [cal/(mol K)]       29.210 [J/(mol K)]       0.01112542 [mEh/K]
  Correction Cp                              0.000 [cal/(mol K)]        0.000 [J/(mol K)]       0.00000000 [mEh/K]

  ==> Thermochemistry Energy Analysis <==

  Raw electronic energy, E_e
  Total E_e, Electronic energy at well bottom                                           -92.23038714 [Eh]

  Zero-point vibrational energy, ZPVE = Sum_i omega_i / 2,  E_0 = E_e + ZPVE
    Vibrational ZPVE                         2.562 [kcal/mol]       10.719 [kJ/mol]       0.00408251 [Eh]         896.007 [cm^-1]
  Correction ZPVE to E_e                     2.562 [kcal/mol]       10.719 [kJ/mol]       0.00408251 [Eh]         896.007 [cm^-1]
  Total E_0, Enthalpy at 0 [K]                                                          -92.22630463 [Eh]
  *** Absolute enthalpy, not an enthalpy of formation ***

  Thermal (internal) energy, E (includes ZPVE and finite-temperature corrections)
    Electronic contrib to E beyond E_e       0.000 [kcal/mol]        0.000 [kJ/mol]       0.00000000 [Eh]
    Translational contrib to E               0.889 [kcal/mol]        3.718 [kJ/mol]       0.00141628 [Eh]
    Rotational contrib to E                  0.592 [kcal/mol]        2.479 [kJ/mol]       0.00094418 [Eh]
    Vibrational contrib to E                 2.563 [kcal/mol]       10.722 [kJ/mol]       0.00408394 [Eh]
  Correction E                               4.044 [kcal/mol]       16.920 [kJ/mol]       0.00644440 [Eh]
  Total E, Thermal (internal) energy at  298.15 [K]                                     -92.22394273 [Eh]

  Enthalpy, H_trans = E_trans + k_B * T = E_trans + P * V
    Electronic contrib to H beyond E_e       0.000 [kcal/mol]        0.000 [kJ/mol]       0.00000000 [Eh]
    Translational contrib to H               1.481 [kcal/mol]        6.197 [kJ/mol]       0.00236046 [Eh]
    Rotational contrib to H                  0.592 [kcal/mol]        2.479 [kJ/mol]       0.00094418 [Eh]
    Vibrational contrib to H                 2.563 [kcal/mol]       10.722 [kJ/mol]       0.00408394 [Eh]
  Correction H                               4.636 [kcal/mol]       19.399 [kJ/mol]       0.00738859 [Eh]
  Total H, Enthalpy at  298.15 [K]                                                      -92.22299855 [Eh]
  *** Absolute enthalpy, not an enthalpy of formation ***

  Gibbs free energy, G = H - T * S
    Electronic contrib to G beyond E_e      -0.651 [kcal/mol]       -2.723 [kJ/mol]      -0.00103729 [Eh]
    Translational contrib to G              -9.164 [kcal/mol]      -38.341 [kJ/mol]      -0.01460318 [Eh]
    Rotational contrib to G                 -2.839 [kcal/mol]      -11.878 [kJ/mol]      -0.00452410 [Eh]
    Vibrational contrib to G                 2.562 [kcal/mol]       10.718 [kJ/mol]       0.00408234 [Eh]
  Correction G                             -10.092 [kcal/mol]      -42.224 [kJ/mol]      -0.01608222 [Eh]
  Total G, Gibbs energy at  298.15 [K]                                                  -92.24646936 [Eh]

    Molecular point group: c2v

    Geometry (in Angstrom), charge = 1, multiplicity = 3:

       Center              X                  Y                   Z               Mass
    ------------   -----------------  -----------------  -----------------  -----------------
         N            0.000000000000     0.000000000000    -0.568346618235    14.003074004430
         C            0.000000000000     0.000000000000     0.663216646276    12.000000000000

  Charge       = 1
  Multiplicity = 3
  Basis Set: CC-PVTZ
    Blend: CC-PVTZ
  Basis Set: (CC-PVTZ AUX)
    Blend: CC-PVTZ-JKFIT

    Irrep   Nso     Nmo     Nalpha   Nbeta   Ndocc  Nsocc

    Orbital Energies [Eh]
    ---------------------

    Alpha Occupied:

       1A1   -14.850817     2A1   -10.766825     3A1    -1.388599
       4A1    -0.904234     1B1    -0.821921     5A1    -0.795954
       1B2    -0.779032

    Alpha Virtual:

       2B1    -0.449642     2B2    -0.416711     6A1    -0.104774
       3B1    -0.006924     7A1     0.000608     3B2     0.003239
       8A1     0.121721     9A1     0.158016     4B1     0.201002
       4B2     0.218740     1A2     0.268295    10A1     0.268800
       5B1     0.437397     5B2     0.459703    11A1     0.560701
       2A2     0.773979    12A1     0.774592    13A1     0.844258
       6B1     1.123566     6B2     1.146154    14A1     1.370419
       7B1     1.566058     7B2     1.587405    15A1     1.772126
       8B1     2.223273     8B2     2.223408    16A1     2.272879
       3A2     2.273306     9B1     2.311282     9B2     2.341746
      17A1     2.385111    10B1     2.473409    18A1     2.498650
       4A2     2.498899    10B2     2.504300    19A1     2.644898
      11B1     2.950011    11B2     2.977758    20A1     3.305220
      12B1     3.486206    12B2     3.486358    21A1     3.875269
       5A2     3.875372     6A2     4.091367    22A1     4.091482
      13B1     4.308242    13B2     4.345635    23A1     4.428387
      24A1     4.902830    14B1     4.934187    14B2     4.966027
      25A1     5.189586    26A1    10.929995

    Beta Occupied:

       1A1   -14.833331     2A1   -10.742458     3A1    -1.320877
       4A1    -0.812975     1B2    -0.757096

    Beta Virtual:

       1B1    -0.642124     5A1    -0.609751     2B2    -0.380717
       2B1    -0.345886     6A1    -0.083942     3B2     0.011348
       3B1     0.017768     7A1     0.038216     8A1     0.151258
       9A1     0.210838     4B2     0.222899     4B1     0.232719
       1A2     0.300185    10A1     0.302568     5B2     0.494376
       5B1     0.499601    11A1     0.583602     2A2     0.805203
      12A1     0.807930    13A1     0.893942     6B2     1.165972
       6B1     1.170979    14A1     1.406559     7B2     1.607737
       7B1     1.616102    15A1     1.837086     8B2     2.268665
       8B1     2.269736     3A2     2.317599    16A1     2.320449
       9B2     2.372750     9B1     2.389792    17A1     2.442591
      10B2     2.554080    10B1     2.569458     4A2     2.569741
      18A1     2.574660    19A1     2.735199    11B2     3.024871
      11B1     3.033637    20A1     3.363879    12B2     3.527351
      12B1     3.528682     5A2     3.923525    21A1     3.929217
       6A2     4.137794    22A1     4.142710    13B2     4.371814
      13B1     4.388602    23A1     4.481413    24A1     4.947022
      14B2     4.993828    14B1     5.002150    25A1     5.222119
      26A1    10.967172

    Final Occupation by Irrep:
             A1    A2    B1    B2
    DOCC [     4,    0,    0,    1 ]
    SOCC [     1,    0,    1,    0 ]
    NA   [     5,    0,    1,    1 ]
    NB   [     4,    0,    0,    1 ]

  @DF-UKS Final Energy:   -92.23038713809520

   => Energetics <=

    Nuclear Repulsion Energy =             18.0465295519991855
    One-Electron Energy =                -154.9220232196265101
    Two-Electron Energy =                  54.1620453344648851
    DFT Exchange-Correlation Energy =      -9.5169388049327583
    Empirical Dispersion Energy =           0.0000000000000000
    VV10 Nonlocal Energy =                  0.0000000000000000
    Total Energy =                        -92.2303871380951961

  UHF NO Occupations:
  HONO-2 :    1 B2 1.9985972
  HONO-1 :    5 A1 1.0000000
  HONO-0 :    1 B1 1.0000000
  LUNO+0 :    2 B2 0.0014028
  LUNO+1 :    6 A1 0.0008937
  LUNO+2 :    7 A1 0.0002930
  LUNO+3 :    8 A1 0.0000005

Computation Completed

Properties will be evaluated at   0.000000,   0.000000,   0.000000 [a0]

Properties computed using the B3LYP density matrix

 Multipole Moments:

 ------------------------------------------------------------------------------------
     Multipole            Electronic (a.u.)      Nuclear  (a.u.)        Total (a.u.)
 ------------------------------------------------------------------------------------

 L = 1.  Multiply by 2.5417464519 to convert [e a0] to [Debye]
 Dipole X            :          0.0000000            0.0000000            0.0000000
 Dipole Y            :          0.0000000            0.0000000            0.0000000
 Dipole Z            :          0.7214137            0.0016508            0.7230645
 Magnitude           :                                                    0.7230645

 L = 2.  Multiply by 1.3450342976 to convert [e a0^2] to [Debye ang]
 Quadrupole XX       :         -5.7117981            0.0000000           -5.7117981
 Quadrupole XY       :          0.0000000            0.0000000            0.0000000
 Quadrupole XZ       :          0.0000000            0.0000000            0.0000000
 Quadrupole YY       :         -6.7164017            0.0000000           -6.7164017
 Quadrupole YZ       :          0.0000000            0.0000000            0.0000000
 Quadrupole ZZ       :        -22.1573576           17.4991571           -4.6582005
 Traceless XX        :          5.8167210           -5.8330524           -0.0163313
 Traceless YY        :          4.8121174           -5.8330524           -1.0209349
 Traceless ZZ        :        -10.6288385           11.6661047            1.0372663

 ------------------------------------------------------------------------------------
  Mulliken Charges: (a.u.)
   Center  Symbol    Alpha    Beta     Spin     Total
       1     N     3.70988  2.92423  0.78565  0.36589
       2     C     3.29012  2.07577  1.21435  0.63411

   Total alpha =  7.00000, Total beta =  5.00000, Total charge =  1.00000

*** tstop() called on Mac.lan at Sun Aug 10 18:31:51 2025
Module time:
	user time   =      34.23 seconds =       0.57 minutes
	system time =       2.09 seconds =       0.03 minutes
	total time  =          4 seconds =       0.07 minutes
Total time:
	user time   =     443.25 seconds =       7.39 minutes
	system time =      32.64 seconds =       0.54 minutes
	total time  =         49 seconds =       0.82 minutes

    Psi4 stopped on: Sunday, 10 August 2025 06:31PM
    Psi4 wall time for execution: 0:00:49.36

*** Psi4 exiting successfully. Buy a developer a beer!
