                               Psi4 1.9.1 release

  ==> Input File <==

--------------------------------------------------------------------------
molecule {
1 3
O           0.000000           0.000000           0.000000
H           0.000000           0.000000           1.118849
}

set {
basis              cc-pvtz
reference          uks
maxiter            500
DAMPING_PERCENTAGE 1
E_CONVERGENCE      1.0E-8
D_CONVERGENCE      1.0E-8
DIIS_MAX_VECS      400
MBIS_MAXITER       8000
guess              read
}

E, wfn = energy('b3lyp', restart_file='last_wfn', return_wfn=True)
properties('b3lyp','MBIS_CHARGES', wfn=wfn)
wfn.to_file('last_wfn')
--------------------------------------------------------------------------

    Molecular point group: c2v
  Charge       = 1
  Multiplicity = 3
  Basis Set: CC-PVTZ
    Blend: CC-PVTZ
  Basis Set: (CC-PVTZ AUX)
    Blend: CC-PVTZ-JKFIT
  @DF-UKS Final Energy:   -75.27797235241793
    Total Energy =                        -75.2779723524179332
 Dipole X            :          0.0000000            0.0000000            0.0000000
 Dipole Y            :          0.0000000            0.0000000            0.0000000
 Dipole Z            :         -0.0018288            0.9863961            0.9845674
 Magnitude           :                                                    0.9845674
    Molecular point group: c2v

    Geometry (in Angstrom), charge = 1, multiplicity = 3:

       Center              X                  Y                   Z               Mass
    ------------   -----------------  -----------------  -----------------  -----------------
         O            0.000000000000     0.000000000000    -0.066318961096    15.994914619570
         H            0.000000000000     0.000000000000     1.052530038904     1.007825032230

  Charge       = 1
  Multiplicity = 3
  Basis Set: CC-PVTZ
    Blend: CC-PVTZ
  Basis Set: (CC-PVTZ AUX)
    Blend: CC-PVTZ-JKFIT

    Orbital Energies [Eh]
    ---------------------

    Alpha Occupied:

       1A1   -19.809051     2A1    -1.539181     3A1    -0.955103
       1B2    -0.935091     1B1    -0.935091

    Alpha Virtual:

       4A1    -0.356325     5A1    -0.021108     2B1     0.132715
       2B2     0.132715     6A1     0.185039     3B2     0.324044
       3B1     0.324044     7A1     0.488866     8A1     0.751632
       1A2     0.934661     9A1     0.934661     4B2     1.221668
       4B1     1.221668    10A1     1.597436    11A1     1.910560
      12A1     2.750344     2A2     2.750344     5B2     2.774071
       5B1     2.774071    13A1     3.017295     6B1     3.180920
       6B2     3.180920     7B2     3.435915     7B1     3.435915
      14A1     3.530189    15A1     4.304964     8B1     4.514600
       8B2     4.514600     3A2     4.674461    16A1     4.674461
       9B2     5.366368     9B1     5.366368    17A1     5.536670
       4A2     5.536670    18A1     5.606991    10B1     5.933526
      10B2     5.933526    19A1     6.283767    20A1     8.416506

    Beta Occupied:

       1A1   -19.752506     2A1    -1.381882     3A1    -0.903538

    Beta Virtual:

       1B2    -0.632661     1B1    -0.632661     4A1    -0.340714
       5A1    -0.018595     2B1     0.195031     2B2     0.195031
       6A1     0.200888     3B2     0.339940     3B1     0.339940
       7A1     0.546147     8A1     0.763864     9A1     1.046645
       1A2     1.046645     4B2     1.275738     4B1     1.275738
      10A1     1.631950    11A1     1.904708    12A1     2.750333
       2A2     2.750334     5B2     2.840698     5B1     2.840698
      13A1     3.032123     6B1     3.222227     6B2     3.222227
       7B2     3.479720     7B1     3.479720    14A1     3.552981
      15A1     4.354953     8B1     4.666520     8B2     4.666520
       3A2     4.772176    16A1     4.772176     9B2     5.449568
       9B1     5.449568    17A1     5.658792     4A2     5.750277
      18A1     5.750277    10B1     6.026156    10B2     6.026156
      19A1     6.362425    20A1     8.490210

    Final Occupation by Irrep:
             A1    A2    B1    B2
    DOCC [     3,    0,    0,    0 ]
    SOCC [     0,    0,    1,    1 ]
    NA   [     3,    0,    1,    1 ]
    NB   [     3,    0,    0,    0 ]

  @DF-UKS Final Energy:   -75.27797235266864

   => Energetics <=

    Nuclear Repulsion Energy =              3.7837256728655970
    One-Electron Energy =                -106.9906436361895032
    Two-Electron Energy =                  34.7751031020464509
    DFT Exchange-Correlation Energy =      -6.8461574913911978
    Empirical Dispersion Energy =           0.0000000000000000
    VV10 Nonlocal Energy =                  0.0000000000000000
    Total Energy =                        -75.2779723526686411

  UHF NO Occupations:
  HONO-2 :    3 A1 1.9976417
  HONO-1 :    1 B2 1.0000000
  HONO-0 :    1 B1 1.0000000
  LUNO+0 :    4 A1 0.0023583
  LUNO+1 :    5 A1 0.0007620
  LUNO+2 :    6 A1 0.0000014
  LUNO+3 :    7 A1 0.0000000

Computation Completed

Properties will be evaluated at   0.000000,   0.000000,   0.000000 [a0]

Properties computed using the B3LYP density matrix

 Multipole Moments:

 ------------------------------------------------------------------------------------
     Multipole            Electronic (a.u.)      Nuclear  (a.u.)        Total (a.u.)
 ------------------------------------------------------------------------------------

 L = 1.  Multiply by 2.5417464519 to convert [e a0] to [Debye]
 Dipole X            :          0.0000000            0.0000000            0.0000000
 Dipole Y            :          0.0000000            0.0000000            0.0000000
 Dipole Z            :         -0.0018288            0.9863961            0.9845674
 Magnitude           :                                                    0.9845674

 L = 2.  Multiply by 1.3450342976 to convert [e a0^2] to [Debye ang]
 Quadrupole XX       :         -3.0878919            0.0000000           -3.0878919
 Quadrupole XY       :          0.0000000            0.0000000            0.0000000
 Quadrupole XZ       :          0.0000000            0.0000000            0.0000000
 Quadrupole YY       :         -3.0878919            0.0000000           -3.0878919
 Quadrupole YZ       :          0.0000000            0.0000000            0.0000000
 Quadrupole ZZ       :         -5.2594849            4.0817454           -1.1777395
 Traceless XX        :          0.7238643           -1.3605818           -0.6367175
 Traceless YY        :          0.7238643           -1.3605818           -0.6367175
 Traceless ZZ        :         -1.4477286            2.7211636            1.2734349

 ------------------------------------------------------------------------------------
  ==> Computing MBIS Charges <==

  Electron Count from Grid (Expected Number):  8.00000 ( 8.00000)
  Difference:  0.00000

  MBIS Charges: (a.u.)
   Center  Symbol  Z      Pop.       Charge
      1       O    8    7.536629    0.463371
      2       H    1    0.463371    0.536629

  MBIS Dipoles: [e a0]
   Center  Symbol  Z        X           Y           Z
      1       O    8   -0.000000   -0.000000   -0.082859
      2       H    1    0.000000   -0.000000    0.058147

  MBIS Quadrupoles: [e a0^2]
   Center  Symbol  Z      XX        XY        XZ        YY        YZ        ZZ
      1       O    8   -2.8690   -0.0000   -0.0000   -2.8690   -0.0000   -3.3565
      2       H    1   -0.2188   -0.0000    0.0000   -0.2188    0.0000   -0.2036

  MBIS Octupoles: [e a0^3]
   Center  Symbol  Z      XXX       XXY       XXZ       XYY       XYZ       XZZ       YYY       YYZ       YZZ       ZZZ
      1       O    8   -0.0000   -0.0000   -0.0573    0.0000   -0.0000   -0.0000   -0.0000   -0.0573   -0.0000   -0.2388
      2       H    1    0.0000   -0.0000    0.0142    0.0000   -0.0000    0.0000   -0.0000    0.0142    0.0000    0.0569

  MBIS Radial Moments:
   Center  Symbol  Z      [a0^2]      [a0^3]      [a0^4]
      1       O    8    9.094545   15.596938   31.992140
      2       H    1    0.641287    1.058581    2.084007

  MBIS Valence Widths: [a0]
   Center  Symbol  Z     Width
      1       O    8    0.360385
      2       H    1    0.344551

*** tstop() called on Mac.lan at Sun Aug 10 18:29:26 2025
Module time:
	user time   =      10.17 seconds =       0.17 minutes
	system time =       1.94 seconds =       0.03 minutes
	total time  =          2 seconds =       0.03 minutes
Total time:
	user time   =      41.48 seconds =       0.69 minutes
	system time =       5.12 seconds =       0.09 minutes
	total time  =          5 seconds =       0.08 minutes

    Psi4 stopped on: Sunday, 10 August 2025 06:29PM
    Psi4 wall time for execution: 0:00:04.68

*** Psi4 exiting successfully. Buy a developer a beer!
