                               Psi4 1.9.1 release

  ==> Input File <==

--------------------------------------------------------------------------
molecule {
1 2
O           0.000000           0.000000           0.000000
C           0.000000           0.000000           0.992196
}

set {
basis              cc-pvtz
reference          uks
maxiter            500
DAMPING_PERCENTAGE 1
E_CONVERGENCE      1.0E-8
D_CONVERGENCE      1.0E-8
DIIS_MAX_VECS      400
MBIS_MAXITER       8000
guess              read
}

E, wfn = energy('b3lyp', restart_file='last_wfn', return_wfn=True)
properties('b3lyp','MBIS_CHARGES', wfn=wfn)
wfn.to_file('last_wfn')
--------------------------------------------------------------------------

    Molecular point group: c2v
  Charge       = 1
  Multiplicity = 2
  Basis Set: CC-PVTZ
    Blend: CC-PVTZ
  Basis Set: (CC-PVTZ AUX)
    Blend: CC-PVTZ-JKFIT
  @DF-UKS Final Energy:  -112.79181160619827
    Total Energy =                       -112.7918116061982658
 Dipole X            :          0.0000000            0.0000000            0.0000000
 Dipole Y            :          0.0000000            0.0000000            0.0000000
 Dipole Z            :          0.9986485           -0.0020436            0.9966049
 Magnitude           :                                                    0.9966049
    Molecular point group: c2v

    Geometry (in Angstrom), charge = 1, multiplicity = 2:

       Center              X                  Y                   Z               Mass
    ------------   -----------------  -----------------  -----------------  -----------------
         O            0.000000000000     0.000000000000    -0.425304101184    15.994914619570
         C            0.000000000000     0.000000000000     0.566891898816    12.000000000000

  Charge       = 1
  Multiplicity = 2
  Basis Set: CC-PVTZ
    Blend: CC-PVTZ
  Basis Set: (CC-PVTZ AUX)
    Blend: CC-PVTZ-JKFIT

    Orbital Energies [Eh]
    ---------------------

    Alpha Occupied:

       1A1   -19.637197     2A1   -10.762237     3A1    -1.646878
       4A1    -0.950354     1B2    -0.919857     1B1    -0.919857
       5A1    -0.872851

    Alpha Virtual:

       2B1    -0.378028     2B2    -0.378028     6A1    -0.109996
       7A1    -0.023682     3B2    -0.016974     3B1    -0.016974
       8A1     0.236564     9A1     0.272594     1A2     0.272594
       4B2     0.328656     4B1     0.328656    10A1     0.369638
       5B2     0.536070     5B1     0.536070    11A1     0.834244
      12A1     1.112370     2A2     1.187537    13A1     1.187537
      14A1     1.491002     6B1     1.494086     6B2     1.494086
       7B1     1.622271     7B2     1.622271    15A1     2.190625
       8B1     2.212569     8B2     2.212569    16A1     2.436547
       3A2     2.436548     9B2     2.499325     9B1     2.499325
       4A2     2.514178    17A1     2.514178    18A1     2.631513
      10B1     2.969056    10B2     2.969056    19A1     3.126241
      11B1     3.805147    11B2     3.805147    20A1     4.517632
      12B2     4.733213    12B1     4.733213     5A2     5.312403
      21A1     5.312403    22A1     5.800702     6A2     5.875490
      23A1     5.875497    13B1     6.168756    13B2     6.168756
      14B1     6.371697    14B2     6.371697    24A1     6.508561
      25A1     7.436945    26A1    13.759524

    Beta Occupied:

       1A1   -19.638059     2A1   -10.736895     3A1    -1.639664
       4A1    -0.933982     1B2    -0.913077     1B1    -0.913077

    Beta Virtual:

       5A1    -0.639431     2B1    -0.334512     2B2    -0.334512
       6A1    -0.096090     3B2    -0.006013     3B1    -0.006013
       7A1     0.017887     8A1     0.256538     1A2     0.292848
       9A1     0.292848     4B2     0.327813     4B1     0.327813
      10A1     0.412945     5B2     0.572353     5B1     0.572353
      11A1     0.836000    12A1     1.159655     2A2     1.188917
      13A1     1.188917     6B1     1.518659     6B2     1.518659
      14A1     1.543563     7B1     1.636566     7B2     1.636566
      15A1     2.238522     8B1     2.247963     8B2     2.247963
      16A1     2.472978     3A2     2.472979     4A2     2.578381
      17A1     2.578383     9B2     2.608468     9B1     2.608468
      18A1     2.713122    10B1     2.989837    10B2     2.989837
      19A1     3.195468    11B1     3.820415    11B2     3.820415
      20A1     4.540124    12B2     4.726032    12B1     4.726032
       5A2     5.314650    21A1     5.314651    22A1     5.819018
       6A2     5.865884    23A1     5.865891    13B1     6.172329
      13B2     6.172329    14B1     6.390145    14B2     6.390145
      24A1     6.517067    25A1     7.448549    26A1    13.787771

    Final Occupation by Irrep:
             A1    A2    B1    B2
    DOCC [     4,    0,    1,    1 ]
    SOCC [     1,    0,    0,    0 ]
    NA   [     5,    0,    1,    1 ]
    NB   [     4,    0,    1,    1 ]

  @DF-UKS Final Energy:  -112.79181161195812

   => Energetics <=

    Nuclear Repulsion Energy =             25.6002907814181881
    One-Electron Energy =                -198.3348121670532009
    Two-Electron Energy =                  71.0219926139194513
    DFT Exchange-Correlation Energy =     -11.0792828402425592
    Empirical Dispersion Energy =           0.0000000000000000
    VV10 Nonlocal Energy =                  0.0000000000000000
    Total Energy =                       -112.7918116119581242

  UHF NO Occupations:
  HONO-2 :    1 B2 1.9978480
  HONO-1 :    1 B1 1.9978480
  HONO-0 :    5 A1 1.0000000
  LUNO+0 :    2 B1 0.0021520
  LUNO+1 :    2 B2 0.0021520
  LUNO+2 :    6 A1 0.0000796
  LUNO+3 :    7 A1 0.0000131

Computation Completed

Properties will be evaluated at   0.000000,   0.000000,   0.000000 [a0]

Properties computed using the B3LYP density matrix

 Multipole Moments:

 ------------------------------------------------------------------------------------
     Multipole            Electronic (a.u.)      Nuclear  (a.u.)        Total (a.u.)
 ------------------------------------------------------------------------------------

 L = 1.  Multiply by 2.5417464519 to convert [e a0] to [Debye]
 Dipole X            :          0.0000000            0.0000000            0.0000000
 Dipole Y            :          0.0000000            0.0000000            0.0000000
 Dipole Z            :          0.9986484           -0.0020436            0.9966048
 Magnitude           :                                                    0.9966048

 L = 2.  Multiply by 1.3450342976 to convert [e a0^2] to [Debye ang]
 Quadrupole XX       :         -5.6619673            0.0000000           -5.6619673
 Quadrupole XY       :          0.0000000            0.0000000            0.0000000
 Quadrupole XZ       :          0.0000000            0.0000000            0.0000000
 Quadrupole YY       :         -5.6619673            0.0000000           -5.6619673
 Quadrupole YZ       :          0.0000000            0.0000000            0.0000000
 Quadrupole ZZ       :        -16.3803895           12.0532979           -4.3270916
 Traceless XX        :          3.5728074           -4.0177660           -0.4449586
 Traceless YY        :          3.5728074           -4.0177660           -0.4449586
 Traceless ZZ        :         -7.1456148            8.0355319            0.8899172

 ------------------------------------------------------------------------------------
  ==> Computing MBIS Charges <==

  Electron Count from Grid (Expected Number): 13.00000 (13.00000)
  Difference:  0.00000

  MBIS Charges: (a.u.)
   Center  Symbol  Z      Pop.       Charge
      1       O    8    8.041305   -0.041305
      2       C    6    4.958695    1.041305

  MBIS Dipoles: [e a0]
   Center  Symbol  Z        X           Y           Z
      1       O    8    0.000000   -0.000000   -0.251958
      2       C    6    0.000000    0.000000    0.099847

  MBIS Quadrupoles: [e a0^2]
   Center  Symbol  Z      XX        XY        XZ        YY        YZ        ZZ
      1       O    8   -3.3035    0.0000    0.0000   -3.3035    0.0000   -3.5468
      2       C    6   -2.3585    0.0000    0.0000   -2.3585    0.0000   -2.5676

  MBIS Octupoles: [e a0^3]
   Center  Symbol  Z      XXX       XXY       XXZ       XYY       XYZ       XZZ       YYY       YYZ       YZZ       ZZZ
      1       O    8    0.0000   -0.0000   -0.1920   -0.0000    0.0000   -0.0000   -0.0000   -0.1920    0.0000   -0.3610
      2       C    6    0.0000    0.0000    0.0666    0.0000    0.0000    0.0000    0.0000    0.0666    0.0000   -0.0259

  MBIS Radial Moments:
   Center  Symbol  Z      [a0^2]      [a0^3]      [a0^4]
      1       O    8   10.153672   17.667165   36.741734
      2       C    6    7.284622   14.642013   35.138476

  MBIS Valence Widths: [a0]
   Center  Symbol  Z     Width
      1       O    8    0.365165
      2       C    6    0.429829

*** tstop() called on Mac.lan at Sun Aug 10 18:36:37 2025
Module time:
	user time   =       3.78 seconds =       0.06 minutes
	system time =       2.48 seconds =       0.04 minutes
	total time  =          1 seconds =       0.02 minutes
Total time:
	user time   =      19.75 seconds =       0.33 minutes
	system time =       4.90 seconds =       0.08 minutes
	total time  =          2 seconds =       0.03 minutes

    Psi4 stopped on: Sunday, 10 August 2025 06:36PM
    Psi4 wall time for execution: 0:00:02.44

*** Psi4 exiting successfully. Buy a developer a beer!
