                               Psi4 1.9.1 release

  ==> Input File <==

--------------------------------------------------------------------------
molecule {
1 1
C           0.000000           0.000000           0.000000
H           0.000000           0.000000           1.517167
}

set {
basis              cc-pvtz
reference          uks
maxiter            500
DAMPING_PERCENTAGE 1
E_CONVERGENCE      1.0E-8
D_CONVERGENCE      1.0E-8
DIIS_MAX_VECS      400
MBIS_MAXITER       8000
guess              read
}

E, wfn = energy('b3lyp', restart_file='last_wfn', return_wfn=True)
properties('b3lyp','MBIS_CHARGES', wfn=wfn)
wfn.to_file('last_wfn')
--------------------------------------------------------------------------

    Molecular point group: c2v
  Charge       = 1
  Multiplicity = 1
  Basis Set: CC-PVTZ
    Blend: CC-PVTZ
  Basis Set: (CC-PVTZ AUX)
    Blend: CC-PVTZ-JKFIT
  @DF-UKS Final Energy:   -38.05459751349459
    Total Energy =                        -38.0545975134945991
 Dipole X            :          0.0000000            0.0000000            0.0000000
 Dipole Y            :          0.0000000            0.0000000            0.0000000
 Dipole Z            :         -0.5332347            1.3121005            0.7788657
 Magnitude           :                                                    0.7788657
    Molecular point group: c2v

    Geometry (in Angstrom), charge = 1, multiplicity = 1:

       Center              X                  Y                   Z               Mass
    ------------   -----------------  -----------------  -----------------  -----------------
         C            0.000000000000     0.000000000000    -0.117547620520    12.000000000000
         H            0.000000000000     0.000000000000     1.399619379480     1.007825032230

  Charge       = 1
  Multiplicity = 1
  Basis Set: CC-PVTZ
    Blend: CC-PVTZ
  Basis Set: (CC-PVTZ AUX)
    Blend: CC-PVTZ-JKFIT

    Orbital Energies [Eh]
    ---------------------

    Alpha Occupied:

       1A1   -10.804916     2A1    -0.974679     3A1    -0.684341

    Alpha Virtual:

       1B2    -0.531064     1B1    -0.531064     4A1    -0.336922
       5A1    -0.011418     2B1     0.010967     2B2     0.010967
       6A1     0.037615     7A1     0.157248     3B1     0.218056
       3B2     0.218056     8A1     0.331323     1A2     0.331324
       9A1     0.519085     4B2     0.610123     4B1     0.610123
      10A1     0.885697     5B1     1.523140     5B2     1.523140
      11A1     1.704855    12A1     2.090606     6B2     2.169785
       6B1     2.169785     2A2     2.219783    13A1     2.219784
      14A1     2.225937     7B2     2.261590     7B1     2.261590
       3A2     2.494367    15A1     2.494367     8B2     2.576646
       8B1     2.576646    16A1     2.813442    17A1     2.941851
       4A2     2.941851    18A1     3.215105     9B1     3.269607
       9B2     3.269607    10B2     3.600133    10B1     3.600133
      19A1     3.780716    20A1     5.091025

    Beta Occupied:

       1A1   -10.804916     2A1    -0.974679     3A1    -0.684341

    Beta Virtual:

       1B2    -0.531064     1B1    -0.531064     4A1    -0.336922
       5A1    -0.011418     2B1     0.010967     2B2     0.010967
       6A1     0.037615     7A1     0.157248     3B2     0.218056
       3B1     0.218056     8A1     0.331323     1A2     0.331324
       9A1     0.519085     4B2     0.610123     4B1     0.610123
      10A1     0.885697     5B1     1.523140     5B2     1.523140
      11A1     1.704855    12A1     2.090606     6B2     2.169785
       6B1     2.169785     2A2     2.219783    13A1     2.219784
      14A1     2.225937     7B2     2.261590     7B1     2.261590
       3A2     2.494367    15A1     2.494367     8B2     2.576646
       8B1     2.576646    16A1     2.813442    17A1     2.941851
       4A2     2.941851    18A1     3.215105     9B1     3.269607
       9B2     3.269607    10B2     3.600133    10B1     3.600133
      19A1     3.780716    20A1     5.091025

    Final Occupation by Irrep:
             A1    A2    B1    B2
    DOCC [     3,    0,    0,    0 ]
    SOCC [     0,    0,    0,    0 ]
    NA   [     3,    0,    0,    0 ]
    NB   [     3,    0,    0,    0 ]

  @DF-UKS Final Energy:   -38.05459751356714

   => Energetics <=

    Nuclear Repulsion Energy =              2.0927579258051354
    One-Electron Energy =                 -52.3360551837960983
    Two-Electron Energy =                  16.3790355643833578
    DFT Exchange-Correlation Energy =      -4.1903358199595377
    Empirical Dispersion Energy =           0.0000000000000000
    VV10 Nonlocal Energy =                  0.0000000000000000
    Total Energy =                        -38.0545975135671384

  UHF NO Occupations:
  HONO-2 :    1 A1 2.0000000
  HONO-1 :    2 A1 2.0000000
  HONO-0 :    3 A1 2.0000000
  LUNO+0 :    4 A1 0.0000000
  LUNO+1 :    5 A1 0.0000000
  LUNO+2 :    6 A1 0.0000000
  LUNO+3 :    7 A1 0.0000000

Computation Completed

Properties will be evaluated at   0.000000,   0.000000,   0.000000 [a0]

Properties computed using the B3LYP density matrix

 Multipole Moments:

 ------------------------------------------------------------------------------------
     Multipole            Electronic (a.u.)      Nuclear  (a.u.)        Total (a.u.)
 ------------------------------------------------------------------------------------

 L = 1.  Multiply by 2.5417464519 to convert [e a0] to [Debye]
 Dipole X            :          0.0000000            0.0000000            0.0000000
 Dipole Y            :          0.0000000            0.0000000            0.0000000
 Dipole Z            :         -0.5332347            1.3121005            0.7788657
 Magnitude           :                                                    0.7788657

 L = 2.  Multiply by 1.3450342976 to convert [e a0^2] to [Debye ang]
 Quadrupole XX       :         -3.1395693            0.0000000           -3.1395693
 Quadrupole XY       :          0.0000000            0.0000000            0.0000000
 Quadrupole XZ       :          0.0000000            0.0000000            0.0000000
 Quadrupole YY       :         -3.1395693            0.0000000           -3.1395693
 Quadrupole YZ       :          0.0000000            0.0000000            0.0000000
 Quadrupole ZZ       :         -9.3742965            7.2915397           -2.0827569
 Traceless XX        :          2.0782424           -2.4305132           -0.3522708
 Traceless YY        :          2.0782424           -2.4305132           -0.3522708
 Traceless ZZ        :         -4.1564848            4.8610265            0.7045416

 ------------------------------------------------------------------------------------
  ==> Computing MBIS Charges <==

  Electron Count from Grid (Expected Number):  6.00000 ( 6.00000)
  Difference: -0.00000

  MBIS Charges: (a.u.)
   Center  Symbol  Z      Pop.       Charge
      1       C    6    5.244328    0.755672
      2       H    1    0.755672    0.244328

  MBIS Dipoles: [e a0]
   Center  Symbol  Z        X           Y           Z
      1       C    6    0.000000   -0.000000    0.142859
      2       H    1   -0.000000    0.000000    0.157645

  MBIS Quadrupoles: [e a0^2]
   Center  Symbol  Z      XX        XY        XZ        YY        YZ        ZZ
      1       C    6   -2.6266   -0.0000    0.0000   -2.6266    0.0000   -4.0726
      2       H    1   -0.5130   -0.0000   -0.0000   -0.5130    0.0000   -0.5271

  MBIS Octupoles: [e a0^3]
   Center  Symbol  Z      XXX       XXY       XXZ       XYY       XYZ       XZZ       YYY       YYZ       YZZ       ZZZ
      1       C    6   -0.0000    0.0000    0.1490    0.0000    0.0000   -0.0000   -0.0000    0.1490   -0.0000    0.3631
      2       H    1   -0.0000    0.0000    0.0594   -0.0000   -0.0000   -0.0000    0.0000    0.0594    0.0000    0.2209

  MBIS Radial Moments:
   Center  Symbol  Z      [a0^2]      [a0^3]      [a0^4]
      1       C    6    9.325706   20.212498   52.099742
      2       H    1    1.553109    3.066608    7.198577

  MBIS Valence Widths: [a0]
   Center  Symbol  Z     Width
      1       C    6    0.471757
      2       H    1    0.422942

*** tstop() called on Mac.lan at Sun Aug 10 18:27:42 2025
Module time:
	user time   =       2.62 seconds =       0.04 minutes
	system time =       2.31 seconds =       0.04 minutes
	total time  =          1 seconds =       0.02 minutes
Total time:
	user time   =      11.08 seconds =       0.18 minutes
	system time =       4.54 seconds =       0.08 minutes
	total time  =          2 seconds =       0.03 minutes

    Psi4 stopped on: Sunday, 10 August 2025 06:27PM
    Psi4 wall time for execution: 0:00:01.53

*** Psi4 exiting successfully. Buy a developer a beer!
