                               Psi4 1.9.1 release

  ==> Input File <==

--------------------------------------------------------------------------
molecule {
1 3
N           0.000000           0.000000           0.000000
C           0.000000           0.000000           1.213970
}

set {
basis              cc-pvtz
reference          uks
maxiter            500
DAMPING_PERCENTAGE 1
E_CONVERGENCE      1.0E-8
D_CONVERGENCE      1.0E-8
DIIS_MAX_VECS      400
MBIS_MAXITER       8000
guess              read
}

E, wfn = energy('b3lyp', restart_file='last_wfn', return_wfn=True)
properties('b3lyp','MBIS_CHARGES', wfn=wfn)
wfn.to_file('last_wfn')
--------------------------------------------------------------------------

    Molecular point group: c2v
  Charge       = 1
  Multiplicity = 3
  Basis Set: CC-PVTZ
    Blend: CC-PVTZ
  Basis Set: (CC-PVTZ AUX)
    Blend: CC-PVTZ-JKFIT
  @DF-UKS Final Energy:   -92.22993192216521
    Total Energy =                        -92.2299319221652212
 Dipole X            :          0.0000000            0.0000000            0.0000000
 Dipole Y            :          0.0000000            0.0000000            0.0000000
 Dipole Z            :          0.7313080            0.0016272            0.7329352
 Magnitude           :                                                    0.7329352
    Molecular point group: c2v

    Geometry (in Angstrom), charge = 1, multiplicity = 3:

       Center              X                  Y                   Z               Mass
    ------------   -----------------  -----------------  -----------------  -----------------
         N            0.000000000000     0.000000000000    -0.560227609917    14.003074004430
         C            0.000000000000     0.000000000000     0.653742390083    12.000000000000

  Charge       = 1
  Multiplicity = 3
  Basis Set: CC-PVTZ
    Blend: CC-PVTZ
  Basis Set: (CC-PVTZ AUX)
    Blend: CC-PVTZ-JKFIT

    Orbital Energies [Eh]
    ---------------------

    Alpha Occupied:

       1A1   -14.848202     2A1   -10.764535     3A1    -1.397504
       4A1    -0.901756     1B1    -0.827623     5A1    -0.797026
       1B2    -0.784477

    Alpha Virtual:

       2B1    -0.444460     2B2    -0.411369     6A1    -0.103400
       3B1    -0.008591     7A1    -0.000668     3B2     0.001663
       8A1     0.135271     9A1     0.164378     4B1     0.201857
       4B2     0.219469     1A2     0.266311    10A1     0.266832
       5B1     0.443050     5B2     0.465389    11A1     0.561197
       2A2     0.777844    12A1     0.778495    13A1     0.859641
       6B1     1.130507     6B2     1.153107    14A1     1.377281
       7B1     1.562826     7B2     1.584492    15A1     1.778829
       8B1     2.220158     8B2     2.220301    16A1     2.276825
       3A2     2.277443     9B1     2.321761     9B2     2.352130
      17A1     2.374308    10B1     2.474172    18A1     2.498023
       4A2     2.498252    10B2     2.505487    19A1     2.657710
      11B1     2.959928    11B2     2.987882    20A1     3.349256
      12B1     3.489289    12B2     3.489441    21A1     3.894385
       5A2     3.894493     6A2     4.099447    22A1     4.099629
      13B1     4.324429    13B2     4.361520    23A1     4.457880
      24A1     4.913688    14B1     4.974882    14B2     5.007053
      25A1     5.265360    26A1    11.235523

    Beta Occupied:

       1A1   -14.831145     2A1   -10.739639     3A1    -1.329851
       4A1    -0.811281     1B2    -0.762338

    Beta Virtual:

       1B1    -0.646828     5A1    -0.609915     2B2    -0.374909
       2B1    -0.340426     6A1    -0.083434     3B2     0.009934
       3B1     0.016477     7A1     0.037599     8A1     0.155860
       4B2     0.223526     9A1     0.226084     4B1     0.233179
       1A2     0.298759    10A1     0.301212     5B2     0.500272
       5B1     0.505484    11A1     0.583768     2A2     0.808803
      12A1     0.811531    13A1     0.910130     6B2     1.172295
       6B1     1.177186    14A1     1.413566     7B2     1.605285
       7B1     1.613804    15A1     1.843813     8B2     2.266600
       8B1     2.267742     3A2     2.321866    16A1     2.324795
       9B2     2.384988     9B1     2.402134    17A1     2.431383
      10B2     2.555387    10B1     2.570774     4A2     2.571337
      18A1     2.576465    19A1     2.750443    11B2     3.034453
      11B1     3.043348    20A1     3.406846    12B2     3.530054
      12B1     3.531377     5A2     3.943055    21A1     3.948989
       6A2     4.144256    22A1     4.148897    13B2     4.386285
      13B1     4.402123    23A1     4.509928    24A1     4.955591
      14B2     5.034782    14B1     5.043423    25A1     5.298641
      26A1    11.272899

    Final Occupation by Irrep:
             A1    A2    B1    B2
    DOCC [     4,    0,    0,    1 ]
    SOCC [     1,    0,    1,    0 ]
    NA   [     5,    0,    1,    1 ]
    NB   [     4,    0,    0,    1 ]

  @DF-UKS Final Energy:   -92.22993192067874

   => Energetics <=

    Nuclear Repulsion Energy =             18.3080659720915691
    One-Electron Energy =                -155.4140806225124720
    Two-Electron Energy =                  54.4058994235557520
    DFT Exchange-Correlation Energy =      -9.5298166938136042
    Empirical Dispersion Energy =           0.0000000000000000
    VV10 Nonlocal Energy =                  0.0000000000000000
    Total Energy =                        -92.2299319206787374

  UHF NO Occupations:
  HONO-2 :    1 B2 1.9985252
  HONO-1 :    1 B1 1.0000000
  HONO-0 :    5 A1 1.0000000
  LUNO+0 :    2 B2 0.0014748
  LUNO+1 :    6 A1 0.0008244
  LUNO+2 :    7 A1 0.0002882
  LUNO+3 :    8 A1 0.0000005

Computation Completed

Properties will be evaluated at   0.000000,   0.000000,   0.000000 [a0]

Properties computed using the B3LYP density matrix

 Multipole Moments:

 ------------------------------------------------------------------------------------
     Multipole            Electronic (a.u.)      Nuclear  (a.u.)        Total (a.u.)
 ------------------------------------------------------------------------------------

 L = 1.  Multiply by 2.5417464519 to convert [e a0] to [Debye]
 Dipole X            :          0.0000000            0.0000000            0.0000000
 Dipole Y            :          0.0000000            0.0000000            0.0000000
 Dipole Z            :          0.7313082            0.0016272            0.7329354
 Magnitude           :                                                    0.7329354

 L = 2.  Multiply by 1.3450342976 to convert [e a0^2] to [Debye ang]
 Quadrupole XX       :         -5.6821422            0.0000000           -5.6821422
 Quadrupole XY       :          0.0000000            0.0000000            0.0000000
 Quadrupole XZ       :          0.0000000            0.0000000            0.0000000
 Quadrupole YY       :         -6.6778025            0.0000000           -6.6778025
 Quadrupole YZ       :          0.0000000            0.0000000            0.0000000
 Quadrupole ZZ       :        -21.7117480           17.0027663           -4.7089817
 Traceless XX        :          5.6750887           -5.6675888            0.0074999
 Traceless YY        :          4.6794284           -5.6675888           -0.9881604
 Traceless ZZ        :        -10.3545171           11.3351776            0.9806605

 ------------------------------------------------------------------------------------
  ==> Computing MBIS Charges <==

  Electron Count from Grid (Expected Number): 12.00000 (12.00000)
  Difference:  0.00000

  MBIS Charges: (a.u.)
   Center  Symbol  Z      Pop.       Charge
      1       N    7    6.787561    0.212439
      2       C    6    5.212440    0.787560

  MBIS Dipoles: [e a0]
   Center  Symbol  Z        X           Y           Z
      1       N    7    0.000000    0.000000   -0.151373
      2       C    6   -0.000000    0.000000    0.136266

  MBIS Quadrupoles: [e a0^2]
   Center  Symbol  Z      XX        XY        XZ        YY        YZ        ZZ
      1       N    7   -3.1167   -0.0000   -0.0000   -3.6642   -0.0000   -3.7794
      2       C    6   -2.5655    0.0000   -0.0000   -3.0136    0.0000   -3.0268

  MBIS Octupoles: [e a0^3]
   Center  Symbol  Z      XXX       XXY       XXZ       XYY       XYZ       XZZ       YYY       YYZ       YZZ       ZZZ
      1       N    7   -0.0000   -0.0000   -0.0961    0.0000    0.0000    0.0000   -0.0000   -0.2503    0.0000   -0.3881
      2       C    6   -0.0000    0.0000    0.0404   -0.0000    0.0000    0.0000    0.0000    0.1898    0.0000    0.2337

  MBIS Radial Moments:
   Center  Symbol  Z      [a0^2]      [a0^3]      [a0^4]
      1       N    7   10.560287   20.730556   48.525139
      2       C    6    8.605910   18.098605   45.398353

  MBIS Valence Widths: [a0]
   Center  Symbol  Z     Width
      1       N    7    0.416993
      2       C    6    0.452310

*** tstop() called on Mac.lan at Sun Aug 10 18:32:32 2025
Module time:
	user time   =       4.48 seconds =       0.07 minutes
	system time =       1.92 seconds =       0.03 minutes
	total time  =          1 seconds =       0.02 minutes
Total time:
	user time   =      23.01 seconds =       0.38 minutes
	system time =       4.35 seconds =       0.07 minutes
	total time  =          3 seconds =       0.05 minutes

    Psi4 stopped on: Sunday, 10 August 2025 06:32PM
    Psi4 wall time for execution: 0:00:02.75

*** Psi4 exiting successfully. Buy a developer a beer!
