                               Psi4 1.9.1 release

  ==> Input File <==

--------------------------------------------------------------------------
molecule {
1 2
O           0.000000           0.000000           0.000000
C           0.000000           0.000000           1.522273
}

set {
basis              cc-pvtz
reference          uks
maxiter            500
DAMPING_PERCENTAGE 1
E_CONVERGENCE      1.0E-8
D_CONVERGENCE      1.0E-8
DIIS_MAX_VECS      400
MBIS_MAXITER       8000
guess              read
}

E, wfn = energy('b3lyp', restart_file='last_wfn', return_wfn=True)
properties('b3lyp','MBIS_CHARGES', wfn=wfn)
wfn.to_file('last_wfn')
--------------------------------------------------------------------------

    Molecular point group: c2v
  Charge       = 1
  Multiplicity = 2
  Basis Set: CC-PVTZ
    Blend: CC-PVTZ
  Basis Set: (CC-PVTZ AUX)
    Blend: CC-PVTZ-JKFIT
  @DF-UKS Final Energy:  -112.67625080118781
    Total Energy =                       -112.6762508011878197
 Dipole X            :          0.0000000            0.0000000            0.0000000
 Dipole Y            :          0.0000000            0.0000000            0.0000000
 Dipole Z            :          1.2156186           -0.0031354            1.2124832
 Magnitude           :                                                    1.2124832
    Molecular point group: c2v

    Geometry (in Angstrom), charge = 1, multiplicity = 2:

       Center              X                  Y                   Z               Mass
    ------------   -----------------  -----------------  -----------------  -----------------
         O            0.000000000000     0.000000000000    -0.652521225667    15.994914619570
         C            0.000000000000     0.000000000000     0.869751774333    12.000000000000

  Charge       = 1
  Multiplicity = 2
  Basis Set: CC-PVTZ
    Blend: CC-PVTZ
  Basis Set: (CC-PVTZ AUX)
    Blend: CC-PVTZ-JKFIT

    Orbital Energies [Eh]
    ---------------------

    Alpha Occupied:

       1A1   -19.666722     2A1   -10.863429     3A1    -1.395032
       4A1    -1.005607     5A1    -0.832288     1B2    -0.756194
       1B1    -0.756194

    Alpha Virtual:

       2B2    -0.531429     2B1    -0.531429     6A1    -0.324379
       7A1    -0.013333     8A1     0.007140     3B2     0.007524
       3B1     0.007524     9A1     0.245511     4B2     0.293274
       4B1     0.293274     1A2     0.303904    10A1     0.303904
       5B2     0.415879     5B1     0.415879    11A1     0.636656
      12A1     0.881047    13A1     1.120112     2A2     1.120112
       6B2     1.272703     6B1     1.272703    14A1     1.479285
       7B1     1.575305     7B2     1.575305    15A1     1.841912
       8B1     2.238326     8B2     2.238326     3A2     2.264552
      16A1     2.264552     9B1     2.403767     9B2     2.403767
      17A1     2.441543     4A2     2.470218    18A1     2.470220
      10B1     2.663367    10B2     2.663367    19A1     2.734143
      20A1     3.282206    11B1     3.319161    11B2     3.319161
      21A1     4.494191    12B1     4.723524    12B2     4.723524
      22A1     4.767397     5A2     4.767398    13B1     5.036539
      13B2     5.036539    23A1     5.459776     6A2     5.784996
      24A1     5.785048    14B2     6.099301    14B1     6.099301
      25A1     6.732058    26A1     7.958735

    Beta Occupied:

       1A1   -19.656451     2A1   -10.850083     3A1    -1.364553
       4A1    -0.939644     1B2    -0.749477     1B1    -0.749477

    Beta Virtual:

       5A1    -0.655370     2B2    -0.507880     2B1    -0.507880
       6A1    -0.266529     7A1    -0.001514     3B2     0.012779
       3B1     0.012779     8A1     0.038860     9A1     0.266307
       4B2     0.302297     4B1     0.302297    10A1     0.313461
       1A2     0.313461     5B2     0.437226     5B1     0.437226
      11A1     0.671765    12A1     0.899196    13A1     1.120986
       2A2     1.120986     6B2     1.300597     6B1     1.300597
      14A1     1.518586     7B1     1.588827     7B2     1.588827
      15A1     1.884814     8B1     2.252105     8B2     2.252105
       3A2     2.288800    16A1     2.288800     9B1     2.430847
       9B2     2.430847    17A1     2.488226     4A2     2.493805
      18A1     2.493806    10B1     2.724343    10B2     2.724343
      19A1     2.808750    20A1     3.323954    11B1     3.325451
      11B2     3.325451    21A1     4.524699    12B1     4.719205
      12B2     4.719205    22A1     4.785621     5A2     4.785622
      13B1     5.070630    13B2     5.070630    23A1     5.517418
       6A2     5.783315    24A1     5.783368    14B2     6.143688
      14B1     6.143688    25A1     6.789428    26A1     7.971396

    Final Occupation by Irrep:
             A1    A2    B1    B2
    DOCC [     4,    0,    1,    1 ]
    SOCC [     1,    0,    0,    0 ]
    NA   [     5,    0,    1,    1 ]
    NB   [     4,    0,    1,    1 ]

  @DF-UKS Final Energy:  -112.67625080784318

   => Energetics <=

    Nuclear Repulsion Energy =             16.6859072664101653
    One-Electron Energy =                -181.4232209863206435
    Two-Electron Energy =                  62.7721936367110516
    DFT Exchange-Correlation Energy =     -10.7111307246437573
    Empirical Dispersion Energy =           0.0000000000000000
    VV10 Nonlocal Energy =                  0.0000000000000000
    Total Energy =                       -112.6762508078431750

  UHF NO Occupations:
  HONO-2 :    1 B2 1.9987901
  HONO-1 :    4 A1 1.9944769
  HONO-0 :    5 A1 1.0000000
  LUNO+0 :    6 A1 0.0055231
  LUNO+1 :    2 B2 0.0012099
  LUNO+2 :    2 B1 0.0012099
  LUNO+3 :    7 A1 0.0001448

Computation Completed

Properties will be evaluated at   0.000000,   0.000000,   0.000000 [a0]

Properties computed using the B3LYP density matrix

 Multipole Moments:

 ------------------------------------------------------------------------------------
     Multipole            Electronic (a.u.)      Nuclear  (a.u.)        Total (a.u.)
 ------------------------------------------------------------------------------------

 L = 1.  Multiply by 2.5417464519 to convert [e a0] to [Debye]
 Dipole X            :          0.0000000            0.0000000            0.0000000
 Dipole Y            :          0.0000000            0.0000000            0.0000000
 Dipole Z            :          1.2156182           -0.0031354            1.2124828
 Magnitude           :                                                    1.2124828

 L = 2.  Multiply by 1.3450342976 to convert [e a0^2] to [Debye ang]
 Quadrupole XX       :         -6.5722365            0.0000000           -6.5722365
 Quadrupole XY       :          0.0000000            0.0000000            0.0000000
 Quadrupole XZ       :          0.0000000            0.0000000            0.0000000
 Quadrupole YY       :         -6.5722365            0.0000000           -6.5722365
 Quadrupole YZ       :          0.0000000            0.0000000            0.0000000
 Quadrupole ZZ       :        -30.9509970           28.3723975           -2.5785995
 Traceless XX        :          8.1262535           -9.4574658           -1.3312124
 Traceless YY        :          8.1262535           -9.4574658           -1.3312124
 Traceless ZZ        :        -16.2525070           18.9149317            2.6624247

 ------------------------------------------------------------------------------------
  ==> Computing MBIS Charges <==

  Electron Count from Grid (Expected Number): 13.00000 (13.00000)
  Difference: -0.00000

  MBIS Charges: (a.u.)
   Center  Symbol  Z      Pop.       Charge
      1       O    8    7.920151    0.079849
      2       C    6    5.079848    0.920152

  MBIS Dipoles: [e a0]
   Center  Symbol  Z        X           Y           Z
      1       O    8    0.000000   -0.000000   -0.354295
      2       C    6    0.000000    0.000000    0.152881

  MBIS Quadrupoles: [e a0^2]
   Center  Symbol  Z      XX        XY        XZ        YY        YZ        ZZ
      1       O    8   -3.6891   -0.0000   -0.0000   -3.6891   -0.0000   -3.5174
      2       C    6   -2.8832   -0.0000    0.0000   -2.8832    0.0000   -3.0446

  MBIS Octupoles: [e a0^3]
   Center  Symbol  Z      XXX       XXY       XXZ       XYY       XYZ       XZZ       YYY       YYZ       YZZ       ZZZ
      1       O    8   -0.0000   -0.0000   -0.3359   -0.0000    0.0000   -0.0000   -0.0000   -0.3359    0.0000   -1.0320
      2       C    6   -0.0000   -0.0000    0.3384   -0.0000    0.0000    0.0000    0.0000    0.3384    0.0000    0.6558

  MBIS Radial Moments:
   Center  Symbol  Z      [a0^2]      [a0^3]      [a0^4]
      1       O    8   10.895538   20.069830   44.176429
      2       C    6    8.810941   19.121736   49.367851

  MBIS Valence Widths: [a0]
   Center  Symbol  Z     Width
      1       O    8    0.382265
      2       C    6    0.468868

*** tstop() called on Mac.lan at Sun Aug 10 18:38:40 2025
Module time:
	user time   =       4.03 seconds =       0.07 minutes
	system time =       2.36 seconds =       0.04 minutes
	total time  =          0 seconds =       0.00 minutes
Total time:
	user time   =      24.44 seconds =       0.41 minutes
	system time =       5.14 seconds =       0.09 minutes
	total time  =          3 seconds =       0.05 minutes

    Psi4 stopped on: Sunday, 10 August 2025 06:38PM
    Psi4 wall time for execution: 0:00:02.89

*** Psi4 exiting successfully. Buy a developer a beer!
