                               Psi4 1.9.1 release

  ==> Input File <==

--------------------------------------------------------------------------
molecule {
1 2
O           0.000000           0.000000           0.000000
O           0.000000           0.000000           1.192109
}

set {
basis              cc-pvtz
reference          uks
maxiter            500
DAMPING_PERCENTAGE 1
E_CONVERGENCE      1.0E-8
D_CONVERGENCE      1.0E-8
DIIS_MAX_VECS      400
MBIS_MAXITER       8000
guess              read
}

E, wfn = energy('b3lyp', restart_file='last_wfn', return_wfn=True)
properties('b3lyp','MBIS_CHARGES', wfn=wfn)
wfn.to_file('last_wfn')
--------------------------------------------------------------------------

    Molecular point group: d2h
  Charge       = 1
  Multiplicity = 2
  Basis Set: CC-PVTZ
    Blend: CC-PVTZ
  Basis Set: (CC-PVTZ AUX)
    Blend: CC-PVTZ-JKFIT
  @DF-UKS Final Energy:  -149.90899505705721
    Total Energy =                       -149.9089950570571830
 Dipole X            :          0.0000000            0.0000000            0.0000000
 Dipole Y            :          0.0000000            0.0000000            0.0000000
 Dipole Z            :          0.0000000            0.0000000            0.0000000
 Magnitude           :                                                    0.0000000
    Molecular point group: d2h

    Geometry (in Angstrom), charge = 1, multiplicity = 2:

       Center              X                  Y                   Z               Mass
    ------------   -----------------  -----------------  -----------------  -----------------
         O            0.000000000000     0.000000000000    -0.596054500000    15.994914619570
         O            0.000000000000     0.000000000000     0.596054500000    15.994914619570

  Charge       = 1
  Multiplicity = 2
  Basis Set: CC-PVTZ
    Blend: CC-PVTZ
  Basis Set: (CC-PVTZ AUX)
    Blend: CC-PVTZ-JKFIT

    Orbital Energies [Eh]
    ---------------------

    Alpha Occupied:

       1Ag   -19.822927     1B1u  -19.822613     2Ag    -1.790494
       2B1u   -1.274579     1B3u   -1.026197     3Ag    -1.004543
       1B2u   -0.986611     1B2g   -0.763036

    Alpha Virtual:

       1B3g   -0.637188     3B1u   -0.228317     2B3u    0.148818
       2B2u    0.151964     4B1u    0.155149     4Ag     0.220027
       5Ag     0.271015     2B2g    0.285149     2B3g    0.292643
       1B1g    0.788115     6Ag     0.789389     5B1u    0.844152
       3B2u    0.871307     3B3u    0.873009     1Au     1.204727
       6B1u    1.206373     7Ag     1.690179     7B1u    1.736843
       3B2g    1.766931     3B3g    1.768684     4B3u    2.931277
       4B2u    2.948743     8Ag     3.109364     4B2g    3.221447
       4B3g    3.235643     2B1g    4.096862     9Ag     4.098165
       5B2u    4.176497     5B3u    4.182176     8B1u    4.262731
      10Ag     4.416642     6B3u    4.428073     6B2u    4.428360
       5B2g    4.686984     5B3g    4.687283     2Au     5.236393
       9B1u    5.237823    10B1u    5.271949     3B1g    5.523308
      11Ag     5.527442     3Au     5.756955    11B1u    5.760695
       6B2g    5.804004     6B3g    5.813995     7B3u    5.913412
       7B2u    5.920222    12B1u    6.197350    12Ag     6.475648
       7B3g    6.760463     7B2g    6.763887    13Ag     7.093557
      13B1u   11.973128

    Beta Occupied:

       1Ag   -19.806424     1B1u  -19.806030     2Ag    -1.761566
       2B1u   -1.227673     3Ag    -0.983505     1B2u   -0.972742
       1B3u   -0.928171

    Beta Virtual:

       1B3g   -0.619372     1B2g   -0.570540     3B1u   -0.205056
       2B2u    0.156220     4B1u    0.161489     2B3u    0.176477
       4Ag     0.222722     5Ag     0.283060     2B3g    0.297460
       2B2g    0.316008     1B1g    0.810165     6Ag     0.810275
       5B1u    0.859699     3B2u    0.873287     3B3u    0.901176
       1Au     1.236780     6B1u    1.236842     7Ag     1.706426
       7B1u    1.746613     3B3g    1.772735     3B2g    1.799029
       4B2u    2.959935     4B3u    2.998675     8Ag     3.120210
       4B3g    3.247889     4B2g    3.289220     9Ag     4.117742
       2B1g    4.118138     5B2u    4.180160     5B3u    4.211347
       8B1u    4.280565    10Ag     4.433934     6B2u    4.465476
       6B3u    4.465539     5B3g    4.726261     5B2g    4.726280
       9B1u    5.268066     2Au     5.268609    10B1u    5.293065
      11Ag     5.583406     3B1g    5.583460     3Au     5.811309
      11B1u    5.811917     6B3g    5.821237     6B2g    5.859764
       7B2u    5.926685     7B3u    5.965939    12B1u    6.213979
      12Ag     6.497214     7B3g    6.764144     7B2g    6.796598
      13Ag     7.115941    13B1u   11.996067

    Final Occupation by Irrep:
             Ag   B1g   B2g   B3g    Au   B1u   B2u   B3u
    DOCC [     3,    0,    0,    0,    0,    2,    1,    1 ]
    SOCC [     0,    0,    1,    0,    0,    0,    0,    0 ]
    NA   [     3,    0,    1,    0,    0,    2,    1,    1 ]
    NB   [     3,    0,    0,    0,    0,    2,    1,    1 ]

  @DF-UKS Final Energy:  -149.90899505661915

   => Energetics <=

    Nuclear Repulsion Energy =             28.4096013727603740
    One-Electron Energy =                -255.0514353502554741
    Two-Electron Energy =                  90.1028871936182725
    DFT Exchange-Correlation Energy =     -13.3700482727423182
    Empirical Dispersion Energy =           0.0000000000000000
    VV10 Nonlocal Energy =                  0.0000000000000000
    Total Energy =                       -149.9089950566191476

  UHF NO Occupations:
  HONO-2 :    2B1u 1.9997139
  HONO-1 :    1B3u 1.9990205
  HONO-0 :    1B2g 1.0000000
  LUNO+0 :    2B3u 0.0009795
  LUNO+1 :    3B1u 0.0002861
  LUNO+2 :    4 Ag 0.0001443
  LUNO+3 :    2B2u 0.0000334

Computation Completed

Properties will be evaluated at   0.000000,   0.000000,   0.000000 [a0]

Properties computed using the B3LYP density matrix

 Multipole Moments:

 ------------------------------------------------------------------------------------
     Multipole            Electronic (a.u.)      Nuclear  (a.u.)        Total (a.u.)
 ------------------------------------------------------------------------------------

 L = 1.  Multiply by 2.5417464519 to convert [e a0] to [Debye]
 Dipole X            :          0.0000000            0.0000000            0.0000000
 Dipole Y            :          0.0000000            0.0000000            0.0000000
 Dipole Z            :          0.0000000            0.0000000            0.0000000
 Magnitude           :                                                    0.0000000

 L = 2.  Multiply by 1.3450342976 to convert [e a0^2] to [Debye ang]
 Quadrupole XX       :         -6.2543901            0.0000000           -6.2543901
 Quadrupole XY       :          0.0000000            0.0000000            0.0000000
 Quadrupole XZ       :          0.0000000            0.0000000            0.0000000
 Quadrupole YY       :         -5.7108956            0.0000000           -5.7108956
 Quadrupole YZ       :          0.0000000            0.0000000            0.0000000
 Quadrupole ZZ       :        -25.0695488           20.2997019           -4.7698469
 Traceless XX        :          6.0905547           -6.7665673           -0.6760126
 Traceless YY        :          6.6340492           -6.7665673           -0.1325181
 Traceless ZZ        :        -12.7246040           13.5331346            0.8085306

 ------------------------------------------------------------------------------------
  ==> Computing MBIS Charges <==

  Electron Count from Grid (Expected Number): 15.00000 (15.00000)
  Difference:  0.00000

  MBIS Charges: (a.u.)
   Center  Symbol  Z      Pop.       Charge
      1       O    8    7.500000    0.500000
      2       O    8    7.500000    0.500000

  MBIS Dipoles: [e a0]
   Center  Symbol  Z        X           Y           Z
      1       O    8    0.000000    0.000000   -0.026283
      2       O    8   -0.000000    0.000000    0.026283

  MBIS Quadrupoles: [e a0^2]
   Center  Symbol  Z      XX        XY        XZ        YY        YZ        ZZ
      1       O    8   -3.1272   -0.0000    0.0000   -2.8554   -0.0000   -3.0785
      2       O    8   -3.1272   -0.0000   -0.0000   -2.8554    0.0000   -3.0785

  MBIS Octupoles: [e a0^3]
   Center  Symbol  Z      XXX       XXY       XXZ       XYY       XYZ       XZZ       YYY       YYZ       YZZ       ZZZ
      1       O    8   -0.0000   -0.0000   -0.0061   -0.0000    0.0000   -0.0000   -0.0000   -0.0745   -0.0000   -0.2597
      2       O    8   -0.0000   -0.0000    0.0061    0.0000   -0.0000   -0.0000    0.0000    0.0745   -0.0000    0.2597

  MBIS Radial Moments:
   Center  Symbol  Z      [a0^2]      [a0^3]      [a0^4]
      1       O    8    9.061141   15.628975   32.344155
      2       O    8    9.061141   15.628975   32.344155

  MBIS Valence Widths: [a0]
   Center  Symbol  Z     Width
      1       O    8    0.360379
      2       O    8    0.360379

*** tstop() called on Mac.lan at Sun Aug 10 18:13:31 2025
Module time:
	user time   =       3.74 seconds =       0.06 minutes
	system time =       2.23 seconds =       0.04 minutes
	total time  =          1 seconds =       0.02 minutes
Total time:
	user time   =      14.72 seconds =       0.25 minutes
	system time =       4.48 seconds =       0.07 minutes
	total time  =          2 seconds =       0.03 minutes

    Psi4 stopped on: Sunday, 10 August 2025 06:13PM
    Psi4 wall time for execution: 0:00:01.87

*** Psi4 exiting successfully. Buy a developer a beer!
