                               Psi4 1.9.1 release

  ==> Input File <==

--------------------------------------------------------------------------
molecule {
1 2
N           0.000000           0.000000           0.000000
N           0.000000           0.000000           0.865782
}

set {
basis              cc-pvtz
reference          uks
maxiter            500
DAMPING_PERCENTAGE 1
E_CONVERGENCE      1.0E-8
D_CONVERGENCE      1.0E-8
DIIS_MAX_VECS      400
MBIS_MAXITER       8000
guess              read
}

E, wfn = energy('b3lyp', restart_file='last_wfn', return_wfn=True)
properties('b3lyp','MBIS_CHARGES', wfn=wfn)
wfn.to_file('last_wfn')
--------------------------------------------------------------------------

    Molecular point group: d2h
  Charge       = 1
  Multiplicity = 2
  Basis Set: CC-PVTZ
    Blend: CC-PVTZ
  Basis Set: (CC-PVTZ AUX)
    Blend: CC-PVTZ-JKFIT
  @DF-UKS Final Energy:  -108.71335300234946
    Total Energy =                       -108.7133530023494643
 Dipole X            :          0.0000000            0.0000000            0.0000000
 Dipole Y            :          0.0000000            0.0000000            0.0000000
 Dipole Z            :          0.0000000            0.0000000            0.0000000
 Magnitude           :                                                    0.0000000
    Molecular point group: d2h

    Geometry (in Angstrom), charge = 1, multiplicity = 2:

       Center              X                  Y                   Z               Mass
    ------------   -----------------  -----------------  -----------------  -----------------
         N            0.000000000000     0.000000000000    -0.432891000000    14.003074004430
         N            0.000000000000     0.000000000000     0.432891000000    14.003074004430

  Charge       = 1
  Multiplicity = 2
  Basis Set: CC-PVTZ
    Blend: CC-PVTZ
  Basis Set: (CC-PVTZ AUX)
    Blend: CC-PVTZ-JKFIT

    Orbital Energies [Eh]
    ---------------------

    Alpha Occupied:

       1Ag   -14.878566     1B1u  -14.862226     2Ag    -1.728656
       1B2u   -1.012352     1B3u   -1.012352     2B1u   -0.963621
       3Ag    -0.933582

    Alpha Virtual:

       1B2g   -0.317706     1B3g   -0.317706     3B1u    0.020583
       2B3u    0.035790     2B2u    0.035790     4Ag     0.077595
       5Ag     0.134789     2B3g    0.249418     2B2g    0.249418
       6Ag     0.444437     1B1g    0.444437     4B1u    0.467053
       5B1u    0.822704     3B2u    0.842444     3B3u    0.842444
       6B1u    0.976057     1Au     0.976057     7Ag     1.212768
       3B3g    1.324652     3B2g    1.324652     7B1u    2.103442
       4B3u    2.221567     4B2u    2.221567     8Ag     2.684265
       4B2g    2.894995     4B3g    2.894995     8B1u    2.951809
       5B2u    3.068531     5B3u    3.068531     9Ag     3.120715
       2B1g    3.120715     6B2u    3.393832     6B3u    3.393832
      10Ag     3.669430     5B3g    3.843768     5B2g    3.843768
       6B3g    3.864859     6B2g    3.864859    11Ag     3.968650
       3B1g    3.968651     9B1u    3.996799     2Au     3.996800
      12Ag     4.353659    10B1u    4.673046     7B2u    4.907472
       7B3u    4.907472    11B1u    5.104434     3Au     5.104434
      12B1u    6.205906     7B2g    6.959794     7B3g    6.959794
      13Ag     7.864080    13B1u   24.073672

    Beta Occupied:

       1Ag   -14.864239     1B1u  -14.848698     2Ag    -1.696987
       1B2u   -0.997802     1B3u   -0.997802     2B1u   -0.867546

    Beta Virtual:

       3Ag    -0.752855     1B2g   -0.290769     1B3g   -0.290769
       3B1u    0.033037     2B3u    0.040492     2B2u    0.040492
       4Ag     0.094179     5Ag     0.164603     2B3g    0.257189
       2B2g    0.257189     6Ag     0.450568     1B1g    0.450568
       4B1u    0.496664     5B1u    0.849235     3B2u    0.874899
       3B3u    0.874899     6B1u    0.989387     1Au     0.989387
       7Ag     1.250660     3B3g    1.346074     3B2g    1.346074
       7B1u    2.154846     4B3u    2.232426     4B2u    2.232426
       8Ag     2.714527     4B2g    2.906276     4B3g    2.906276
       8B1u    2.990833     5B2u    3.074944     5B3u    3.074944
       9Ag     3.129318     2B1g    3.129318     6B2u    3.439776
       6B3u    3.439776    10Ag     3.750200     5B3g    3.876446
       5B2g    3.876446     6B3g    3.902581     6B2g    3.902581
      11Ag     3.996995     3B1g    3.996995     9B1u    4.025406
       2Au     4.025407    12Ag     4.393662    10B1u    4.727584
       7B2u    4.954380     7B3u    4.954380    11B1u    5.121797
       3Au     5.121797    12B1u    6.263786     7B2g    6.997199
       7B3g    6.997199    13Ag     7.890485    13B1u   24.095648

    Final Occupation by Irrep:
             Ag   B1g   B2g   B3g    Au   B1u   B2u   B3u
    DOCC [     2,    0,    0,    0,    0,    2,    1,    1 ]
    SOCC [     1,    0,    0,    0,    0,    0,    0,    0 ]
    NA   [     3,    0,    0,    0,    0,    2,    1,    1 ]
    NB   [     2,    0,    0,    0,    0,    2,    1,    1 ]

  @DF-UKS Final Energy:  -108.71335300255980

   => Energetics <=

    Nuclear Repulsion Energy =             29.9494368360973198
    One-Electron Energy =                -199.7160591528728162
    Two-Electron Energy =                  72.1056477378863150
    DFT Exchange-Correlation Energy =     -11.0523784236706053
    Empirical Dispersion Energy =           0.0000000000000000
    VV10 Nonlocal Energy =                  0.0000000000000000
    Total Energy =                       -108.7133530025597992

  UHF NO Occupations:
  HONO-2 :    2 Ag 1.9999197
  HONO-1 :    2B1u 1.9990930
  HONO-0 :    3 Ag 1.0000000
  LUNO+0 :    3B1u 0.0009070
  LUNO+1 :    4 Ag 0.0000803
  LUNO+2 :    2B3u 0.0000600
  LUNO+3 :    2B2u 0.0000600

Computation Completed

Properties will be evaluated at   0.000000,   0.000000,   0.000000 [a0]

Properties computed using the B3LYP density matrix

 Multipole Moments:

 ------------------------------------------------------------------------------------
     Multipole            Electronic (a.u.)      Nuclear  (a.u.)        Total (a.u.)
 ------------------------------------------------------------------------------------

 L = 1.  Multiply by 2.5417464519 to convert [e a0] to [Debye]
 Dipole X            :          0.0000000            0.0000000            0.0000000
 Dipole Y            :          0.0000000            0.0000000            0.0000000
 Dipole Z            :          0.0000000            0.0000000            0.0000000
 Magnitude           :                                                    0.0000000

 L = 2.  Multiply by 1.3450342976 to convert [e a0^2] to [Debye ang]
 Quadrupole XX       :         -5.5738130            0.0000000           -5.5738130
 Quadrupole XY       :          0.0000000            0.0000000            0.0000000
 Quadrupole XZ       :          0.0000000            0.0000000            0.0000000
 Quadrupole YY       :         -5.5738130            0.0000000           -5.5738130
 Quadrupole YZ       :          0.0000000            0.0000000            0.0000000
 Quadrupole ZZ       :        -14.2786009            9.3687766           -4.9098243
 Traceless XX        :          2.9015960           -3.1229255           -0.2213296
 Traceless YY        :          2.9015960           -3.1229255           -0.2213296
 Traceless ZZ        :         -5.8031919            6.2458511            0.4426591

 ------------------------------------------------------------------------------------
  ==> Computing MBIS Charges <==

  Electron Count from Grid (Expected Number): 13.00000 (13.00000)
  Difference: -0.00000

  MBIS Charges: (a.u.)
   Center  Symbol  Z      Pop.       Charge
      1       N    7    6.500000    0.500000
      2       N    7    6.500000    0.500000

  MBIS Dipoles: [e a0]
   Center  Symbol  Z        X           Y           Z
      1       N    7   -0.000000   -0.000000   -0.147100
      2       N    7    0.000000    0.000000    0.147100

  MBIS Quadrupoles: [e a0^2]
   Center  Symbol  Z      XX        XY        XZ        YY        YZ        ZZ
      1       N    7   -2.7869   -0.0000    0.0000   -2.7869    0.0000   -3.0302
      2       N    7   -2.7869    0.0000   -0.0000   -2.7869   -0.0000   -3.0302

  MBIS Octupoles: [e a0^3]
   Center  Symbol  Z      XXX       XXY       XXZ       XYY       XYZ       XZZ       YYY       YYZ       YZZ       ZZZ
      1       N    7    0.0000    0.0000   -0.0547   -0.0000    0.0000    0.0000   -0.0000   -0.0547    0.0000   -0.0367
      2       N    7    0.0000    0.0000    0.0547   -0.0000   -0.0000   -0.0000   -0.0000    0.0547    0.0000    0.0367

  MBIS Radial Moments:
   Center  Symbol  Z      [a0^2]      [a0^3]      [a0^4]
      1       N    7    8.603994   15.670200   34.152915
      2       N    7    8.603994   15.670200   34.152915

  MBIS Valence Widths: [a0]
   Center  Symbol  Z     Width
      1       N    7    0.384688
      2       N    7    0.384688

*** tstop() called on Mac.lan at Sun Aug 10 18:24:34 2025
Module time:
	user time   =       3.18 seconds =       0.05 minutes
	system time =       2.42 seconds =       0.04 minutes
	total time  =          0 seconds =       0.00 minutes
Total time:
	user time   =      13.82 seconds =       0.23 minutes
	system time =       4.42 seconds =       0.07 minutes
	total time  =          2 seconds =       0.03 minutes

    Psi4 stopped on: Sunday, 10 August 2025 06:24PM
    Psi4 wall time for execution: 0:00:01.78

*** Psi4 exiting successfully. Buy a developer a beer!
