                               Psi4 1.9.1 release

  ==> Input File <==

--------------------------------------------------------------------------
molecule {
1 2
H           0.000000           0.000000           0.000000
H           0.000000           0.000000           1.179688
}

set {
basis              cc-pvtz
reference          uks
maxiter            500
DAMPING_PERCENTAGE 1
E_CONVERGENCE      1.0E-8
D_CONVERGENCE      1.0E-8
DIIS_MAX_VECS      400
MBIS_MAXITER       8000
guess              read
}

E, wfn = energy('b3lyp', restart_file='last_wfn', return_wfn=True)
properties('b3lyp','MBIS_CHARGES', wfn=wfn)
wfn.to_file('last_wfn')
--------------------------------------------------------------------------

    Molecular point group: d2h
  Charge       = 1
  Multiplicity = 2
  Basis Set: CC-PVTZ
    Blend: CC-PVTZ
  Basis Set: (CC-PVTZ AUX)
    Blend: CC-PVTZ-JKFIT
  @DF-UKS Final Energy:    -0.60972662474126
    Total Energy =                         -0.6097266247412615
 Dipole X            :          0.0000000            0.0000000            0.0000000
 Dipole Y            :          0.0000000            0.0000000            0.0000000
 Dipole Z            :          0.0000000            0.0000000            0.0000000
 Magnitude           :                                                    0.0000000
    Molecular point group: d2h

    Geometry (in Angstrom), charge = 1, multiplicity = 2:

       Center              X                  Y                   Z               Mass
    ------------   -----------------  -----------------  -----------------  -----------------
         H            0.000000000000     0.000000000000    -0.589844000000     1.007825032230
         H            0.000000000000     0.000000000000     0.589844000000     1.007825032230

  Charge       = 1
  Multiplicity = 2
  Basis Set: CC-PVTZ
    Blend: CC-PVTZ
  Basis Set: (CC-PVTZ AUX)
    Blend: CC-PVTZ-JKFIT

    Orbital Energies [Eh]
    ---------------------

    Alpha Occupied:

       1Ag    -0.877270

    Alpha Virtual:

       1B1u   -0.453897     2Ag    -0.081185     2B1u    0.026687
       1B2u    0.069606     1B3u    0.069606     3Ag     0.336529
       1B3g    0.441082     1B2g    0.441082     3B1u    0.866044
       4Ag     1.747815     4B1u    1.896319     2B3u    2.336171
       2B2u    2.336171     5Ag     2.390342     6Ag     2.521550
       1B1g    2.521550     5B1u    2.922501     1Au     2.922502
       3B2u    3.073293     3B3u    3.073293     2B2g    3.147094
       2B3g    3.147094     6B1u    3.288074     3B3g    3.729382
       3B2g    3.729382     7Ag     3.841069     7B1u    4.995453

    Beta Occupied:

    Beta Virtual:

       1Ag    -0.540894     1B1u   -0.258227     2Ag     0.010577
       2B1u    0.141277     1B2u    0.208841     1B3u    0.208841
       3Ag     0.477906     1B3g    0.557682     1B2g    0.557682
       3B1u    0.988034     4Ag     2.046972     4B1u    2.187012
       2B2u    2.541642     2B3u    2.541642     5Ag     2.653879
       1B1g    2.707702     6Ag     2.707703     1Au     3.106547
       5B1u    3.106547     3B2u    3.320973     3B3u    3.320973
       2B3g    3.402123     2B2g    3.402123     6B1u    3.517927
       3B3g    3.922386     3B2g    3.922386     7Ag     4.068029
       7B1u    5.232837

    Final Occupation by Irrep:
             Ag   B1g   B2g   B3g    Au   B1u   B2u   B3u
    DOCC [     0,    0,    0,    0,    0,    0,    0,    0 ]
    SOCC [     1,    0,    0,    0,    0,    0,    0,    0 ]
    NA   [     1,    0,    0,    0,    0,    0,    0,    0 ]
    NB   [     0,    0,    0,    0,    0,    0,    0,    0 ]

  @DF-UKS Final Energy:    -0.60972662470153

   => Energetics <=

    Nuclear Repulsion Energy =              0.4485738692518700
    One-Electron Energy =                  -1.0473510845261296
    Two-Electron Energy =                   0.2509682054913586
    DFT Exchange-Correlation Energy =      -0.2619176149186337
    Empirical Dispersion Energy =           0.0000000000000000
    VV10 Nonlocal Energy =                  0.0000000000000000
    Total Energy =                         -0.6097266247015347

  UHF NO Occupations:
  HONO-0 :    1 Ag 1.0000000
  LUNO+0 :    2 Ag 0.0000000
  LUNO+1 :    3 Ag 0.0000000
  LUNO+2 :    4 Ag 0.0000000
  LUNO+3 :    3B3u 0.0000000

Computation Completed

Properties will be evaluated at   0.000000,   0.000000,   0.000000 [a0]

Properties computed using the B3LYP density matrix

 Multipole Moments:

 ------------------------------------------------------------------------------------
     Multipole            Electronic (a.u.)      Nuclear  (a.u.)        Total (a.u.)
 ------------------------------------------------------------------------------------

 L = 1.  Multiply by 2.5417464519 to convert [e a0] to [Debye]
 Dipole X            :          0.0000000            0.0000000            0.0000000
 Dipole Y            :          0.0000000            0.0000000            0.0000000
 Dipole Z            :          0.0000000            0.0000000            0.0000000
 Magnitude           :                                                    0.0000000

 L = 2.  Multiply by 1.3450342976 to convert [e a0^2] to [Debye ang]
 Quadrupole XX       :         -0.6663334            0.0000000           -0.6663334
 Quadrupole XY       :          0.0000000            0.0000000            0.0000000
 Quadrupole XZ       :          0.0000000            0.0000000            0.0000000
 Quadrupole YY       :         -0.6663334            0.0000000           -0.6663334
 Quadrupole YZ       :          0.0000000            0.0000000            0.0000000
 Quadrupole ZZ       :         -1.3679252            2.4848608            1.1169356
 Traceless XX        :          0.2338639           -0.8282869           -0.5944230
 Traceless YY        :          0.2338639           -0.8282869           -0.5944230
 Traceless ZZ        :         -0.4677278            1.6565739            1.1888460

 ------------------------------------------------------------------------------------
  ==> Computing MBIS Charges <==

  Electron Count from Grid (Expected Number):  1.00000 ( 1.00000)
  Difference: -0.00000

  MBIS Charges: (a.u.)
   Center  Symbol  Z      Pop.       Charge
      1       H    1    0.500000    0.500000
      2       H    1    0.500000    0.500000

  MBIS Dipoles: [e a0]
   Center  Symbol  Z        X           Y           Z
      1       H    1    0.000000   -0.000000   -0.117623
      2       H    1   -0.000000    0.000000    0.117623

  MBIS Quadrupoles: [e a0^2]
   Center  Symbol  Z      XX        XY        XZ        YY        YZ        ZZ
      1       H    1   -0.3332    0.0000   -0.0000   -0.3332   -0.0000   -0.3250
      2       H    1   -0.3332    0.0000    0.0000   -0.3332    0.0000   -0.3250

  MBIS Octupoles: [e a0^3]
   Center  Symbol  Z      XXX       XXY       XXZ       XYY       XYZ       XZZ       YYY       YYZ       YZZ       ZZZ
      1       H    1    0.0000    0.0000   -0.0838    0.0000   -0.0000    0.0000    0.0000   -0.0838    0.0000   -0.1757
      2       H    1    0.0000    0.0000    0.0838    0.0000    0.0000    0.0000    0.0000    0.0838    0.0000    0.1757

  MBIS Radial Moments:
   Center  Symbol  Z      [a0^2]      [a0^3]      [a0^4]
      1       H    1    0.991295    1.931827    4.467191
      2       H    1    0.991295    1.931827    4.467191

  MBIS Valence Widths: [a0]
   Center  Symbol  Z     Width
      1       H    1    0.413992
      2       H    1    0.413992

*** tstop() called on Mac.lan at Sun Aug 10 18:11:35 2025
Module time:
	user time   =       0.39 seconds =       0.01 minutes
	system time =       1.55 seconds =       0.03 minutes
	total time  =          0 seconds =       0.00 minutes
Total time:
	user time   =       1.01 seconds =       0.02 minutes
	system time =       3.75 seconds =       0.06 minutes
	total time  =          0 seconds =       0.00 minutes

    Psi4 stopped on: Sunday, 10 August 2025 06:11PM
    Psi4 wall time for execution: 0:00:00.62

*** Psi4 exiting successfully. Buy a developer a beer!
