                               Psi4 1.9.1 release

  ==> Input File <==

--------------------------------------------------------------------------
molecule {
1 2
O           0.000000           0.000000           0.000000
C           0.000000           0.000000           0.869870
}

set {
basis              cc-pvtz
reference          uks
maxiter            500
DAMPING_PERCENTAGE 1
E_CONVERGENCE      1.0E-8
D_CONVERGENCE      1.0E-8
DIIS_MAX_VECS      400
MBIS_MAXITER       8000
guess              read
}

E, wfn = energy('b3lyp', restart_file='last_wfn', return_wfn=True)
properties('b3lyp','MBIS_CHARGES', wfn=wfn)
wfn.to_file('last_wfn')
--------------------------------------------------------------------------

    Molecular point group: c2v
  Charge       = 1
  Multiplicity = 2
  Basis Set: CC-PVTZ
    Blend: CC-PVTZ
  Basis Set: (CC-PVTZ AUX)
    Blend: CC-PVTZ-JKFIT
  @DF-UKS Final Energy:  -112.57510644230770
    Total Energy =                       -112.5751064423076997
 Dipole X            :          0.0000000            0.0000000            0.0000000
 Dipole Y            :          0.0000000            0.0000000            0.0000000
 Dipole Z            :          0.8951893           -0.0017916            0.8933977
 Magnitude           :                                                    0.8933977
    Molecular point group: c2v

    Geometry (in Angstrom), charge = 1, multiplicity = 2:

       Center              X                  Y                   Z               Mass
    ------------   -----------------  -----------------  -----------------  -----------------
         O            0.000000000000     0.000000000000    -0.372869149338    15.994914619570
         C            0.000000000000     0.000000000000     0.497000850662    12.000000000000

  Charge       = 1
  Multiplicity = 2
  Basis Set: CC-PVTZ
    Blend: CC-PVTZ
  Basis Set: (CC-PVTZ AUX)
    Blend: CC-PVTZ-JKFIT

    Orbital Energies [Eh]
    ---------------------

    Alpha Occupied:

       1A1   -19.617598     2A1   -10.730609     3A1    -1.710458
       1B1    -0.988068     1B2    -0.988068     4A1    -0.934201
       5A1    -0.876049

    Alpha Virtual:

       2B2    -0.310690     2B1    -0.310690     6A1    -0.103339
       7A1    -0.025222     3B1    -0.022099     3B2    -0.022099
       8A1     0.239807     1A2     0.267858     9A1     0.267858
       4B2     0.325608     4B1     0.325608    10A1     0.458638
       5B2     0.595661     5B1     0.595661    11A1     0.891688
      12A1     1.225368     2A2     1.225368    13A1     1.321818
       6B2     1.383924     6B1     1.383924    14A1     1.569457
       7B2     1.731587     7B1     1.731587     8B1     2.206453
       8B2     2.206453    15A1     2.286514     3A2     2.422206
      16A1     2.422206     9B1     2.532832     9B2     2.532832
      17A1     2.609947     4A2     2.609947    18A1     2.653605
      10B2     3.182872    10B1     3.182872    19A1     3.425718
      11B2     3.862140    11B1     3.862140    12B2     4.778561
      12B1     4.778561    20A1     5.006957     5A2     5.568901
      21A1     5.568901     6A2     5.899527    22A1     5.899528
      23A1     5.929538    13B2     6.152820    13B1     6.152820
      24A1     6.633215    14B2     6.727722    14B1     6.727722
      25A1     8.558388    26A1    15.332827

    Beta Occupied:

       1A1   -19.618205     2A1   -10.705461     3A1    -1.703931
       1B1    -0.979008     1B2    -0.979008     4A1    -0.932312

    Beta Virtual:

       5A1    -0.629869     2B2    -0.266983     2B1    -0.266983
       6A1    -0.090308     3B1    -0.010083     3B2    -0.010083
       7A1     0.016958     8A1     0.258104     1A2     0.287565
       9A1     0.287565     4B2     0.327981     4B1     0.327981
      10A1     0.507047     5B2     0.628993     5B1     0.628993
      11A1     0.896798     2A2     1.227802    12A1     1.227803
      13A1     1.390977     6B2     1.404556     6B1     1.404556
      14A1     1.603245     7B2     1.753842     7B1     1.753842
       8B1     2.240898     8B2     2.240898    15A1     2.339018
       3A2     2.480650    16A1     2.480650     9B1     2.640543
       9B2     2.640543     4A2     2.655921    17A1     2.655924
      18A1     2.746042    10B2     3.203438    10B1     3.203438
      19A1     3.477424    11B2     3.882642    11B1     3.882642
      12B2     4.774486    12B1     4.774486    20A1     5.027453
       5A2     5.572369    21A1     5.572370     6A2     5.893864
      22A1     5.893865    23A1     5.946254    13B2     6.154232
      13B1     6.154232    24A1     6.642635    14B2     6.750706
      14B1     6.750706    25A1     8.571789    26A1    15.365102

    Final Occupation by Irrep:
             A1    A2    B1    B2
    DOCC [     4,    0,    1,    1 ]
    SOCC [     1,    0,    0,    0 ]
    NA   [     5,    0,    1,    1 ]
    NB   [     4,    0,    1,    1 ]

  @DF-UKS Final Energy:  -112.57510644266058

   => Energetics <=

    Nuclear Repulsion Energy =             29.2003473072528124
    One-Electron Energy =                -204.6998524958277699
    Two-Electron Energy =                  74.1819617764613639
    DFT Exchange-Correlation Energy =     -11.2575630305469705
    Empirical Dispersion Energy =           0.0000000000000000
    VV10 Nonlocal Energy =                  0.0000000000000000
    Total Energy =                       -112.5751064426605836

  UHF NO Occupations:
  HONO-2 :    1 B2 1.9987105
  HONO-1 :    1 B1 1.9987105
  HONO-0 :    5 A1 1.0000000
  LUNO+0 :    2 B2 0.0012895
  LUNO+1 :    2 B1 0.0012895
  LUNO+2 :    6 A1 0.0000133
  LUNO+3 :    7 A1 0.0000067

Computation Completed

Properties will be evaluated at   0.000000,   0.000000,   0.000000 [a0]

Properties computed using the B3LYP density matrix

 Multipole Moments:

 ------------------------------------------------------------------------------------
     Multipole            Electronic (a.u.)      Nuclear  (a.u.)        Total (a.u.)
 ------------------------------------------------------------------------------------

 L = 1.  Multiply by 2.5417464519 to convert [e a0] to [Debye]
 Dipole X            :          0.0000000            0.0000000            0.0000000
 Dipole Y            :          0.0000000            0.0000000            0.0000000
 Dipole Z            :          0.8951893           -0.0017916            0.8933977
 Magnitude           :                                                    0.8933977

 L = 2.  Multiply by 1.3450342976 to convert [e a0^2] to [Debye ang]
 Quadrupole XX       :         -5.3716541            0.0000000           -5.3716541
 Quadrupole XY       :          0.0000000            0.0000000            0.0000000
 Quadrupole XZ       :          0.0000000            0.0000000            0.0000000
 Quadrupole YY       :         -5.3716541            0.0000000           -5.3716541
 Quadrupole YZ       :          0.0000000            0.0000000            0.0000000
 Quadrupole ZZ       :        -13.8226976            9.2644502           -4.5582474
 Traceless XX        :          2.8170145           -3.0881501           -0.2711356
 Traceless YY        :          2.8170145           -3.0881501           -0.2711356
 Traceless ZZ        :         -5.6340290            6.1763002            0.5422712

 ------------------------------------------------------------------------------------
  ==> Computing MBIS Charges <==

  Electron Count from Grid (Expected Number): 13.00000 (13.00000)
  Difference: -0.00000

  MBIS Charges: (a.u.)
   Center  Symbol  Z      Pop.       Charge
      1       O    8    8.062683   -0.062683
      2       C    6    4.937316    1.062684

  MBIS Dipoles: [e a0]
   Center  Symbol  Z        X           Y           Z
      1       O    8    0.000000   -0.000000   -0.216887
      2       C    6    0.000000    0.000000    0.068048

  MBIS Quadrupoles: [e a0^2]
   Center  Symbol  Z      XX        XY        XZ        YY        YZ        ZZ
      1       O    8   -3.1619   -0.0000   -0.0000   -3.1619   -0.0000   -3.4484
      2       C    6   -2.2097   -0.0000    0.0000   -2.2097    0.0000   -2.4496

  MBIS Octupoles: [e a0^3]
   Center  Symbol  Z      XXX       XXY       XXZ       XYY       XYZ       XZZ       YYY       YYZ       YZZ       ZZZ
      1       O    8   -0.0000    0.0000   -0.1348   -0.0000   -0.0000    0.0000    0.0000   -0.1348    0.0000   -0.1653
      2       C    6   -0.0000    0.0000   -0.0034   -0.0000    0.0000   -0.0000    0.0000   -0.0034    0.0000   -0.1996

  MBIS Radial Moments:
   Center  Symbol  Z      [a0^2]      [a0^3]      [a0^4]
      1       O    8    9.772167   16.655459   33.976741
      2       C    6    6.869115   13.513945   31.849290

  MBIS Valence Widths: [a0]
   Center  Symbol  Z     Width
      1       O    8    0.356873
      2       C    6    0.416860

*** tstop() called on Mac.lan at Sun Aug 10 18:36:54 2025
Module time:
	user time   =       3.53 seconds =       0.06 minutes
	system time =       3.00 seconds =       0.05 minutes
	total time  =          1 seconds =       0.02 minutes
Total time:
	user time   =      17.53 seconds =       0.29 minutes
	system time =       4.87 seconds =       0.08 minutes
	total time  =          3 seconds =       0.05 minutes

    Psi4 stopped on: Sunday, 10 August 2025 06:36PM
    Psi4 wall time for execution: 0:00:02.19

*** Psi4 exiting successfully. Buy a developer a beer!
