                               Psi4 1.9.1 release

  ==> Input File <==

--------------------------------------------------------------------------
molecule {
1 2
N           0.000000           0.000000           0.000000
N           0.000000           0.000000           1.271617
}

set {
basis              cc-pvtz
reference          uks
maxiter            500
DAMPING_PERCENTAGE 1
E_CONVERGENCE      1.0E-8
D_CONVERGENCE      1.0E-8
DIIS_MAX_VECS      400
MBIS_MAXITER       8000
guess              read
}

E, wfn = energy('b3lyp', restart_file='last_wfn', return_wfn=True)
properties('b3lyp','MBIS_CHARGES', wfn=wfn)
wfn.to_file('last_wfn')
--------------------------------------------------------------------------

    Molecular point group: d2h
  Charge       = 1
  Multiplicity = 2
  Basis Set: CC-PVTZ
    Blend: CC-PVTZ
  Basis Set: (CC-PVTZ AUX)
    Blend: CC-PVTZ-JKFIT
  @DF-UKS Final Energy:  -108.93994818243017
    Total Energy =                       -108.9399481824301716
 Dipole X            :          0.0000000            0.0000000            0.0000000
 Dipole Y            :          0.0000000            0.0000000            0.0000000
 Dipole Z            :          0.0000000            0.0000000            0.0000000
 Magnitude           :                                                    0.0000000
    Molecular point group: d2h

    Geometry (in Angstrom), charge = 1, multiplicity = 2:

       Center              X                  Y                   Z               Mass
    ------------   -----------------  -----------------  -----------------  -----------------
         N            0.000000000000     0.000000000000    -0.635808500000    14.003074004430
         N            0.000000000000     0.000000000000     0.635808500000    14.003074004430

  Charge       = 1
  Multiplicity = 2
  Basis Set: CC-PVTZ
    Blend: CC-PVTZ
  Basis Set: (CC-PVTZ AUX)
    Blend: CC-PVTZ-JKFIT

    Orbital Energies [Eh]
    ---------------------

    Alpha Occupied:

       1Ag   -14.942757     1B1u  -14.942228     2Ag    -1.464319
       2B1u   -1.046365     3Ag    -0.890007     1B2u   -0.827661
       1B3u   -0.827661

    Alpha Virtual:

       1B3g   -0.508105     1B2g   -0.508105     3B1u   -0.116029
       2B3u    0.096629     2B2u    0.096629     4B1u    0.104249
       4Ag     0.119056     5Ag     0.136671     2B3g    0.211638
       2B2g    0.211638     1B1g    0.494766     6Ag     0.494766
       5B1u    0.541012     3B3u    0.604478     3B2u    0.604478
       1Au     0.847594     6B1u    0.847594     7Ag     1.256277
       3B3g    1.264858     3B2g    1.264858     7B1u    1.298905
       4B2u    2.302950     4B3u    2.302950     8Ag     2.414635
       4B3g    2.544815     4B2g    2.544815     2B1g    3.033606
       9Ag     3.033607     5B3u    3.088297     5B2u    3.088297
       8B1u    3.118919    10Ag     3.285226     6B3u    3.292724
       6B2u    3.292724     5B2g    3.569871     5B3g    3.569871
       9B1u    3.840030    11Ag     3.906323     3B1g    3.906323
      10B1u    3.974631     2Au     3.974632     6B3g    4.124511
       6B2g    4.124511     3Au     4.203267    11B1u    4.203268
       7B3u    4.302007     7B2u    4.302007    12B1u    4.731094
      12Ag     4.921742    13Ag     5.160457     7B3g    5.311074
       7B2g    5.311074    13B1u   10.571242

    Beta Occupied:

       1Ag   -14.929946     1B1u  -14.929577     2Ag    -1.433740
       2B1u   -0.962877     1B2u   -0.815297     1B3u   -0.815297

    Beta Virtual:

       3Ag    -0.708927     1B3g   -0.488108     1B2g   -0.488108
       3B1u   -0.082750     2B3u    0.100479     2B2u    0.100479
       4Ag     0.142806     4B1u    0.154332     5Ag     0.156333
       2B3g    0.216346     2B2g    0.216346     1B1g    0.497773
       6Ag     0.497773     5B1u    0.550184     3B3u    0.635511
       3B2u    0.635511     1Au     0.855143     6B1u    0.855143
       3B3g    1.293290     3B2g    1.293290     7Ag     1.296540
       7B1u    1.338544     4B2u    2.315532     4B3u    2.315532
       8Ag     2.461388     4B3g    2.552956     4B2g    2.552956
       2B1g    3.057936     9Ag     3.057937     5B3u    3.118682
       5B2u    3.118682     8B1u    3.166357     6B3u    3.297056
       6B2u    3.297056    10Ag     3.346646     5B2g    3.574555
       5B3g    3.574555     9B1u    3.895533    11Ag     3.916191
       3B1g    3.916192    10B1u    3.975140     2Au     3.975141
       6B3g    4.180253     6B2g    4.180253     3Au     4.236327
      11B1u    4.236328     7B3u    4.358271     7B2u    4.358271
      12B1u    4.793505    12Ag     4.937519    13Ag     5.231077
       7B3g    5.348380     7B2g    5.348380    13B1u   10.592039

    Final Occupation by Irrep:
             Ag   B1g   B2g   B3g    Au   B1u   B2u   B3u
    DOCC [     2,    0,    0,    0,    0,    2,    1,    1 ]
    SOCC [     1,    0,    0,    0,    0,    0,    0,    0 ]
    NA   [     3,    0,    0,    0,    0,    2,    1,    1 ]
    NB   [     2,    0,    0,    0,    0,    2,    1,    1 ]

  @DF-UKS Final Energy:  -108.93994818242182

   => Energetics <=

    Nuclear Repulsion Energy =             20.3911109420761072
    One-Electron Energy =                -182.1967847172693951
    Two-Electron Energy =                  63.4693263297930486
    DFT Exchange-Correlation Energy =     -10.6036007370215657
    Empirical Dispersion Energy =           0.0000000000000000
    VV10 Nonlocal Energy =                  0.0000000000000000
    Total Energy =                       -108.9399481824218157

  UHF NO Occupations:
  HONO-2 :    2 Ag 1.9998529
  HONO-1 :    2B1u 1.9972811
  HONO-0 :    3 Ag 1.0000000
  LUNO+0 :    3B1u 0.0027189
  LUNO+1 :    4 Ag 0.0001471
  LUNO+2 :    2B3u 0.0001045
  LUNO+3 :    2B2u 0.0001045

Computation Completed

Properties will be evaluated at   0.000000,   0.000000,   0.000000 [a0]

Properties computed using the B3LYP density matrix

 Multipole Moments:

 ------------------------------------------------------------------------------------
     Multipole            Electronic (a.u.)      Nuclear  (a.u.)        Total (a.u.)
 ------------------------------------------------------------------------------------

 L = 1.  Multiply by 2.5417464519 to convert [e a0] to [Debye]
 Dipole X            :          0.0000000            0.0000000            0.0000000
 Dipole Y            :          0.0000000            0.0000000            0.0000000
 Dipole Z            :          0.0000000            0.0000000            0.0000000
 Magnitude           :                                                    0.0000000

 L = 2.  Multiply by 1.3450342976 to convert [e a0^2] to [Debye ang]
 Quadrupole XX       :         -6.4965527            0.0000000           -6.4965527
 Quadrupole XY       :          0.0000000            0.0000000            0.0000000
 Quadrupole XZ       :          0.0000000            0.0000000            0.0000000
 Quadrupole YY       :         -6.4965527            0.0000000           -6.4965527
 Quadrupole YZ       :          0.0000000            0.0000000            0.0000000
 Quadrupole ZZ       :        -24.0564400           20.2105638           -3.8458761
 Traceless XX        :          5.8532958           -6.7368546           -0.8835588
 Traceless YY        :          5.8532958           -6.7368546           -0.8835588
 Traceless ZZ        :        -11.7065915           13.4737092            1.7671177

 ------------------------------------------------------------------------------------
  ==> Computing MBIS Charges <==

  Electron Count from Grid (Expected Number): 13.00000 (13.00000)
  Difference:  0.00000

  MBIS Charges: (a.u.)
   Center  Symbol  Z      Pop.       Charge
      1       N    7    6.500000    0.500000
      2       N    7    6.500000    0.500000

  MBIS Dipoles: [e a0]
   Center  Symbol  Z        X           Y           Z
      1       N    7   -0.000000    0.000000   -0.264887
      2       N    7    0.000000   -0.000000    0.264887

  MBIS Quadrupoles: [e a0^2]
   Center  Symbol  Z      XX        XY        XZ        YY        YZ        ZZ
      1       N    7   -3.2483    0.0000   -0.0000   -3.2483   -0.0000   -3.2813
      2       N    7   -3.2483    0.0000    0.0000   -3.2483   -0.0000   -3.2813

  MBIS Octupoles: [e a0^3]
   Center  Symbol  Z      XXX       XXY       XXZ       XYY       XYZ       XZZ       YYY       YYZ       YZZ       ZZZ
      1       N    7   -0.0000   -0.0000   -0.2962   -0.0000    0.0000    0.0000   -0.0000   -0.2962   -0.0000   -0.7414
      2       N    7   -0.0000   -0.0000    0.2962   -0.0000   -0.0000    0.0000   -0.0000    0.2962    0.0000    0.7414

  MBIS Radial Moments:
   Center  Symbol  Z      [a0^2]      [a0^3]      [a0^4]
      1       N    7    9.777822   18.999859   43.998614
      2       N    7    9.777822   18.999859   43.998614

  MBIS Valence Widths: [a0]
   Center  Symbol  Z     Width
      1       N    7    0.413104
      2       N    7    0.413104

*** tstop() called on Mac.lan at Sun Aug 10 18:25:18 2025
Module time:
	user time   =       4.06 seconds =       0.07 minutes
	system time =       1.99 seconds =       0.03 minutes
	total time  =          1 seconds =       0.02 minutes
Total time:
	user time   =      15.87 seconds =       0.26 minutes
	system time =       4.28 seconds =       0.07 minutes
	total time  =          2 seconds =       0.03 minutes

    Psi4 stopped on: Sunday, 10 August 2025 06:25PM
    Psi4 wall time for execution: 0:00:01.96

*** Psi4 exiting successfully. Buy a developer a beer!
