                               Psi4 1.9.1 release

  ==> Input File <==

--------------------------------------------------------------------------
molecule {
1 2
N           0.000000           0.000000           0.000000
N           0.000000           0.000000           0.845490
}

set {
basis              cc-pvtz
reference          uks
maxiter            500
DAMPING_PERCENTAGE 1
E_CONVERGENCE      1.0E-8
D_CONVERGENCE      1.0E-8
DIIS_MAX_VECS      400
MBIS_MAXITER       8000
guess              read
}

E, wfn = energy('b3lyp', restart_file='last_wfn', return_wfn=True)
properties('b3lyp','MBIS_CHARGES', wfn=wfn)
wfn.to_file('last_wfn')
--------------------------------------------------------------------------

    Molecular point group: d2h
  Charge       = 1
  Multiplicity = 2
  Basis Set: CC-PVTZ
    Blend: CC-PVTZ
  Basis Set: (CC-PVTZ AUX)
    Blend: CC-PVTZ-JKFIT
  @DF-UKS Final Energy:  -108.64575743075351
    Total Energy =                       -108.6457574307535054
 Dipole X            :          0.0000000            0.0000000            0.0000000
 Dipole Y            :          0.0000000            0.0000000            0.0000000
 Dipole Z            :          0.0000000            0.0000000            0.0000000
 Magnitude           :                                                    0.0000000
    Molecular point group: d2h

    Geometry (in Angstrom), charge = 1, multiplicity = 2:

       Center              X                  Y                   Z               Mass
    ------------   -----------------  -----------------  -----------------  -----------------
         N            0.000000000000     0.000000000000    -0.422745000000    14.003074004430
         N            0.000000000000     0.000000000000     0.422745000000    14.003074004430

  Charge       = 1
  Multiplicity = 2
  Basis Set: CC-PVTZ
    Blend: CC-PVTZ
  Basis Set: (CC-PVTZ AUX)
    Blend: CC-PVTZ-JKFIT

    Orbital Energies [Eh]
    ---------------------

    Alpha Occupied:

       1Ag   -14.877832     1B1u  -14.857762     2Ag    -1.738605
       1B2u   -1.026347     1B3u   -1.026347     2B1u   -0.958434
       3Ag    -0.936439

    Alpha Virtual:

       1B3g   -0.303950     1B2g   -0.303950     3B1u    0.020443
       2B2u    0.031631     2B3u    0.031631     4Ag     0.075414
       5Ag     0.136683     2B3g    0.253452     2B2g    0.253452
       6Ag     0.443270     1B1g    0.443270     4B1u    0.476929
       5B1u    0.853452     3B2u    0.855659     3B3u    0.855659
       6B1u    0.982935     1Au     0.982935     7Ag     1.202299
       3B2g    1.325542     3B3g    1.325542     7B1u    2.177486
       4B2u    2.204745     4B3u    2.204745     8Ag     2.706157
       4B2g    2.915720     4B3g    2.915720     8B1u    2.974023
       5B2u    3.060288     5B3u    3.060288     9Ag     3.127111
       2B1g    3.127112     6B2u    3.421321     6B3u    3.421321
      10Ag     3.681343     5B2g    3.848943     5B3g    3.848943
       6B3g    3.884889     6B2g    3.884889    11Ag     3.979424
       3B1g    3.979425     9B1u    3.982529     2Au     3.982529
      12Ag     4.335103    10B1u    4.699837     7B2u    4.952351
       7B3u    4.952351    11B1u    5.175414     3Au     5.175414
      12B1u    6.346665     7B2g    7.040486     7B3g    7.040486
      13Ag     8.018599    13B1u   24.713705

    Beta Occupied:

       1Ag   -14.863339     1B1u  -14.844166     2Ag    -1.706509
       1B2u   -1.011632     1B3u   -1.011632     2B1u   -0.862328

    Beta Virtual:

       3Ag    -0.755339     1B3g   -0.276888     1B2g   -0.276888
       3B1u    0.033012     2B2u    0.036407     2B3u    0.036407
       4Ag     0.092124     5Ag     0.166484     2B3g    0.261545
       2B2g    0.261545     6Ag     0.449632     1B1g    0.449632
       4B1u    0.505133     5B1u    0.880651     3B2u    0.888008
       3B3u    0.888008     6B1u    0.996416     1Au     0.996416
       7Ag     1.239964     3B2g    1.346506     3B3g    1.346506
       4B2u    2.215770     4B3u    2.215770     7B1u    2.231670
       8Ag     2.736266     4B2g    2.927413     4B3g    2.927413
       8B1u    3.010541     5B2u    3.066729     5B3u    3.066729
       9Ag     3.135007     2B1g    3.135008     6B2u    3.468958
       6B3u    3.468958    10Ag     3.761872     5B3g    3.896847
       5B2g    3.896847     6B2g    3.906856     6B3g    3.906856
      11Ag     4.008675     3B1g    4.008675     9B1u    4.012086
       2Au     4.012086    12Ag     4.375206    10B1u    4.754777
       7B2u    4.998013     7B3u    4.998013    11B1u    5.192370
       3Au     5.192371    12B1u    6.404255     7B2g    7.078509
       7B3g    7.078509    13Ag     8.045054    13B1u   24.735979

    Final Occupation by Irrep:
             Ag   B1g   B2g   B3g    Au   B1u   B2u   B3u
    DOCC [     2,    0,    0,    0,    0,    2,    1,    1 ]
    SOCC [     1,    0,    0,    0,    0,    0,    0,    0 ]
    NA   [     3,    0,    0,    0,    0,    2,    1,    1 ]
    NB   [     2,    0,    0,    0,    0,    2,    1,    1 ]

  @DF-UKS Final Energy:  -108.64575743127759

   => Energetics <=

    Nuclear Repulsion Energy =             30.6682318215827472
    One-Electron Energy =                -200.9366611570482632
    Two-Electron Energy =                  72.7110829650173258
    DFT Exchange-Correlation Energy =     -11.0884110608293902
    Empirical Dispersion Energy =           0.0000000000000000
    VV10 Nonlocal Energy =                  0.0000000000000000
    Total Energy =                       -108.6457574312775876

  UHF NO Occupations:
  HONO-2 :    2 Ag 1.9999201
  HONO-1 :    2B1u 1.9991210
  HONO-0 :    3 Ag 1.0000000
  LUNO+0 :    3B1u 0.0008790
  LUNO+1 :    4 Ag 0.0000799
  LUNO+2 :    2B3u 0.0000570
  LUNO+3 :    2B2u 0.0000570

Computation Completed

Properties will be evaluated at   0.000000,   0.000000,   0.000000 [a0]

Properties computed using the B3LYP density matrix

 Multipole Moments:

 ------------------------------------------------------------------------------------
     Multipole            Electronic (a.u.)      Nuclear  (a.u.)        Total (a.u.)
 ------------------------------------------------------------------------------------

 L = 1.  Multiply by 2.5417464519 to convert [e a0] to [Debye]
 Dipole X            :          0.0000000            0.0000000            0.0000000
 Dipole Y            :          0.0000000            0.0000000            0.0000000
 Dipole Z            :          0.0000000            0.0000000            0.0000000
 Magnitude           :                                                    0.0000000

 L = 2.  Multiply by 1.3450342976 to convert [e a0^2] to [Debye ang]
 Quadrupole XX       :         -5.5172570            0.0000000           -5.5172570
 Quadrupole XY       :          0.0000000            0.0000000            0.0000000
 Quadrupole XZ       :          0.0000000            0.0000000            0.0000000
 Quadrupole YY       :         -5.5172570            0.0000000           -5.5172570
 Quadrupole YZ       :          0.0000000            0.0000000            0.0000000
 Quadrupole ZZ       :        -13.8771684            8.9347567           -4.9424117
 Traceless XX        :          2.7866371           -2.9782522           -0.1916151
 Traceless YY        :          2.7866371           -2.9782522           -0.1916151
 Traceless ZZ        :         -5.5732743            5.9565044            0.3832302

 ------------------------------------------------------------------------------------
  ==> Computing MBIS Charges <==

  Electron Count from Grid (Expected Number): 13.00000 (13.00000)
  Difference:  0.00000

  MBIS Charges: (a.u.)
   Center  Symbol  Z      Pop.       Charge
      1       N    7    6.500000    0.500000
      2       N    7    6.500000    0.500000

  MBIS Dipoles: [e a0]
   Center  Symbol  Z        X           Y           Z
      1       N    7    0.000000    0.000000   -0.139083
      2       N    7   -0.000000   -0.000000    0.139083

  MBIS Quadrupoles: [e a0^2]
   Center  Symbol  Z      XX        XY        XZ        YY        YZ        ZZ
      1       N    7   -2.7586   -0.0000    0.0000   -2.7586   -0.0000   -3.0125
      2       N    7   -2.7586    0.0000   -0.0000   -2.7586    0.0000   -3.0125

  MBIS Octupoles: [e a0^3]
   Center  Symbol  Z      XXX       XXY       XXZ       XYY       XYZ       XZZ       YYY       YYZ       YZZ       ZZZ
      1       N    7    0.0000    0.0000   -0.0421   -0.0000    0.0000   -0.0000   -0.0000   -0.0421    0.0000   -0.0001
      2       N    7    0.0000    0.0000    0.0421    0.0000   -0.0000    0.0000   -0.0000    0.0421    0.0000    0.0001

  MBIS Radial Moments:
   Center  Symbol  Z      [a0^2]      [a0^3]      [a0^4]
      1       N    7    8.529780   15.476959   33.622448
      2       N    7    8.529780   15.476959   33.622448

  MBIS Valence Widths: [a0]
   Center  Symbol  Z     Width
      1       N    7    0.382775
      2       N    7    0.382775

*** tstop() called on Mac.lan at Sun Aug 10 18:24:37 2025
Module time:
	user time   =       3.44 seconds =       0.06 minutes
	system time =       2.58 seconds =       0.04 minutes
	total time  =          1 seconds =       0.02 minutes
Total time:
	user time   =      15.03 seconds =       0.25 minutes
	system time =       4.31 seconds =       0.07 minutes
	total time  =          2 seconds =       0.03 minutes

    Psi4 stopped on: Sunday, 10 August 2025 06:24PM
    Psi4 wall time for execution: 0:00:01.89

*** Psi4 exiting successfully. Buy a developer a beer!
