                               Psi4 1.9.1 release

  ==> Input File <==

--------------------------------------------------------------------------
molecule {
1 4
C           0.000000           0.000000           0.000000
C           0.000000           0.000000           1.682332
}

set {
basis              cc-pvtz
reference          uks
maxiter            500
DAMPING_PERCENTAGE 1
E_CONVERGENCE      1.0E-8
D_CONVERGENCE      1.0E-8
DIIS_MAX_VECS      400
MBIS_MAXITER       8000
guess              read
}

E, wfn = energy('b3lyp', restart_file='last_wfn', return_wfn=True)
properties('b3lyp','MBIS_CHARGES', wfn=wfn)
wfn.to_file('last_wfn')
--------------------------------------------------------------------------

    Molecular point group: d2h
  Charge       = 1
  Multiplicity = 4
  Basis Set: CC-PVTZ
    Blend: CC-PVTZ
  Basis Set: (CC-PVTZ AUX)
    Blend: CC-PVTZ-JKFIT
  @DF-UKS Final Energy:   -75.47427511932977
    Total Energy =                        -75.4742751193297892
 Dipole X            :          0.0000000            0.0000000            0.0000000
 Dipole Y            :          0.0000000            0.0000000            0.0000000
 Dipole Z            :          0.0000000            0.0000000            0.0000000
 Magnitude           :                                                    0.0000000
    Molecular point group: d2h

    Geometry (in Angstrom), charge = 1, multiplicity = 4:

       Center              X                  Y                   Z               Mass
    ------------   -----------------  -----------------  -----------------  -----------------
         C            0.000000000000     0.000000000000    -0.841166000000    12.000000000000
         C            0.000000000000     0.000000000000     0.841166000000    12.000000000000

  Charge       = 1
  Multiplicity = 4
  Basis Set: CC-PVTZ
    Blend: CC-PVTZ
  Basis Set: (CC-PVTZ AUX)
    Blend: CC-PVTZ-JKFIT

    Orbital Energies [Eh]
    ---------------------

    Alpha Occupied:

       1Ag   -10.724857     1B1u  -10.724640     2Ag    -1.091823
       2B1u   -0.852756     3Ag    -0.685694     1B2u   -0.654780
       1B3u   -0.654780

    Alpha Virtual:

       1B3g   -0.464090     1B2g   -0.464090     3B1u   -0.246900
       2B2u    0.016524     2B3u    0.016524     4B1u    0.016937
       4Ag     0.036305     5Ag     0.049010     2B3g    0.094131
       2B2g    0.094131     6Ag     0.254180     1B1g    0.254180
       3B2u    0.292549     3B3u    0.292549     5B1u    0.345643
       6B1u    0.464937     1Au     0.464937     7Ag     0.733529
       3B2g    0.756502     3B3g    0.756502     7B1u    0.806238
       4B2u    1.511989     4B3u    1.511989     8Ag     1.591000
       4B2g    1.651710     4B3g    1.651710     5B2u    2.035394
       5B3u    2.035394     9Ag     2.052685     2B1g    2.052686
      10Ag     2.084327     8B1u    2.148084     6B3u    2.229845
       6B2u    2.229845     5B3g    2.346838     5B2g    2.346838
      11Ag     2.503095     3B1g    2.503101     9B1u    2.520744
       2Au     2.520748    10B1u    2.634169     6B2g    2.664456
       6B3g    2.664456    11B1u    2.707909     3Au     2.707913
       7B2u    2.714259     7B3u    2.714259    12B1u    3.033494
      12Ag     3.184003     7B2g    3.359662     7B3g    3.359662
      13Ag     3.581286    13B1u    5.748935

    Beta Occupied:

       1Ag   -10.700508     1B1u  -10.700467     2Ag    -0.997114
       2B1u   -0.737926

    Beta Virtual:

       3Ag    -0.518619     1B2u   -0.504026     1B3u   -0.504026
       1B3g   -0.366187     1B2g   -0.366187     3B1u   -0.169494
       2B2u    0.044829     2B3u    0.044829     4B1u    0.051118
       4Ag     0.068619     5Ag     0.080779     2B3g    0.116825
       2B2g    0.116825     1B1g    0.303797     6Ag     0.303797
       3B2u    0.352764     3B3u    0.352764     5B1u    0.373695
       1Au     0.509650     6B1u    0.509650     7Ag     0.790801
       3B2g    0.802058     3B3g    0.802058     7B1u    0.848268
       4B2u    1.568689     4B3u    1.568689     8Ag     1.651558
       4B2g    1.706677     4B3g    1.706677     5B2u    2.097142
       5B3u    2.097142     9Ag     2.119992     2B1g    2.119992
      10Ag     2.150476     8B1u    2.207064     6B3u    2.294560
       6B2u    2.294560     5B3g    2.410998     5B2g    2.410998
      11Ag     2.585613     3B1g    2.585619     9B1u    2.592812
       2Au     2.592816    10B1u    2.711758     6B2g    2.743874
       6B3g    2.743874    11B1u    2.783062     3Au     2.783065
       7B2u    2.799550     7B3u    2.799550    12B1u    3.095238
      12Ag     3.251546     7B2g    3.427166     7B3g    3.427166
      13Ag     3.637545    13B1u    5.795444

    Final Occupation by Irrep:
             Ag   B1g   B2g   B3g    Au   B1u   B2u   B3u
    DOCC [     2,    0,    0,    0,    0,    2,    0,    0 ]
    SOCC [     1,    0,    0,    0,    0,    0,    1,    1 ]
    NA   [     3,    0,    0,    0,    0,    2,    1,    1 ]
    NB   [     2,    0,    0,    0,    0,    2,    0,    0 ]

  @DF-UKS Final Energy:   -75.47427511920354

   => Energetics <=

    Nuclear Repulsion Energy =             11.3237931538602385
    One-Electron Energy =                -119.1712087825383577
    Two-Electron Energy =                  40.5483238105343773
    DFT Exchange-Correlation Energy =      -8.1751833010597874
    Empirical Dispersion Energy =           0.0000000000000000
    VV10 Nonlocal Energy =                  0.0000000000000000
    Total Energy =                        -75.4742751192035399

  UHF NO Occupations:
  HONO-2 :    3 Ag 1.0000000
  HONO-1 :    1B2u 1.0000000
  HONO-0 :    1B3u 1.0000000
  LUNO+0 :    3B1u 0.0016957
  LUNO+1 :    4 Ag 0.0001358
  LUNO+2 :    4B1u 0.0000008
  LUNO+3 :    5 Ag 0.0000006

Computation Completed

Properties will be evaluated at   0.000000,   0.000000,   0.000000 [a0]

Properties computed using the B3LYP density matrix

 Multipole Moments:

 ------------------------------------------------------------------------------------
     Multipole            Electronic (a.u.)      Nuclear  (a.u.)        Total (a.u.)
 ------------------------------------------------------------------------------------

 L = 1.  Multiply by 2.5417464519 to convert [e a0] to [Debye]
 Dipole X            :          0.0000000            0.0000000            0.0000000
 Dipole Y            :          0.0000000            0.0000000            0.0000000
 Dipole Z            :          0.0000000            0.0000000            0.0000000
 Magnitude           :                                                    0.0000000

 L = 2.  Multiply by 1.3450342976 to convert [e a0^2] to [Debye ang]
 Quadrupole XX       :         -6.7653402            0.0000000           -6.7653402
 Quadrupole XY       :          0.0000000            0.0000000            0.0000000
 Quadrupole XZ       :          0.0000000            0.0000000            0.0000000
 Quadrupole YY       :         -6.7653402            0.0000000           -6.7653402
 Quadrupole YZ       :          0.0000000            0.0000000            0.0000000
 Quadrupole ZZ       :        -34.3226499           30.3209218           -4.0017280
 Traceless XX        :          9.1857699          -10.1069739           -0.9212041
 Traceless YY        :          9.1857699          -10.1069739           -0.9212041
 Traceless ZZ        :        -18.3715398           20.2139479            1.8424081

 ------------------------------------------------------------------------------------
  ==> Computing MBIS Charges <==

  Electron Count from Grid (Expected Number): 11.00000 (11.00000)
  Difference:  0.00000

  MBIS Charges: (a.u.)
   Center  Symbol  Z      Pop.       Charge
      1       C    6    5.500000    0.500000
      2       C    6    5.500000    0.500000

  MBIS Dipoles: [e a0]
   Center  Symbol  Z        X           Y           Z
      1       C    6   -0.000000    0.000000   -0.151329
      2       C    6   -0.000000   -0.000000    0.151329

  MBIS Quadrupoles: [e a0^2]
   Center  Symbol  Z      XX        XY        XZ        YY        YZ        ZZ
      1       C    6   -3.3827    0.0000   -0.0000   -3.3827   -0.0000   -3.7453
      2       C    6   -3.3827    0.0000    0.0000   -3.3827    0.0000   -3.7453

  MBIS Octupoles: [e a0^3]
   Center  Symbol  Z      XXX       XXY       XXZ       XYY       XYZ       XZZ       YYY       YYZ       YZZ       ZZZ
      1       C    6   -0.0000   -0.0000   -0.2200   -0.0000    0.0000   -0.0000    0.0000   -0.2200    0.0000   -0.7381
      2       C    6   -0.0000   -0.0000    0.2200   -0.0000   -0.0000   -0.0000    0.0000    0.2200    0.0000    0.7381

  MBIS Radial Moments:
   Center  Symbol  Z      [a0^2]      [a0^3]      [a0^4]
      1       C    6   10.510673   23.534509   62.700485
      2       C    6   10.510673   23.534509   62.700485

  MBIS Valence Widths: [a0]
   Center  Symbol  Z     Width
      1       C    6    0.483542
      2       C    6    0.483542

*** tstop() called on Mac.lan at Sun Aug 10 18:23:00 2025
Module time:
	user time   =       5.12 seconds =       0.09 minutes
	system time =       1.69 seconds =       0.03 minutes
	total time  =          1 seconds =       0.02 minutes
Total time:
	user time   =      17.51 seconds =       0.29 minutes
	system time =       3.99 seconds =       0.07 minutes
	total time  =          2 seconds =       0.03 minutes

    Psi4 stopped on: Sunday, 10 August 2025 06:23PM
    Psi4 wall time for execution: 0:00:02.11

*** Psi4 exiting successfully. Buy a developer a beer!
