                               Psi4 1.9.1 release

  ==> Input File <==

--------------------------------------------------------------------------
molecule {
1 2
N           0.000000           0.000000           0.000000
N           0.000000           0.000000           1.393368
}

set {
basis              cc-pvtz
reference          uks
maxiter            500
DAMPING_PERCENTAGE 1
E_CONVERGENCE      1.0E-8
D_CONVERGENCE      1.0E-8
DIIS_MAX_VECS      400
MBIS_MAXITER       8000
guess              read
}

E, wfn = energy('b3lyp', restart_file='last_wfn', return_wfn=True)
properties('b3lyp','MBIS_CHARGES', wfn=wfn)
wfn.to_file('last_wfn')
--------------------------------------------------------------------------

    Molecular point group: d2h
  Charge       = 1
  Multiplicity = 2
  Basis Set: CC-PVTZ
    Blend: CC-PVTZ
  Basis Set: (CC-PVTZ AUX)
    Blend: CC-PVTZ-JKFIT
  @DF-UKS Final Energy:  -108.87797486987566
    Total Energy =                       -108.8779748698756720
 Dipole X            :          0.0000000            0.0000000            0.0000000
 Dipole Y            :          0.0000000            0.0000000            0.0000000
 Dipole Z            :          0.0000000            0.0000000            0.0000000
 Magnitude           :                                                    0.0000000
    Molecular point group: d2h

    Geometry (in Angstrom), charge = 1, multiplicity = 2:

       Center              X                  Y                   Z               Mass
    ------------   -----------------  -----------------  -----------------  -----------------
         N            0.000000000000     0.000000000000    -0.696684000000    14.003074004430
         N            0.000000000000     0.000000000000     0.696684000000    14.003074004430

  Charge       = 1
  Multiplicity = 2
  Basis Set: CC-PVTZ
    Blend: CC-PVTZ
  Basis Set: (CC-PVTZ AUX)
    Blend: CC-PVTZ-JKFIT

    Orbital Energies [Eh]
    ---------------------

    Alpha Occupied:

       1Ag   -14.950897     1B1u  -14.950597     2Ag    -1.396525
       2B1u   -1.064579     3Ag    -0.875165     1B2u   -0.793303
       1B3u   -0.793303

    Alpha Virtual:

       1B3g   -0.537225     1B2g   -0.537225     3B1u   -0.241669
       4B1u    0.086802     2B3u    0.106338     2B2u    0.106338
       4Ag     0.126566     5Ag     0.151234     2B3g    0.208841
       2B2g    0.208841     1B1g    0.517131     6Ag     0.517132
       5B1u    0.551127     3B3u    0.557320     3B2u    0.557320
       1Au     0.817617     6B1u    0.817617     7Ag     1.174777
       3B3g    1.218129     3B2g    1.218129     7B1u    1.262958
       4B3u    2.283821     4B2u    2.283821     8Ag     2.374620
       4B3g    2.496106     4B2g    2.496106     2B1g    3.075547
       9Ag     3.075547     5B3u    3.084439     5B2u    3.084439
       8B1u    3.162900    10Ag     3.182073     6B3u    3.348826
       6B2u    3.348826     5B2g    3.523751     5B3g    3.523751
       9B1u    3.861672     2Au     3.861674    10B1u    3.902926
      11Ag     3.910566     3B1g    3.910576     6B3g    4.103326
       6B2g    4.103326    11B1u    4.111422     3Au     4.111430
       7B2u    4.169283     7B3u    4.169283    12B1u    4.472834
      12Ag     4.713271     7B3g    4.980650     7B2g    4.980650
      13Ag     5.149917    13B1u    8.489141

    Beta Occupied:

       1Ag   -14.938513     1B1u  -14.938332     2Ag    -1.364756
       2B1u   -0.988766     1B2u   -0.781241     1B3u   -0.781241

    Beta Virtual:

       3Ag    -0.694768     1B3g   -0.519347     1B2g   -0.519347
       3B1u   -0.188315     2B3u    0.110188     2B2u    0.110188
       4B1u    0.124961     4Ag     0.156717     5Ag     0.163928
       2B3g    0.213065     2B2g    0.213065     6Ag     0.519885
       1B1g    0.519885     5B1u    0.561463     3B3u    0.588014
       3B2u    0.588014     6B1u    0.823510     1Au     0.823510
       7Ag     1.214961     3B3g    1.247098     3B2g    1.247098
       7B1u    1.305053     4B3u    2.297849     4B2u    2.297849
       8Ag     2.429570     4B3g    2.503541     4B2g    2.503541
       9Ag     3.102491     2B1g    3.102491     5B3u    3.115208
       5B2u    3.115208     8B1u    3.207235    10Ag     3.232455
       6B3u    3.352136     6B2u    3.352136     5B2g    3.527031
       5B3g    3.527031     9B1u    3.865210     2Au     3.865213
      11Ag     3.917013     3B1g    3.917023    10B1u    3.963316
      11B1u    4.138970     3Au     4.138978     6B3g    4.150436
       6B2g    4.150436     7B2u    4.224259     7B3u    4.224259
      12B1u    4.532971    12Ag     4.759961     7B3g    5.024402
       7B2g    5.024402    13Ag     5.196607    13B1u    8.513325

    Final Occupation by Irrep:
             Ag   B1g   B2g   B3g    Au   B1u   B2u   B3u
    DOCC [     2,    0,    0,    0,    0,    2,    1,    1 ]
    SOCC [     1,    0,    0,    0,    0,    0,    0,    0 ]
    NA   [     3,    0,    0,    0,    0,    2,    1,    1 ]
    NB   [     2,    0,    0,    0,    0,    2,    1,    1 ]

  @DF-UKS Final Energy:  -108.87797486991376

   => Energetics <=

    Nuclear Repulsion Energy =             18.6093575586851401
    One-Electron Energy =                -178.7626779633951060
    Two-Electron Energy =                  61.8148518654475723
    DFT Exchange-Correlation Energy =     -10.5395063306513634
    Empirical Dispersion Energy =           0.0000000000000000
    VV10 Nonlocal Energy =                  0.0000000000000000
    Total Energy =                       -108.8779748699137713

  UHF NO Occupations:
  HONO-2 :    2 Ag 1.9998195
  HONO-1 :    2B1u 1.9963783
  HONO-0 :    3 Ag 1.0000000
  LUNO+0 :    3B1u 0.0036217
  LUNO+1 :    4 Ag 0.0001805
  LUNO+2 :    2B3u 0.0001066
  LUNO+3 :    2B2u 0.0001066

Computation Completed

Properties will be evaluated at   0.000000,   0.000000,   0.000000 [a0]

Properties computed using the B3LYP density matrix

 Multipole Moments:

 ------------------------------------------------------------------------------------
     Multipole            Electronic (a.u.)      Nuclear  (a.u.)        Total (a.u.)
 ------------------------------------------------------------------------------------

 L = 1.  Multiply by 2.5417464519 to convert [e a0] to [Debye]
 Dipole X            :          0.0000000            0.0000000            0.0000000
 Dipole Y            :          0.0000000            0.0000000            0.0000000
 Dipole Z            :          0.0000000            0.0000000            0.0000000
 Magnitude           :                                                    0.0000000

 L = 2.  Multiply by 1.3450342976 to convert [e a0^2] to [Debye ang]
 Quadrupole XX       :         -6.6899804            0.0000000           -6.6899804
 Quadrupole XY       :          0.0000000            0.0000000            0.0000000
 Quadrupole XZ       :          0.0000000            0.0000000            0.0000000
 Quadrupole YY       :         -6.6899804            0.0000000           -6.6899804
 Quadrupole YZ       :          0.0000000            0.0000000            0.0000000
 Quadrupole ZZ       :        -27.6619852           24.2659581           -3.3960271
 Traceless XX        :          6.9906683           -8.0886527           -1.0979844
 Traceless YY        :          6.9906683           -8.0886527           -1.0979844
 Traceless ZZ        :        -13.9813366           16.1773054            2.1959688

 ------------------------------------------------------------------------------------
  ==> Computing MBIS Charges <==

  Electron Count from Grid (Expected Number): 13.00000 (13.00000)
  Difference:  0.00000

  MBIS Charges: (a.u.)
   Center  Symbol  Z      Pop.       Charge
      1       N    7    6.500000    0.500000
      2       N    7    6.500000    0.500000

  MBIS Dipoles: [e a0]
   Center  Symbol  Z        X           Y           Z
      1       N    7   -0.000000    0.000000   -0.284898
      2       N    7   -0.000000   -0.000000    0.284898

  MBIS Quadrupoles: [e a0^2]
   Center  Symbol  Z      XX        XY        XZ        YY        YZ        ZZ
      1       N    7   -3.3450    0.0000   -0.0000   -3.3450   -0.0000   -3.3148
      2       N    7   -3.3450    0.0000   -0.0000   -3.3450    0.0000   -3.3148

  MBIS Octupoles: [e a0^3]
   Center  Symbol  Z      XXX       XXY       XXZ       XYY       XYZ       XZZ       YYY       YYZ       YZZ       ZZZ
      1       N    7   -0.0000   -0.0000   -0.3498    0.0000   -0.0000   -0.0000   -0.0000   -0.3498   -0.0000   -0.9008
      2       N    7   -0.0000   -0.0000    0.3498   -0.0000    0.0000    0.0000   -0.0000    0.3498    0.0000    0.9008

  MBIS Radial Moments:
   Center  Symbol  Z      [a0^2]      [a0^3]      [a0^4]
      1       N    7   10.004796   19.724302   46.352143
      2       N    7   10.004796   19.724302   46.352143

  MBIS Valence Widths: [a0]
   Center  Symbol  Z     Width
      1       N    7    0.418064
      2       N    7    0.418064

*** tstop() called on Mac.lan at Sun Aug 10 18:25:33 2025
Module time:
	user time   =       3.46 seconds =       0.06 minutes
	system time =       2.57 seconds =       0.04 minutes
	total time  =          1 seconds =       0.02 minutes
Total time:
	user time   =      18.94 seconds =       0.32 minutes
	system time =       5.01 seconds =       0.08 minutes
	total time  =          3 seconds =       0.05 minutes

    Psi4 stopped on: Sunday, 10 August 2025 06:25PM
    Psi4 wall time for execution: 0:00:02.35

*** Psi4 exiting successfully. Buy a developer a beer!
