                               Psi4 1.9.1 release

  ==> Input File <==

--------------------------------------------------------------------------
molecule {
1 3
O           0.000000           0.000000           0.000000
H           0.000000           0.000000           1.023492
}

set {
basis              cc-pvtz
reference          uks
maxiter            500
DAMPING_PERCENTAGE 1
E_CONVERGENCE      1.0E-8
D_CONVERGENCE      1.0E-8
DIIS_MAX_VECS      400
MBIS_MAXITER       8000
guess              read
}

E, wfn = energy('b3lyp', restart_file='last_wfn', return_wfn=True)
properties('b3lyp','MBIS_CHARGES', wfn=wfn)
wfn.to_file('last_wfn')
--------------------------------------------------------------------------

    Molecular point group: c2v
  Charge       = 1
  Multiplicity = 3
  Basis Set: CC-PVTZ
    Blend: CC-PVTZ
  Basis Set: (CC-PVTZ AUX)
    Blend: CC-PVTZ-JKFIT
  @DF-UKS Final Energy:   -75.28104227245008
    Total Energy =                        -75.2810422724500796
 Dipole X            :          0.0000000            0.0000000            0.0000000
 Dipole Y            :          0.0000000            0.0000000            0.0000000
 Dipole Z            :         -0.0128821            0.9023278            0.8894457
 Magnitude           :                                                    0.8894457
    Molecular point group: c2v

    Geometry (in Angstrom), charge = 1, multiplicity = 3:

       Center              X                  Y                   Z               Mass
    ------------   -----------------  -----------------  -----------------  -----------------
         O            0.000000000000     0.000000000000    -0.060666744243    15.994914619570
         H            0.000000000000     0.000000000000     0.962825255757     1.007825032230

  Charge       = 1
  Multiplicity = 3
  Basis Set: CC-PVTZ
    Blend: CC-PVTZ
  Basis Set: (CC-PVTZ AUX)
    Blend: CC-PVTZ-JKFIT

    Orbital Energies [Eh]
    ---------------------

    Alpha Occupied:

       1A1   -19.818765     2A1    -1.567884     3A1    -0.982097
       1B1    -0.948843     1B2    -0.948843

    Alpha Virtual:

       4A1    -0.319603     5A1    -0.004916     2B1     0.134197
       2B2     0.134197     6A1     0.170525     3B2     0.322582
       3B1     0.322582     7A1     0.478516     8A1     0.815773
       1A2     0.922915     9A1     0.922915     4B2     1.264185
       4B1     1.264185    10A1     1.504500    11A1     1.953470
      12A1     2.749633     2A2     2.749634     5B2     2.795562
       5B1     2.795562    13A1     3.163833     6B2     3.164757
       6B1     3.164757     7B2     3.534742     7B1     3.534742
      14A1     3.696824    15A1     4.209725     8B2     4.501726
       8B1     4.501726    16A1     4.746244     3A2     4.746244
       4A2     5.529080    17A1     5.529081     9B2     5.606392
       9B1     5.606392    18A1     5.726743    10B2     5.991275
      10B1     5.991275    19A1     6.358382    20A1     9.172419

    Beta Occupied:

       1A1   -19.762521     2A1    -1.414647     3A1    -0.928165

    Beta Virtual:

       1B1    -0.645961     1B2    -0.645961     4A1    -0.302840
       5A1     0.001705     6A1     0.184485     2B1     0.200922
       2B2     0.200922     3B2     0.337249     3B1     0.337249
       7A1     0.532812     8A1     0.831899     9A1     1.034724
       1A2     1.034724     4B2     1.317987     4B1     1.317987
      10A1     1.532914    11A1     1.960677    12A1     2.756988
       2A2     2.756989     5B2     2.872083     5B1     2.872083
      13A1     3.175089     6B2     3.207847     6B1     3.207847
       7B2     3.577880     7B1     3.577880    14A1     3.733378
      15A1     4.266938     8B2     4.653866     8B1     4.653866
      16A1     4.843274     3A2     4.843274     9B2     5.704407
       9B1     5.704407     4A2     5.741856    17A1     5.741857
      18A1     5.778602    10B2     6.065528    10B1     6.065528
      19A1     6.423616    20A1     9.245919

    Final Occupation by Irrep:
             A1    A2    B1    B2
    DOCC [     3,    0,    0,    0 ]
    SOCC [     0,    0,    1,    1 ]
    NA   [     3,    0,    1,    1 ]
    NB   [     3,    0,    0,    0 ]

  @DF-UKS Final Energy:   -75.28104227237412

   => Energetics <=

    Nuclear Repulsion Energy =              4.1362489255998094
    One-Electron Energy =                -107.5252264877332209
    Two-Electron Energy =                  34.9775755737284371
    DFT Exchange-Correlation Energy =      -6.8696402839691553
    Empirical Dispersion Energy =           0.0000000000000000
    VV10 Nonlocal Energy =                  0.0000000000000000
    Total Energy =                        -75.2810422723741368

  UHF NO Occupations:
  HONO-2 :    3 A1 1.9981922
  HONO-1 :    1 B1 1.0000000
  HONO-0 :    1 B2 1.0000000
  LUNO+0 :    4 A1 0.0018078
  LUNO+1 :    5 A1 0.0006434
  LUNO+2 :    6 A1 0.0000014
  LUNO+3 :    7 A1 0.0000000

Computation Completed

Properties will be evaluated at   0.000000,   0.000000,   0.000000 [a0]

Properties computed using the B3LYP density matrix

 Multipole Moments:

 ------------------------------------------------------------------------------------
     Multipole            Electronic (a.u.)      Nuclear  (a.u.)        Total (a.u.)
 ------------------------------------------------------------------------------------

 L = 1.  Multiply by 2.5417464519 to convert [e a0] to [Debye]
 Dipole X            :          0.0000000            0.0000000            0.0000000
 Dipole Y            :          0.0000000            0.0000000            0.0000000
 Dipole Z            :         -0.0128821            0.9023278            0.8894457
 Magnitude           :                                                    0.8894457

 L = 2.  Multiply by 1.3450342976 to convert [e a0^2] to [Debye ang]
 Quadrupole XX       :         -3.0368917            0.0000000           -3.0368917
 Quadrupole XY       :          0.0000000            0.0000000            0.0000000
 Quadrupole XZ       :          0.0000000            0.0000000            0.0000000
 Quadrupole YY       :         -3.0368917            0.0000000           -3.0368917
 Quadrupole YZ       :          0.0000000            0.0000000            0.0000000
 Quadrupole ZZ       :         -4.9743200            3.4156382           -1.5586818
 Traceless XX        :          0.6458094           -1.1385461           -0.4927367
 Traceless YY        :          0.6458094           -1.1385461           -0.4927367
 Traceless ZZ        :         -1.2916188            2.2770921            0.9854733

 ------------------------------------------------------------------------------------
  ==> Computing MBIS Charges <==

  Electron Count from Grid (Expected Number):  8.00000 ( 8.00000)
  Difference:  0.00000

  MBIS Charges: (a.u.)
   Center  Symbol  Z      Pop.       Charge
      1       O    8    7.517669    0.482331
      2       H    1    0.482331    0.517669

  MBIS Dipoles: [e a0]
   Center  Symbol  Z        X           Y           Z
      1       O    8   -0.000000   -0.000000   -0.048319
      2       H    1    0.000000    0.000000    0.051175

  MBIS Quadrupoles: [e a0^2]
   Center  Symbol  Z      XX        XY        XZ        YY        YZ        ZZ
      1       O    8   -2.8330   -0.0000   -0.0000   -2.8330   -0.0000   -3.2828
      2       H    1   -0.2038   -0.0000    0.0000   -0.2038    0.0000   -0.1933

  MBIS Octupoles: [e a0^3]
   Center  Symbol  Z      XXX       XXY       XXZ       XYY       XYZ       XZZ       YYY       YYZ       YZZ       ZZZ
      1       O    8   -0.0000   -0.0000   -0.0263   -0.0000   -0.0000   -0.0000   -0.0000   -0.0263    0.0000   -0.1363
      2       H    1    0.0000    0.0000    0.0091   -0.0000    0.0000   -0.0000    0.0000    0.0091    0.0000    0.0404

  MBIS Radial Moments:
   Center  Symbol  Z      [a0^2]      [a0^3]      [a0^4]
      1       O    8    8.948866   15.235926   31.047677
      2       H    1    0.600980    0.945440    1.777422

  MBIS Valence Widths: [a0]
   Center  Symbol  Z     Width
      1       O    8    0.357953
      2       H    1    0.326461

*** tstop() called on Mac.lan at Sun Aug 10 18:28:23 2025
Module time:
	user time   =       3.87 seconds =       0.06 minutes
	system time =       1.07 seconds =       0.02 minutes
	total time  =          1 seconds =       0.02 minutes
Total time:
	user time   =      14.28 seconds =       0.24 minutes
	system time =       3.36 seconds =       0.06 minutes
	total time  =          2 seconds =       0.03 minutes

    Psi4 stopped on: Sunday, 10 August 2025 06:28PM
    Psi4 wall time for execution: 0:00:01.77

*** Psi4 exiting successfully. Buy a developer a beer!
