                               Psi4 1.9.1 release

  ==> Input File <==

--------------------------------------------------------------------------
molecule {
1 4
C           0.000000           0.000000           0.000000
C           0.000000           0.000000           1.545309
}

set {
basis              cc-pvtz
reference          uks
maxiter            500
DAMPING_PERCENTAGE 1
E_CONVERGENCE      1.0E-8
D_CONVERGENCE      1.0E-8
DIIS_MAX_VECS      400
MBIS_MAXITER       8000
guess              read
}

E, wfn = energy('b3lyp', restart_file='last_wfn', return_wfn=True)
properties('b3lyp','MBIS_CHARGES', wfn=wfn)
wfn.to_file('last_wfn')
--------------------------------------------------------------------------

    Molecular point group: d2h
  Charge       = 1
  Multiplicity = 4
  Basis Set: CC-PVTZ
    Blend: CC-PVTZ
  Basis Set: (CC-PVTZ AUX)
    Blend: CC-PVTZ-JKFIT
  @DF-UKS Final Energy:   -75.49564350715318
    Total Energy =                        -75.4956435071531757
 Dipole X            :          0.0000000            0.0000000            0.0000000
 Dipole Y            :          0.0000000            0.0000000            0.0000000
 Dipole Z            :          0.0000000            0.0000000            0.0000000
 Magnitude           :                                                    0.0000000
    Molecular point group: d2h

    Geometry (in Angstrom), charge = 1, multiplicity = 4:

       Center              X                  Y                   Z               Mass
    ------------   -----------------  -----------------  -----------------  -----------------
         C            0.000000000000     0.000000000000    -0.772654500000    12.000000000000
         C            0.000000000000     0.000000000000     0.772654500000    12.000000000000

  Charge       = 1
  Multiplicity = 4
  Basis Set: CC-PVTZ
    Blend: CC-PVTZ
  Basis Set: (CC-PVTZ AUX)
    Blend: CC-PVTZ-JKFIT

    Orbital Energies [Eh]
    ---------------------

    Alpha Occupied:

       1Ag   -10.722894     1B1u  -10.722545     2Ag    -1.141841
       2B1u   -0.840581     3Ag    -0.697691     1B2u   -0.682539
       1B3u   -0.682539

    Alpha Virtual:

       1B3g   -0.447687     1B2g   -0.447687     3B1u   -0.168665
       2B3u    0.008941     2B2u    0.008941     4B1u    0.022955
       4Ag     0.024807     5Ag     0.042401     2B3g    0.095009
       2B2g    0.095009     1B1g    0.235447     6Ag     0.235447
       3B3u    0.318994     3B2u    0.318994     5B1u    0.344732
       1Au     0.482011     6B1u    0.482011     3B2g    0.787670
       3B3g    0.787670     7Ag     0.793852     7B1u    0.814163
       4B2u    1.520855     4B3u    1.520855     8Ag     1.605441
       4B3g    1.676844     4B2g    1.676844     2B1g    2.015213
       9Ag     2.015213     5B3u    2.016950     5B2u    2.016950
      10Ag     2.141872     8B1u    2.156251     6B3u    2.189854
       6B2u    2.189854     5B3g    2.371919     5B2g    2.371919
       3B1g    2.496967    11Ag     2.496967     2Au     2.555510
       9B1u    2.555510    10B1u    2.577484     6B2g    2.685381
       6B3g    2.685381     3Au     2.797688    11B1u    2.797689
       7B3u    2.806037     7B2u    2.806037    12B1u    3.136691
      12Ag     3.406237    13Ag     3.509459     7B2g    3.570019
       7B3g    3.570019    13B1u    7.022651

    Beta Occupied:

       1Ag   -10.698157     1B1u  -10.698045     2Ag    -1.044050
       2B1u   -0.722811

    Beta Virtual:

       3Ag    -0.529463     1B2u   -0.525595     1B3u   -0.525595
       1B3g   -0.350073     1B2g   -0.350073     3B1u   -0.104355
       2B3u    0.036398     2B2u    0.036398     4Ag     0.056056
       4B1u    0.067754     5Ag     0.076136     2B3g    0.117934
       2B2g    0.117934     1B1g    0.287382     6Ag     0.287382
       5B1u    0.370299     3B3u    0.380531     3B2u    0.380531
       1Au     0.526715     6B1u    0.526715     3B2g    0.831097
       3B3g    0.831097     7Ag     0.847768     7B1u    0.856411
       4B2u    1.578185     4B3u    1.578185     8Ag     1.666923
       4B3g    1.732937     4B2g    1.732937     5B3u    2.082197
       5B2u    2.082197     2B1g    2.083101     9Ag     2.083102
       8B1u    2.212111    10Ag     2.214840     6B3u    2.256579
       6B2u    2.256579     5B3g    2.437790     5B2g    2.437790
       3B1g    2.582591    11Ag     2.582592     2Au     2.635341
       9B1u    2.635342    10B1u    2.655315     6B2g    2.767099
       6B3g    2.767099     3Au     2.868738    11B1u    2.868740
       7B3u    2.890520     7B2u    2.890520    12B1u    3.204347
      12Ag     3.471111    13Ag     3.564381     7B2g    3.636870
       7B3g    3.636870    13B1u    7.067204

    Final Occupation by Irrep:
             Ag   B1g   B2g   B3g    Au   B1u   B2u   B3u
    DOCC [     2,    0,    0,    0,    0,    2,    0,    0 ]
    SOCC [     1,    0,    0,    0,    0,    0,    1,    1 ]
    NA   [     3,    0,    0,    0,    0,    2,    1,    1 ]
    NB   [     2,    0,    0,    0,    0,    2,    0,    0 ]

  @DF-UKS Final Energy:   -75.49564350753261

   => Energetics <=

    Nuclear Repulsion Energy =             12.3278771974537129
    One-Electron Energy =                -121.0678309165288056
    Two-Electron Energy =                  41.4577369990955731
    DFT Exchange-Correlation Energy =      -8.2134267875530824
    Empirical Dispersion Energy =           0.0000000000000000
    VV10 Nonlocal Energy =                  0.0000000000000000
    Total Energy =                        -75.4956435075326056

  UHF NO Occupations:
  HONO-2 :    1B2u 1.0000000
  HONO-1 :    3 Ag 1.0000000
  HONO-0 :    1B3u 1.0000000
  LUNO+0 :    3B1u 0.0014286
  LUNO+1 :    4 Ag 0.0001032
  LUNO+2 :    4B1u 0.0000008
  LUNO+3 :    5 Ag 0.0000006

Computation Completed

Properties will be evaluated at   0.000000,   0.000000,   0.000000 [a0]

Properties computed using the B3LYP density matrix

 Multipole Moments:

 ------------------------------------------------------------------------------------
     Multipole            Electronic (a.u.)      Nuclear  (a.u.)        Total (a.u.)
 ------------------------------------------------------------------------------------

 L = 1.  Multiply by 2.5417464519 to convert [e a0] to [Debye]
 Dipole X            :          0.0000000            0.0000000            0.0000000
 Dipole Y            :          0.0000000            0.0000000            0.0000000
 Dipole Z            :          0.0000000            0.0000000            0.0000000
 Magnitude           :                                                    0.0000000

 L = 2.  Multiply by 1.3450342976 to convert [e a0^2] to [Debye ang]
 Quadrupole XX       :         -6.6000482            0.0000000           -6.6000482
 Quadrupole XY       :          0.0000000            0.0000000            0.0000000
 Quadrupole XZ       :          0.0000000            0.0000000            0.0000000
 Quadrupole YY       :         -6.6000482            0.0000000           -6.6000482
 Quadrupole YZ       :          0.0000000            0.0000000            0.0000000
 Quadrupole ZZ       :        -30.2265940           25.5828932           -4.6437008
 Traceless XX        :          7.8755153           -8.5276311           -0.6521158
 Traceless YY        :          7.8755153           -8.5276311           -0.6521158
 Traceless ZZ        :        -15.7510306           17.0552621            1.3042315

 ------------------------------------------------------------------------------------
  ==> Computing MBIS Charges <==

  Electron Count from Grid (Expected Number): 11.00000 (11.00000)
  Difference:  0.00000

  MBIS Charges: (a.u.)
   Center  Symbol  Z      Pop.       Charge
      1       C    6    5.500000    0.500000
      2       C    6    5.500000    0.500000

  MBIS Dipoles: [e a0]
   Center  Symbol  Z        X           Y           Z
      1       C    6   -0.000000    0.000000   -0.111952
      2       C    6   -0.000000   -0.000000    0.111952

  MBIS Quadrupoles: [e a0^2]
   Center  Symbol  Z      XX        XY        XZ        YY        YZ        ZZ
      1       C    6   -3.3000    0.0000   -0.0000   -3.3000   -0.0000   -3.7147
      2       C    6   -3.3000    0.0000    0.0000   -3.3000    0.0000   -3.7147

  MBIS Octupoles: [e a0^3]
   Center  Symbol  Z      XXX       XXY       XXZ       XYY       XYZ       XZZ       YYY       YYZ       YZZ       ZZZ
      1       C    6   -0.0000   -0.0000   -0.1421   -0.0000    0.0000   -0.0000    0.0000   -0.1421    0.0000   -0.5118
      2       C    6   -0.0000   -0.0000    0.1421   -0.0000   -0.0000   -0.0000    0.0000    0.1421    0.0000    0.5118

  MBIS Radial Moments:
   Center  Symbol  Z      [a0^2]      [a0^3]      [a0^4]
      1       C    6   10.314777   22.845842   60.217836
      2       C    6   10.314777   22.845842   60.217836

  MBIS Valence Widths: [a0]
   Center  Symbol  Z     Width
      1       C    6    0.478611
      2       C    6    0.478611

*** tstop() called on Mac.lan at Sun Aug 10 18:22:45 2025
Module time:
	user time   =       3.77 seconds =       0.06 minutes
	system time =       2.12 seconds =       0.04 minutes
	total time  =          0 seconds =       0.00 minutes
Total time:
	user time   =      15.52 seconds =       0.26 minutes
	system time =       3.39 seconds =       0.06 minutes
	total time  =          2 seconds =       0.03 minutes

    Psi4 stopped on: Sunday, 10 August 2025 06:22PM
    Psi4 wall time for execution: 0:00:01.86

*** Psi4 exiting successfully. Buy a developer a beer!
