                               Psi4 1.9.1 release

  ==> Input File <==

--------------------------------------------------------------------------
molecule {
1 1
C           0.000000           0.000000           0.000000
H           0.000000           0.000000           1.391896
}

set {
basis              cc-pvtz
reference          uks
maxiter            500
DAMPING_PERCENTAGE 1
E_CONVERGENCE      1.0E-8
D_CONVERGENCE      1.0E-8
DIIS_MAX_VECS      400
MBIS_MAXITER       8000
guess              read
}

E, wfn = energy('b3lyp', restart_file='last_wfn', return_wfn=True)
properties('b3lyp','MBIS_CHARGES', wfn=wfn)
wfn.to_file('last_wfn')
--------------------------------------------------------------------------

    Molecular point group: c2v
  Charge       = 1
  Multiplicity = 1
  Basis Set: CC-PVTZ
    Blend: CC-PVTZ
  Basis Set: (CC-PVTZ AUX)
    Blend: CC-PVTZ-JKFIT
  @DF-UKS Final Energy:   -38.07169850864953
    Total Energy =                        -38.0716985086495328
 Dipole X            :          0.0000000            0.0000000            0.0000000
 Dipole Y            :          0.0000000            0.0000000            0.0000000
 Dipole Z            :         -0.4561854            1.2037616            0.7475762
 Magnitude           :                                                    0.7475762
    Molecular point group: c2v

    Geometry (in Angstrom), charge = 1, multiplicity = 1:

       Center              X                  Y                   Z               Mass
    ------------   -----------------  -----------------  -----------------  -----------------
         C            0.000000000000     0.000000000000    -0.107841828098    12.000000000000
         H            0.000000000000     0.000000000000     1.284054171902     1.007825032230

  Charge       = 1
  Multiplicity = 1
  Basis Set: CC-PVTZ
    Blend: CC-PVTZ
  Basis Set: (CC-PVTZ AUX)
    Blend: CC-PVTZ-JKFIT

    Orbital Energies [Eh]
    ---------------------

    Alpha Occupied:

       1A1   -10.805845     2A1    -0.993543     3A1    -0.698440

    Alpha Virtual:

       1B1    -0.535775     1B2    -0.535775     4A1    -0.301825
       5A1    -0.014543     2B1     0.009747     2B2     0.009747
       6A1     0.034574     7A1     0.161407     3B1     0.217295
       3B2     0.217295     8A1     0.326880     1A2     0.326880
       9A1     0.563788     4B2     0.641936     4B1     0.641936
      10A1     0.894234     5B1     1.523810     5B2     1.523810
      11A1     1.730352    12A1     2.056452     6B2     2.169873
       6B1     2.169873     2A2     2.184993    13A1     2.184993
       7B1     2.257305     7B2     2.257305    14A1     2.297489
       3A2     2.493437    15A1     2.493437     8B2     2.605000
       8B1     2.605000    16A1     2.733277     4A2     2.994862
      17A1     2.994868     9B2     3.327048     9B1     3.327048
      18A1     3.340297    10B2     3.768027    10B1     3.768027
      19A1     3.924952    20A1     5.688553

    Beta Occupied:

       1A1   -10.805845     2A1    -0.993543     3A1    -0.698440

    Beta Virtual:

       1B1    -0.535775     1B2    -0.535775     4A1    -0.301825
       5A1    -0.014543     2B1     0.009747     2B2     0.009747
       6A1     0.034574     7A1     0.161407     3B1     0.217295
       3B2     0.217295     8A1     0.326880     1A2     0.326880
       9A1     0.563788     4B2     0.641936     4B1     0.641936
      10A1     0.894234     5B1     1.523810     5B2     1.523810
      11A1     1.730352    12A1     2.056452     6B2     2.169873
       6B1     2.169873     2A2     2.184993    13A1     2.184993
       7B2     2.257305     7B1     2.257305    14A1     2.297489
       3A2     2.493437    15A1     2.493437     8B2     2.605000
       8B1     2.605000    16A1     2.733277     4A2     2.994862
      17A1     2.994868     9B2     3.327048     9B1     3.327048
      18A1     3.340297    10B2     3.768027    10B1     3.768027
      19A1     3.924952    20A1     5.688553

    Final Occupation by Irrep:
             A1    A2    B1    B2
    DOCC [     3,    0,    0,    0 ]
    SOCC [     0,    0,    0,    0 ]
    NA   [     3,    0,    0,    0 ]
    NB   [     3,    0,    0,    0 ]

  @DF-UKS Final Energy:   -38.07169850869029

   => Energetics <=

    Nuclear Repulsion Energy =              2.2811066803985360
    One-Electron Energy =                 -52.6652652204666794
    Two-Electron Energy =                  16.5226882780886477
    DFT Exchange-Correlation Energy =      -4.2102282467107885
    Empirical Dispersion Energy =           0.0000000000000000
    VV10 Nonlocal Energy =                  0.0000000000000000
    Total Energy =                        -38.0716985086902824

  UHF NO Occupations:
  HONO-2 :    1 A1 2.0000000
  HONO-1 :    2 A1 2.0000000
  HONO-0 :    3 A1 2.0000000
  LUNO+0 :    4 A1 0.0000000
  LUNO+1 :    5 A1 0.0000000
  LUNO+2 :    6 A1 0.0000000
  LUNO+3 :    7 A1 0.0000000

Computation Completed

Properties will be evaluated at   0.000000,   0.000000,   0.000000 [a0]

Properties computed using the B3LYP density matrix

 Multipole Moments:

 ------------------------------------------------------------------------------------
     Multipole            Electronic (a.u.)      Nuclear  (a.u.)        Total (a.u.)
 ------------------------------------------------------------------------------------

 L = 1.  Multiply by 2.5417464519 to convert [e a0] to [Debye]
 Dipole X            :          0.0000000            0.0000000            0.0000000
 Dipole Y            :          0.0000000            0.0000000            0.0000000
 Dipole Z            :         -0.4561854            1.2037616            0.7475762
 Magnitude           :                                                    0.7475762

 L = 2.  Multiply by 1.3450342976 to convert [e a0^2] to [Debye ang]
 Quadrupole XX       :         -3.0688203            0.0000000           -3.0688203
 Quadrupole XY       :          0.0000000            0.0000000            0.0000000
 Quadrupole XZ       :          0.0000000            0.0000000            0.0000000
 Quadrupole YY       :         -3.0688203            0.0000000           -3.0688203
 Quadrupole YZ       :          0.0000000            0.0000000            0.0000000
 Quadrupole ZZ       :         -8.6244363            6.1371402           -2.4872961
 Traceless XX        :          1.8518720           -2.0457134           -0.1938414
 Traceless YY        :          1.8518720           -2.0457134           -0.1938414
 Traceless ZZ        :         -3.7037440            4.0914268            0.3876828

 ------------------------------------------------------------------------------------
  ==> Computing MBIS Charges <==

  Electron Count from Grid (Expected Number):  6.00000 ( 6.00000)
  Difference:  0.00000

  MBIS Charges: (a.u.)
   Center  Symbol  Z      Pop.       Charge
      1       C    6    5.228192    0.771808
      2       H    1    0.771808    0.228192

  MBIS Dipoles: [e a0]
   Center  Symbol  Z        X           Y           Z
      1       C    6   -0.000000   -0.000000    0.209902
      2       H    1    0.000000    0.000000    0.141253

  MBIS Quadrupoles: [e a0^2]
   Center  Symbol  Z      XX        XY        XZ        YY        YZ        ZZ
      1       C    6   -2.5936    0.0000    0.0000   -2.5936    0.0000   -3.9758
      2       H    1   -0.4752    0.0000    0.0000   -0.4752    0.0000   -0.4871

  MBIS Octupoles: [e a0^3]
   Center  Symbol  Z      XXX       XXY       XXZ       XYY       XYZ       XZZ       YYY       YYZ       YZZ       ZZZ
      1       C    6    0.0000   -0.0000    0.2328    0.0000   -0.0000    0.0000    0.0000    0.2328   -0.0000    0.6091
      2       H    1    0.0000    0.0000    0.0399    0.0000   -0.0000    0.0000    0.0000    0.0399   -0.0000    0.1610

  MBIS Radial Moments:
   Center  Symbol  Z      [a0^2]      [a0^3]      [a0^4]
      1       C    6    9.163025   19.726529   50.553348
      2       H    1    1.437497    2.707970    6.084834

  MBIS Valence Widths: [a0]
   Center  Symbol  Z     Width
      1       C    6    0.468354
      2       H    1    0.402640

*** tstop() called on Mac.lan at Sun Aug 10 18:27:30 2025
Module time:
	user time   =       2.77 seconds =       0.05 minutes
	system time =       1.69 seconds =       0.03 minutes
	total time  =          0 seconds =       0.00 minutes
Total time:
	user time   =      10.91 seconds =       0.18 minutes
	system time =       3.95 seconds =       0.07 minutes
	total time  =          1 seconds =       0.02 minutes

    Psi4 stopped on: Sunday, 10 August 2025 06:27PM
    Psi4 wall time for execution: 0:00:01.46

*** Psi4 exiting successfully. Buy a developer a beer!
