                               Psi4 1.9.1 release

  ==> Input File <==

--------------------------------------------------------------------------
molecule {
1 3
O           0.000000           0.000000           0.000000
H           0.000000           0.000000           1.176063
}

set {
basis              cc-pvtz
reference          uks
maxiter            500
DAMPING_PERCENTAGE 1
E_CONVERGENCE      1.0E-8
D_CONVERGENCE      1.0E-8
DIIS_MAX_VECS      400
MBIS_MAXITER       8000
guess              read
}

E, wfn = energy('b3lyp', restart_file='last_wfn', return_wfn=True)
properties('b3lyp','MBIS_CHARGES', wfn=wfn)
wfn.to_file('last_wfn')
--------------------------------------------------------------------------

    Molecular point group: c2v
  Charge       = 1
  Multiplicity = 3
  Basis Set: CC-PVTZ
    Blend: CC-PVTZ
  Basis Set: (CC-PVTZ AUX)
    Blend: CC-PVTZ-JKFIT
  @DF-UKS Final Energy:   -75.27285862738667
    Total Energy =                        -75.2728586273866682
 Dipole X            :          0.0000000            0.0000000            0.0000000
 Dipole Y            :          0.0000000            0.0000000            0.0000000
 Dipole Z            :          0.0087681            1.0368370            1.0456050
 Magnitude           :                                                    1.0456050
    Molecular point group: c2v

    Geometry (in Angstrom), charge = 1, multiplicity = 3:

       Center              X                  Y                   Z               Mass
    ------------   -----------------  -----------------  -----------------  -----------------
         O            0.000000000000     0.000000000000    -0.069710279352    15.994914619570
         H            0.000000000000     0.000000000000     1.106352720648     1.007825032230

  Charge       = 1
  Multiplicity = 3
  Basis Set: CC-PVTZ
    Blend: CC-PVTZ
  Basis Set: (CC-PVTZ AUX)
    Blend: CC-PVTZ-JKFIT

    Orbital Energies [Eh]
    ---------------------

    Alpha Occupied:

       1A1   -19.802620     2A1    -1.524420     3A1    -0.939506
       1B1    -0.927083     1B2    -0.927083

    Alpha Virtual:

       4A1    -0.377480     5A1    -0.026509     2B2     0.132019
       2B1     0.132019     6A1     0.193951     3B2     0.325811
       3B1     0.325811     7A1     0.484811     8A1     0.726095
       1A2     0.941990     9A1     0.941990     4B2     1.196641
       4B1     1.196641    10A1     1.631537    11A1     1.904905
       2A2     2.754772    12A1     2.754773     5B2     2.768557
       5B1     2.768557    13A1     2.925114     6B2     3.183575
       6B1     3.183575     7B1     3.382154     7B2     3.382154
      14A1     3.471487    15A1     4.329025     8B1     4.522154
       8B2     4.522154     3A2     4.643744    16A1     4.643744
       9B2     5.234106     9B1     5.234106    17A1     5.540633
       4A2     5.540634    18A1     5.558385    10B2     5.907484
      10B1     5.907484    19A1     6.290434    20A1     8.016269

    Beta Occupied:

       1A1   -19.745852     2A1    -1.364868     3A1    -0.888804

    Beta Virtual:

       1B1    -0.624834     1B2    -0.624834     4A1    -0.363535
       5A1    -0.026084     2B2     0.191293     2B1     0.191293
       6A1     0.211065     3B2     0.342677     3B1     0.342677
       7A1     0.540438     8A1     0.739187     9A1     1.054169
       1A2     1.054169     4B2     1.250870     4B1     1.250870
      10A1     1.671716    11A1     1.889525    12A1     2.750335
       2A2     2.750335     5B2     2.828204     5B1     2.828204
      13A1     2.941158     6B2     3.226336     6B1     3.226336
       7B1     3.424167     7B2     3.424167    14A1     3.487525
      15A1     4.374158     8B2     4.673946     8B1     4.673946
       3A2     4.742092    16A1     4.742092     9B2     5.313299
       9B1     5.313299    17A1     5.609523    18A1     5.754614
       4A2     5.754615    10B2     6.006546    10B1     6.006546
      19A1     6.376611    20A1     8.090451

    Final Occupation by Irrep:
             A1    A2    B1    B2
    DOCC [     3,    0,    0,    0 ]
    SOCC [     0,    0,    1,    1 ]
    NA   [     3,    0,    1,    1 ]
    NB   [     3,    0,    0,    0 ]

  @DF-UKS Final Energy:   -75.27285862788074

   => Energetics <=

    Nuclear Repulsion Energy =              3.5996521320371442
    One-Electron Energy =                -106.7114692295451874
    Two-Electron Energy =                  34.6735711624670842
    DFT Exchange-Correlation Energy =      -6.8346126928398006
    Empirical Dispersion Energy =           0.0000000000000000
    VV10 Nonlocal Energy =                  0.0000000000000000
    Total Energy =                        -75.2728586278807512

  UHF NO Occupations:
  HONO-2 :    3 A1 1.9970779
  HONO-1 :    1 B1 1.0000000
  HONO-0 :    1 B2 1.0000000
  LUNO+0 :    4 A1 0.0029221
  LUNO+1 :    5 A1 0.0008118
  LUNO+2 :    6 A1 0.0000014
  LUNO+3 :    2 B2 0.0000000

Computation Completed

Properties will be evaluated at   0.000000,   0.000000,   0.000000 [a0]

Properties computed using the B3LYP density matrix

 Multipole Moments:

 ------------------------------------------------------------------------------------
     Multipole            Electronic (a.u.)      Nuclear  (a.u.)        Total (a.u.)
 ------------------------------------------------------------------------------------

 L = 1.  Multiply by 2.5417464519 to convert [e a0] to [Debye]
 Dipole X            :          0.0000000            0.0000000            0.0000000
 Dipole Y            :          0.0000000            0.0000000            0.0000000
 Dipole Z            :          0.0087681            1.0368370            1.0456050
 Magnitude           :                                                    1.0456050

 L = 2.  Multiply by 1.3450342976 to convert [e a0^2] to [Debye ang]
 Quadrupole XX       :         -3.1163848            0.0000000           -3.1163848
 Quadrupole XY       :          0.0000000            0.0000000            0.0000000
 Quadrupole XZ       :          0.0000000            0.0000000            0.0000000
 Quadrupole YY       :         -3.1163848            0.0000000           -3.1163848
 Quadrupole YZ       :          0.0000000            0.0000000            0.0000000
 Quadrupole ZZ       :         -5.4322066            4.5098711           -0.9223355
 Traceless XX        :          0.7719406           -1.5032904           -0.7313498
 Traceless YY        :          0.7719406           -1.5032904           -0.7313498
 Traceless ZZ        :         -1.5438812            3.0065807            1.4626995

 ------------------------------------------------------------------------------------
  ==> Computing MBIS Charges <==

  Electron Count from Grid (Expected Number):  8.00000 ( 8.00000)
  Difference:  0.00000

  MBIS Charges: (a.u.)
   Center  Symbol  Z      Pop.       Charge
      1       O    8    7.547086    0.452914
      2       H    1    0.452914    0.547086

  MBIS Dipoles: [e a0]
   Center  Symbol  Z        X           Y           Z
      1       O    8    0.000000   -0.000000   -0.100821
      2       H    1    0.000000   -0.000000    0.062295

  MBIS Quadrupoles: [e a0^2]
   Center  Symbol  Z      XX        XY        XZ        YY        YZ        ZZ
      1       O    8   -2.8892   -0.0000   -0.0000   -2.8892   -0.0000   -3.3991
      2       H    1   -0.2272   -0.0000    0.0000   -0.2272   -0.0000   -0.2094

  MBIS Octupoles: [e a0^3]
   Center  Symbol  Z      XXX       XXY       XXZ       XYY       XYZ       XZZ       YYY       YYZ       YZZ       ZZZ
      1       O    8   -0.0000   -0.0000   -0.0742   -0.0000   -0.0000    0.0000   -0.0000   -0.0742   -0.0000   -0.2979
      2       H    1   -0.0000   -0.0000    0.0180    0.0000   -0.0000    0.0000   -0.0000    0.0180   -0.0000    0.0672

  MBIS Radial Moments:
   Center  Symbol  Z      [a0^2]      [a0^3]      [a0^4]
      1       O    8    9.177549   15.809484   32.563502
      2       H    1    0.663795    1.124844    2.271029

  MBIS Valence Widths: [a0]
   Center  Symbol  Z     Width
      1       O    8    0.361728
      2       H    1    0.354857

*** tstop() called on Mac.lan at Sun Aug 10 18:29:41 2025
Module time:
	user time   =       6.99 seconds =       0.12 minutes
	system time =       2.13 seconds =       0.04 minutes
	total time  =          0 seconds =       0.00 minutes
Total time:
	user time   =      36.46 seconds =       0.61 minutes
	system time =       4.83 seconds =       0.08 minutes
	total time  =          4 seconds =       0.07 minutes

    Psi4 stopped on: Sunday, 10 August 2025 06:29PM
    Psi4 wall time for execution: 0:00:04.31

*** Psi4 exiting successfully. Buy a developer a beer!
