                               Psi4 1.9.1 release

  ==> Input File <==

--------------------------------------------------------------------------
molecule {
1 2
H           0.000000           0.000000           0.000000
H           0.000000           0.000000           1.077403
}

set {
basis              cc-pvtz
reference          uks
maxiter            500
DAMPING_PERCENTAGE 1
E_CONVERGENCE      1.0E-8
D_CONVERGENCE      1.0E-8
DIIS_MAX_VECS      400
MBIS_MAXITER       8000
guess              read
}

E, wfn = energy('b3lyp', restart_file='last_wfn', return_wfn=True)
properties('b3lyp','MBIS_CHARGES', wfn=wfn)
wfn.to_file('last_wfn')
--------------------------------------------------------------------------

    Molecular point group: d2h
  Charge       = 1
  Multiplicity = 2
  Basis Set: CC-PVTZ
    Blend: CC-PVTZ
  Basis Set: (CC-PVTZ AUX)
    Blend: CC-PVTZ-JKFIT
  @DF-UKS Final Energy:    -0.61005407520875
    Total Energy =                         -0.6100540752087538
 Dipole X            :          0.0000000            0.0000000            0.0000000
 Dipole Y            :          0.0000000            0.0000000            0.0000000
 Dipole Z            :          0.0000000            0.0000000            0.0000000
 Magnitude           :                                                    0.0000000
    Molecular point group: d2h

    Geometry (in Angstrom), charge = 1, multiplicity = 2:

       Center              X                  Y                   Z               Mass
    ------------   -----------------  -----------------  -----------------  -----------------
         H            0.000000000000     0.000000000000    -0.538701500000     1.007825032230
         H            0.000000000000     0.000000000000     0.538701500000     1.007825032230

  Charge       = 1
  Multiplicity = 2
  Basis Set: CC-PVTZ
    Blend: CC-PVTZ
  Basis Set: (CC-PVTZ AUX)
    Blend: CC-PVTZ-JKFIT

    Orbital Energies [Eh]
    ---------------------

    Alpha Occupied:

       1Ag    -0.911438

    Alpha Virtual:

       1B1u   -0.428918     2Ag    -0.090737     2B1u    0.034894
       1B3u    0.059573     1B2u    0.059573     3Ag     0.375639
       1B2g    0.462066     1B3g    0.462066     3B1u    0.895641
       4Ag     1.709299     4B1u    1.847567     2B2u    2.350544
       2B3u    2.350544     5Ag     2.458422     1B1g    2.458422
       6Ag     2.478600     5B1u    2.984515     1Au     2.984515
       3B2u    3.084511     3B3u    3.084511     2B2g    3.163040
       2B3g    3.163040     6B1u    3.294545     3B3g    3.920102
       3B2g    3.920102     7Ag     4.001544     7B1u    5.182971

    Beta Occupied:

    Beta Virtual:

       1Ag    -0.560834     1B1u   -0.243572     2Ag     0.000148
       2B1u    0.153924     1B3u    0.200795     1B2u    0.200795
       3Ag     0.512018     1B3g    0.575820     1B2g    0.575820
       3B1u    1.010416     4Ag     2.002970     4B1u    2.137133
       2B3u    2.568369     2B2u    2.568369     5Ag     2.647263
       1B1g    2.647263     6Ag     2.757902     5B1u    3.169249
       1Au     3.169249     3B2u    3.326674     3B3u    3.326674
       2B2g    3.412775     2B3g    3.412775     6B1u    3.507855
       3B2g    4.119670     3B3g    4.119670     7Ag     4.226770
       7B1u    5.439937

    Final Occupation by Irrep:
             Ag   B1g   B2g   B3g    Au   B1u   B2u   B3u
    DOCC [     0,    0,    0,    0,    0,    0,    0,    0 ]
    SOCC [     1,    0,    0,    0,    0,    0,    0,    0 ]
    NA   [     1,    0,    0,    0,    0,    0,    0,    0 ]
    NB   [     0,    0,    0,    0,    0,    0,    0,    0 ]

  @DF-UKS Final Energy:    -0.61005407525259

   => Energetics <=

    Nuclear Repulsion Energy =              0.4911599565529333
    One-Electron Energy =                  -1.0923882611691149
    Two-Electron Energy =                   0.2624559638279536
    DFT Exchange-Correlation Energy =      -0.2712817344643610
    Empirical Dispersion Energy =           0.0000000000000000
    VV10 Nonlocal Energy =                  0.0000000000000000
    Total Energy =                         -0.6100540752525890

  UHF NO Occupations:
  HONO-0 :    1 Ag 1.0000000
  LUNO+0 :    2 Ag 0.0000000
  LUNO+1 :    3 Ag 0.0000000
  LUNO+2 :    4 Ag 0.0000000
  LUNO+3 :    3B3u 0.0000000

Computation Completed

Properties will be evaluated at   0.000000,   0.000000,   0.000000 [a0]

Properties computed using the B3LYP density matrix

 Multipole Moments:

 ------------------------------------------------------------------------------------
     Multipole            Electronic (a.u.)      Nuclear  (a.u.)        Total (a.u.)
 ------------------------------------------------------------------------------------

 L = 1.  Multiply by 2.5417464519 to convert [e a0] to [Debye]
 Dipole X            :          0.0000000            0.0000000            0.0000000
 Dipole Y            :          0.0000000            0.0000000            0.0000000
 Dipole Z            :          0.0000000            0.0000000            0.0000000
 Magnitude           :                                                    0.0000000

 L = 2.  Multiply by 1.3450342976 to convert [e a0^2] to [Debye ang]
 Quadrupole XX       :         -0.6340617            0.0000000           -0.6340617
 Quadrupole XY       :          0.0000000            0.0000000            0.0000000
 Quadrupole XZ       :          0.0000000            0.0000000            0.0000000
 Quadrupole YY       :         -0.6340617            0.0000000           -0.6340617
 Quadrupole YZ       :          0.0000000            0.0000000            0.0000000
 Quadrupole ZZ       :         -1.1923603            2.0726411            0.8802808
 Traceless XX        :          0.1860995           -0.6908804           -0.5047808
 Traceless YY        :          0.1860995           -0.6908804           -0.5047808
 Traceless ZZ        :         -0.3721991            1.3817607            1.0095616

 ------------------------------------------------------------------------------------
  ==> Computing MBIS Charges <==

  Electron Count from Grid (Expected Number):  1.00000 ( 1.00000)
  Difference: -0.00000

  MBIS Charges: (a.u.)
   Center  Symbol  Z      Pop.       Charge
      1       H    1    0.500000    0.500000
      2       H    1    0.500000    0.500000

  MBIS Dipoles: [e a0]
   Center  Symbol  Z        X           Y           Z
      1       H    1   -0.000000    0.000000   -0.108699
      2       H    1    0.000000   -0.000000    0.108699

  MBIS Quadrupoles: [e a0^2]
   Center  Symbol  Z      XX        XY        XZ        YY        YZ        ZZ
      1       H    1   -0.3170   -0.0000   -0.0000   -0.3170   -0.0000   -0.2993
      2       H    1   -0.3170   -0.0000    0.0000   -0.3170   -0.0000   -0.2993

  MBIS Octupoles: [e a0^3]
   Center  Symbol  Z      XXX       XXY       XXZ       XYY       XYZ       XZZ       YYY       YYZ       YZZ       ZZZ
      1       H    1   -0.0000    0.0000   -0.0732    0.0000    0.0000   -0.0000   -0.0000   -0.0732   -0.0000   -0.1468
      2       H    1   -0.0000    0.0000    0.0732    0.0000   -0.0000    0.0000    0.0000    0.0732    0.0000    0.1468

  MBIS Radial Moments:
   Center  Symbol  Z      [a0^2]      [a0^3]      [a0^4]
      1       H    1    0.933392    1.767055    3.971440
      2       H    1    0.933392    1.767055    3.971440

  MBIS Valence Widths: [a0]
   Center  Symbol  Z     Width
      1       H    1    0.401619
      2       H    1    0.401619

*** tstop() called on Mac.lan at Sun Aug 10 18:11:10 2025
Module time:
	user time   =       0.52 seconds =       0.01 minutes
	system time =       1.26 seconds =       0.02 minutes
	total time  =          0 seconds =       0.00 minutes
Total time:
	user time   =       1.57 seconds =       0.03 minutes
	system time =       3.02 seconds =       0.05 minutes
	total time  =          1 seconds =       0.02 minutes

    Psi4 stopped on: Sunday, 10 August 2025 06:11PM
    Psi4 wall time for execution: 0:00:00.60

*** Psi4 exiting successfully. Buy a developer a beer!
