                               Psi4 1.9.1 release

  ==> Input File <==

--------------------------------------------------------------------------
molecule {
1 1
C           0.000000           0.000000           0.000000
H           0.000000           0.000000           1.684194
}

set {
basis              cc-pvtz
reference          uks
maxiter            500
DAMPING_PERCENTAGE 1
E_CONVERGENCE      1.0E-8
D_CONVERGENCE      1.0E-8
DIIS_MAX_VECS      400
MBIS_MAXITER       8000
guess              read
}

E, wfn = energy('b3lyp', restart_file='last_wfn', return_wfn=True)
properties('b3lyp','MBIS_CHARGES', wfn=wfn)
wfn.to_file('last_wfn')
--------------------------------------------------------------------------

    Molecular point group: c2v
  Charge       = 1
  Multiplicity = 1
  Basis Set: CC-PVTZ
    Blend: CC-PVTZ
  Basis Set: (CC-PVTZ AUX)
    Blend: CC-PVTZ-JKFIT
  @DF-UKS Final Energy:   -38.03086472940912
    Total Energy =                        -38.0308647294091244
 Dipole X            :          0.0000000            0.0000000            0.0000000
 Dipole Y            :          0.0000000            0.0000000            0.0000000
 Dipole Z            :         -0.6178345            1.4565514            0.8387169
 Magnitude           :                                                    0.8387169
    Molecular point group: c2v

    Geometry (in Angstrom), charge = 1, multiplicity = 1:

       Center              X                  Y                   Z               Mass
    ------------   -----------------  -----------------  -----------------  -----------------
         C            0.000000000000     0.000000000000    -0.130488599603    12.000000000000
         H            0.000000000000     0.000000000000     1.553705400397     1.007825032230

  Charge       = 1
  Multiplicity = 1
  Basis Set: CC-PVTZ
    Blend: CC-PVTZ
  Basis Set: (CC-PVTZ AUX)
    Blend: CC-PVTZ-JKFIT

    Orbital Energies [Eh]
    ---------------------

    Alpha Occupied:

       1A1   -10.801109     2A1    -0.956099     3A1    -0.664689

    Alpha Virtual:

       1B2    -0.524747     1B1    -0.524747     4A1    -0.375766
       5A1    -0.004739     2B2     0.013304     2B1     0.013304
       6A1     0.042769     7A1     0.148672     3B1     0.223286
       3B2     0.223286     1A2     0.337240     8A1     0.337240
       9A1     0.455467     4B1     0.568766     4B2     0.568766
      10A1     0.883343     5B1     1.528499     5B2     1.528499
      11A1     1.640772    12A1     2.050247     6B1     2.192292
       6B2     2.192292    13A1     2.222213    14A1     2.255133
       2A2     2.255133     7B2     2.267337     7B1     2.267337
      15A1     2.499245     3A2     2.499245     8B2     2.543282
       8B1     2.543282    16A1     2.798398    17A1     2.900572
       4A2     2.900587     9B2     3.173289     9B1     3.173289
      18A1     3.263414    10B1     3.451487    10B2     3.451487
      19A1     3.619647    20A1     4.489064

    Beta Occupied:

       1A1   -10.801109     2A1    -0.956099     3A1    -0.664689

    Beta Virtual:

       1B2    -0.524747     1B1    -0.524747     4A1    -0.375766
       5A1    -0.004739     2B2     0.013304     2B1     0.013304
       6A1     0.042769     7A1     0.148672     3B1     0.223286
       3B2     0.223286     1A2     0.337240     8A1     0.337240
       9A1     0.455467     4B1     0.568766     4B2     0.568766
      10A1     0.883343     5B1     1.528499     5B2     1.528499
      11A1     1.640772    12A1     2.050247     6B1     2.192292
       6B2     2.192292    13A1     2.222213    14A1     2.255133
       2A2     2.255133     7B2     2.267337     7B1     2.267337
      15A1     2.499245     3A2     2.499245     8B2     2.543282
       8B1     2.543282    16A1     2.798398    17A1     2.900572
       4A2     2.900587     9B2     3.173289     9B1     3.173289
      18A1     3.263414    10B1     3.451487    10B2     3.451487
      19A1     3.619647    20A1     4.489064

    Final Occupation by Irrep:
             A1    A2    B1    B2
    DOCC [     3,    0,    0,    0 ]
    SOCC [     0,    0,    0,    0 ]
    NA   [     3,    0,    0,    0 ]
    NB   [     3,    0,    0,    0 ]

  @DF-UKS Final Energy:   -38.03086472917124

   => Energetics <=

    Nuclear Repulsion Energy =              1.8852123116576831
    One-Electron Energy =                 -51.9718516863784998
    Two-Electron Energy =                  16.2255241176971872
    DFT Exchange-Correlation Energy =      -4.1697494721476120
    Empirical Dispersion Energy =           0.0000000000000000
    VV10 Nonlocal Energy =                  0.0000000000000000
    Total Energy =                        -38.0308647291712418

  UHF NO Occupations:
  HONO-2 :    1 A1 2.0000000
  HONO-1 :    2 A1 2.0000000
  HONO-0 :    3 A1 2.0000000
  LUNO+0 :    4 A1 0.0000000
  LUNO+1 :    5 A1 0.0000000
  LUNO+2 :    6 A1 0.0000000
  LUNO+3 :    7 A1 0.0000000

Computation Completed

Properties will be evaluated at   0.000000,   0.000000,   0.000000 [a0]

Properties computed using the B3LYP density matrix

 Multipole Moments:

 ------------------------------------------------------------------------------------
     Multipole            Electronic (a.u.)      Nuclear  (a.u.)        Total (a.u.)
 ------------------------------------------------------------------------------------

 L = 1.  Multiply by 2.5417464519 to convert [e a0] to [Debye]
 Dipole X            :          0.0000000            0.0000000            0.0000000
 Dipole Y            :          0.0000000            0.0000000            0.0000000
 Dipole Z            :         -0.6178345            1.4565514            0.8387169
 Magnitude           :                                                    0.8387169

 L = 2.  Multiply by 1.3450342976 to convert [e a0^2] to [Debye ang]
 Quadrupole XX       :         -3.2255426            0.0000000           -3.2255426
 Quadrupole XY       :          0.0000000            0.0000000            0.0000000
 Quadrupole XZ       :          0.0000000            0.0000000            0.0000000
 Quadrupole YY       :         -3.2255426            0.0000000           -3.2255426
 Quadrupole YZ       :          0.0000000            0.0000000            0.0000000
 Quadrupole ZZ       :        -10.4307987            8.9853852           -1.4454135
 Traceless XX        :          2.4017520           -2.9951284           -0.5933764
 Traceless YY        :          2.4017520           -2.9951284           -0.5933764
 Traceless ZZ        :         -4.8035040            5.9902568            1.1867528

 ------------------------------------------------------------------------------------
  ==> Computing MBIS Charges <==

  Electron Count from Grid (Expected Number):  6.00000 ( 6.00000)
  Difference: -0.00000

  MBIS Charges: (a.u.)
   Center  Symbol  Z      Pop.       Charge
      1       C    6    5.265551    0.734449
      2       H    1    0.734449    0.265551

  MBIS Dipoles: [e a0]
   Center  Symbol  Z        X           Y           Z
      1       C    6    0.000000   -0.000000    0.064709
      2       H    1    0.000000    0.000000    0.175436

  MBIS Quadrupoles: [e a0^2]
   Center  Symbol  Z      XX        XY        XZ        YY        YZ        ZZ
      1       C    6   -2.6699   -0.0000    0.0000   -2.6699    0.0000   -4.2014
      2       H    1   -0.5556    0.0000    0.0000   -0.5556   -0.0000   -0.5761

  MBIS Octupoles: [e a0^3]
   Center  Symbol  Z      XXX       XXY       XXZ       XYY       XYZ       XZZ       YYY       YYZ       YZZ       ZZZ
      1       C    6    0.0000    0.0000    0.0489   -0.0000    0.0000    0.0000   -0.0000    0.0489   -0.0000    0.0483
      2       H    1    0.0000    0.0000    0.0900    0.0000   -0.0000    0.0000   -0.0000    0.0900   -0.0000    0.3045

  MBIS Radial Moments:
   Center  Symbol  Z      [a0^2]      [a0^3]      [a0^4]
      1       C    6    9.541243   20.889440   54.354059
      2       H    1    1.687383    3.515357    8.667462

  MBIS Valence Widths: [a0]
   Center  Symbol  Z     Width
      1       C    6    0.476003
      2       H    1    0.446927

*** tstop() called on Mac.lan at Sun Aug 10 18:27:58 2025
Module time:
	user time   =       3.04 seconds =       0.05 minutes
	system time =       1.69 seconds =       0.03 minutes
	total time  =          1 seconds =       0.02 minutes
Total time:
	user time   =      16.39 seconds =       0.27 minutes
	system time =       4.22 seconds =       0.07 minutes
	total time  =          2 seconds =       0.03 minutes

    Psi4 stopped on: Sunday, 10 August 2025 06:27PM
    Psi4 wall time for execution: 0:00:02.05

*** Psi4 exiting successfully. Buy a developer a beer!
