                               Psi4 1.9.1 release

  ==> Input File <==

--------------------------------------------------------------------------
molecule {
1 2
H           0.000000           0.000000           0.000000
H           0.000000           0.000000           1.097860
}

set {
basis              cc-pvtz
reference          uks
maxiter            500
DAMPING_PERCENTAGE 1
E_CONVERGENCE      1.0E-8
D_CONVERGENCE      1.0E-8
DIIS_MAX_VECS      400
MBIS_MAXITER       8000
guess              read
}

E, wfn = energy('b3lyp', restart_file='last_wfn', return_wfn=True)
properties('b3lyp','MBIS_CHARGES', wfn=wfn)
wfn.to_file('last_wfn')
--------------------------------------------------------------------------

    Molecular point group: d2h
  Charge       = 1
  Multiplicity = 2
  Basis Set: CC-PVTZ
    Blend: CC-PVTZ
  Basis Set: (CC-PVTZ AUX)
    Blend: CC-PVTZ-JKFIT
  @DF-UKS Final Energy:    -0.61021386284380
    Total Energy =                         -0.6102138628437989
 Dipole X            :          0.0000000            0.0000000            0.0000000
 Dipole Y            :          0.0000000            0.0000000            0.0000000
 Dipole Z            :          0.0000000            0.0000000            0.0000000
 Magnitude           :                                                    0.0000000
    Molecular point group: d2h

    Geometry (in Angstrom), charge = 1, multiplicity = 2:

       Center              X                  Y                   Z               Mass
    ------------   -----------------  -----------------  -----------------  -----------------
         H            0.000000000000     0.000000000000    -0.548930000000     1.007825032230
         H            0.000000000000     0.000000000000     0.548930000000     1.007825032230

  Charge       = 1
  Multiplicity = 2
  Basis Set: CC-PVTZ
    Blend: CC-PVTZ
  Basis Set: (CC-PVTZ AUX)
    Blend: CC-PVTZ-JKFIT

    Orbital Energies [Eh]
    ---------------------

    Alpha Occupied:

       1Ag    -0.904267

    Alpha Virtual:

       1B1u   -0.434187     2Ag    -0.088814     2B1u    0.033050
       1B3u    0.061462     1B2u    0.061462     3Ag     0.367785
       1B3g    0.457827     1B2g    0.457827     3B1u    0.889660
       4Ag     1.718350     4B1u    1.860991     2B2u    2.346027
       2B3u    2.346027     5Ag     2.458717     6Ag     2.471017
       1B1g    2.471017     5B1u    2.971186     1Au     2.971186
       3B2u    3.081201     3B3u    3.081201     2B3g    3.161119
       2B2g    3.161119     6B1u    3.291616     3B2g    3.879537
       3B3g    3.879537     7Ag     3.967362     7B1u    5.148836

    Beta Occupied:

    Beta Virtual:

       1Ag    -0.556664     1B1u   -0.246601     2Ag     0.002252
       2B1u    0.151126     1B3u    0.202300     1B2u    0.202300
       3Ag     0.505209     1B2g    0.572187     1B3g    0.572187
       3B1u    1.006199     4Ag     2.012828     4B1u    2.151102
       2B3u    2.561045     2B2u    2.561045     5Ag     2.659243
       1B1g    2.659243     6Ag     2.735619     5B1u    3.155782
       1Au     3.155782     3B2u    3.324686     3B3u    3.324686
       2B2g    3.412179     2B3g    3.412179     6B1u    3.507931
       3B2g    4.077560     3B3g    4.077560     7Ag     4.192519
       7B1u    5.401311

    Final Occupation by Irrep:
             Ag   B1g   B2g   B3g    Au   B1u   B2u   B3u
    DOCC [     0,    0,    0,    0,    0,    0,    0,    0 ]
    SOCC [     1,    0,    0,    0,    0,    0,    0,    0 ]
    NA   [     1,    0,    0,    0,    0,    0,    0,    0 ]
    NB   [     0,    0,    0,    0,    0,    0,    0,    0 ]

  @DF-UKS Final Energy:    -0.61021386288684

   => Energetics <=

    Nuclear Repulsion Energy =              0.4820079160093272
    One-Electron Energy =                  -1.0829806956404473
    Two-Electron Energy =                   0.2600567187571639
    DFT Exchange-Correlation Energy =      -0.2692978020128821
    Empirical Dispersion Energy =           0.0000000000000000
    VV10 Nonlocal Energy =                  0.0000000000000000
    Total Energy =                         -0.6102138628868383

  UHF NO Occupations:
  HONO-0 :    1 Ag 1.0000000
  LUNO+0 :    2 Ag 0.0000000
  LUNO+1 :    3 Ag 0.0000000
  LUNO+2 :    3B3u 0.0000000
  LUNO+3 :    2B3u 0.0000000

Computation Completed

Properties will be evaluated at   0.000000,   0.000000,   0.000000 [a0]

Properties computed using the B3LYP density matrix

 Multipole Moments:

 ------------------------------------------------------------------------------------
     Multipole            Electronic (a.u.)      Nuclear  (a.u.)        Total (a.u.)
 ------------------------------------------------------------------------------------

 L = 1.  Multiply by 2.5417464519 to convert [e a0] to [Debye]
 Dipole X            :          0.0000000            0.0000000            0.0000000
 Dipole Y            :          0.0000000            0.0000000            0.0000000
 Dipole Z            :          0.0000000            0.0000000            0.0000000
 Magnitude           :                                                    0.0000000

 L = 2.  Multiply by 1.3450342976 to convert [e a0^2] to [Debye ang]
 Quadrupole XX       :         -0.6406683            0.0000000           -0.6406683
 Quadrupole XY       :          0.0000000            0.0000000            0.0000000
 Quadrupole XZ       :          0.0000000            0.0000000            0.0000000
 Quadrupole YY       :         -0.6406683            0.0000000           -0.6406683
 Quadrupole YZ       :          0.0000000            0.0000000            0.0000000
 Quadrupole ZZ       :         -1.2259908            2.1520961            0.9261053
 Traceless XX        :          0.1951075           -0.7173654           -0.5222579
 Traceless YY        :          0.1951075           -0.7173654           -0.5222579
 Traceless ZZ        :         -0.3902150            1.4347307            1.0445157

 ------------------------------------------------------------------------------------
  ==> Computing MBIS Charges <==

  Electron Count from Grid (Expected Number):  1.00000 ( 1.00000)
  Difference: -0.00000

  MBIS Charges: (a.u.)
   Center  Symbol  Z      Pop.       Charge
      1       H    1    0.500000    0.500000
      2       H    1    0.500000    0.500000

  MBIS Dipoles: [e a0]
   Center  Symbol  Z        X           Y           Z
      1       H    1   -0.000000    0.000000   -0.110616
      2       H    1    0.000000   -0.000000    0.110616

  MBIS Quadrupoles: [e a0^2]
   Center  Symbol  Z      XX        XY        XZ        YY        YZ        ZZ
      1       H    1   -0.3203   -0.0000   -0.0000   -0.3203    0.0000   -0.3045
      2       H    1   -0.3203   -0.0000   -0.0000   -0.3203    0.0000   -0.3045

  MBIS Octupoles: [e a0^3]
   Center  Symbol  Z      XXX       XXY       XXZ       XYY       XYZ       XZZ       YYY       YYZ       YZZ       ZZZ
      1       H    1   -0.0000    0.0000   -0.0754    0.0000    0.0000    0.0000   -0.0000   -0.0754   -0.0000   -0.1525
      2       H    1   -0.0000    0.0000    0.0754    0.0000   -0.0000    0.0000    0.0000    0.0754    0.0000    0.1525

  MBIS Radial Moments:
   Center  Symbol  Z      [a0^2]      [a0^3]      [a0^4]
      1       H    1    0.945130    1.799947    4.069099
      2       H    1    0.945130    1.799947    4.069099

  MBIS Valence Widths: [a0]
   Center  Symbol  Z     Width
      1       H    1    0.404172
      2       H    1    0.404172

*** tstop() called on Mac.lan at Sun Aug 10 18:11:09 2025
Module time:
	user time   =       0.46 seconds =       0.01 minutes
	system time =       1.41 seconds =       0.02 minutes
	total time  =          0 seconds =       0.00 minutes
Total time:
	user time   =       1.43 seconds =       0.02 minutes
	system time =       3.25 seconds =       0.05 minutes
	total time  =          1 seconds =       0.02 minutes

    Psi4 stopped on: Sunday, 10 August 2025 06:11PM
    Psi4 wall time for execution: 0:00:00.61

*** Psi4 exiting successfully. Buy a developer a beer!
