                               Psi4 1.9.1 release

  ==> Input File <==

--------------------------------------------------------------------------
molecule {
1 1
O           0.000000           0.000000           0.000000
N           0.000000           0.000000           0.945060
}

set {
basis              cc-pvtz
reference          uks
maxiter            500
DAMPING_PERCENTAGE 1
E_CONVERGENCE      1.0E-8
D_CONVERGENCE      1.0E-8
DIIS_MAX_VECS      400
MBIS_MAXITER       8000
guess              read
}

E, wfn = energy('b3lyp', restart_file='last_wfn', return_wfn=True)
properties('b3lyp','MBIS_CHARGES', wfn=wfn)
wfn.to_file('last_wfn')
--------------------------------------------------------------------------

    Molecular point group: c2v
  Charge       = 1
  Multiplicity = 1
  Basis Set: CC-PVTZ
    Blend: CC-PVTZ
  Basis Set: (CC-PVTZ AUX)
    Blend: CC-PVTZ-JKFIT
  @DF-UKS Final Energy:  -129.53366027940720
    Total Energy =                       -129.5336602794072007
 Dipole X            :          0.0000000            0.0000000            0.0000000
 Dipole Y            :          0.0000000            0.0000000            0.0000000
 Dipole Z            :          0.0584848           -0.0035833            0.0549014
 Magnitude           :                                                    0.0549014
    Molecular point group: c2v

    Geometry (in Angstrom), charge = 1, multiplicity = 1:

       Center              X                  Y                   Z               Mass
    ------------   -----------------  -----------------  -----------------  -----------------
         O            0.000000000000     0.000000000000    -0.441154414868    15.994914619570
         N            0.000000000000     0.000000000000     0.503905585132    14.003074004430

  Charge       = 1
  Multiplicity = 1
  Basis Set: CC-PVTZ
    Blend: CC-PVTZ
  Basis Set: (CC-PVTZ AUX)
    Blend: CC-PVTZ-JKFIT

    Orbital Energies [Eh]
    ---------------------

    Alpha Occupied:

       1A1   -19.762485     2A1   -14.926398     3A1    -1.892046
       4A1    -1.085780     1B2    -1.057764     1B1    -1.057764
       5A1    -0.923837

    Alpha Virtual:

       2B1    -0.430029     2B2    -0.430029     6A1    -0.058767
       3B2     0.064070     3B1     0.064070     7A1     0.119076
       8A1     0.196473     4B1     0.289281     4B2     0.289281
       9A1     0.504813    10A1     0.512335     1A2     0.512335
      11A1     0.839708     5B1     0.858110     5B2     0.858110
       2A2     1.199957    12A1     1.199957    13A1     1.492125
       6B1     1.693271     6B2     1.693271    14A1     1.972862
       7B1     2.348896     7B2     2.348896    15A1     2.735809
      16A1     3.242516     8B1     3.304096     8B2     3.304096
       9B2     3.309810     9B1     3.309810    17A1     3.409602
       3A2     3.409602    10B1     3.690705    10B2     3.690705
      18A1     3.933861     4A2     3.933862    19A1     4.165858
      11B1     4.390758    11B2     4.390758    12B2     4.674813
      12B1     4.674813    20A1     5.051710     5A2     5.566512
      21A1     5.566513     6A2     5.713685    22A1     5.713690
      13B1     6.116589    13B2     6.116589    23A1     6.287399
      24A1     6.799503    14B1     7.311981    14B2     7.311981
      25A1     7.986723    26A1    19.065552

    Beta Occupied:

       1A1   -19.762485     2A1   -14.926398     3A1    -1.892046
       4A1    -1.085780     1B2    -1.057764     1B1    -1.057764
       5A1    -0.923837

    Beta Virtual:

       2B1    -0.430029     2B2    -0.430029     6A1    -0.058767
       3B2     0.064070     3B1     0.064070     7A1     0.119076
       8A1     0.196473     4B1     0.289281     4B2     0.289281
       9A1     0.504813    10A1     0.512335     1A2     0.512335
      11A1     0.839708     5B1     0.858110     5B2     0.858110
       2A2     1.199957    12A1     1.199957    13A1     1.492125
       6B1     1.693271     6B2     1.693271    14A1     1.972862
       7B1     2.348896     7B2     2.348896    15A1     2.735809
      16A1     3.242516     8B1     3.304096     8B2     3.304096
       9B2     3.309810     9B1     3.309810    17A1     3.409602
       3A2     3.409602    10B1     3.690705    10B2     3.690705
      18A1     3.933861     4A2     3.933862    19A1     4.165858
      11B1     4.390758    11B2     4.390758    12B2     4.674813
      12B1     4.674813    20A1     5.051710     5A2     5.566512
      21A1     5.566513     6A2     5.713685    22A1     5.713690
      13B1     6.116589    13B2     6.116589    23A1     6.287399
      24A1     6.799503    14B1     7.311981    14B2     7.311981
      25A1     7.986723    26A1    19.065552

    Final Occupation by Irrep:
             A1    A2    B1    B2
    DOCC [     5,    0,    1,    1 ]
    SOCC [     0,    0,    0,    0 ]
    NA   [     5,    0,    1,    1 ]
    NB   [     5,    0,    1,    1 ]

  @DF-UKS Final Energy:  -129.53366027393960

   => Energetics <=

    Nuclear Repulsion Energy =             31.3566586222250478
    One-Electron Energy =                -231.5522902183595022
    Two-Electron Energy =                  82.9321492449439148
    DFT Exchange-Correlation Energy =     -12.2701779227490650
    Empirical Dispersion Energy =           0.0000000000000000
    VV10 Nonlocal Energy =                  0.0000000000000000
    Total Energy =                       -129.5336602739396028

  UHF NO Occupations:
  HONO-2 :    4 A1 2.0000000
  HONO-1 :    1 B1 2.0000000
  HONO-0 :    5 A1 2.0000000
  LUNO+0 :    6 A1 0.0000000
  LUNO+1 :    2 B2 0.0000000
  LUNO+2 :    7 A1 0.0000000
  LUNO+3 :    8 A1 0.0000000

Computation Completed

Properties will be evaluated at   0.000000,   0.000000,   0.000000 [a0]

Properties computed using the B3LYP density matrix

 Multipole Moments:

 ------------------------------------------------------------------------------------
     Multipole            Electronic (a.u.)      Nuclear  (a.u.)        Total (a.u.)
 ------------------------------------------------------------------------------------

 L = 1.  Multiply by 2.5417464519 to convert [e a0] to [Debye]
 Dipole X            :          0.0000000            0.0000000            0.0000000
 Dipole Y            :          0.0000000            0.0000000            0.0000000
 Dipole Z            :          0.0584848           -0.0035833            0.0549014
 Magnitude           :                                                    0.0549014

 L = 2.  Multiply by 1.3450342976 to convert [e a0^2] to [Debye ang]
 Quadrupole XX       :         -5.5947987            0.0000000           -5.5947987
 Quadrupole XY       :          0.0000000            0.0000000            0.0000000
 Quadrupole XZ       :          0.0000000            0.0000000            0.0000000
 Quadrupole YY       :         -5.5947987            0.0000000           -5.5947987
 Quadrupole YZ       :          0.0000000            0.0000000            0.0000000
 Quadrupole ZZ       :        -17.4876677           11.9073000           -5.5803677
 Traceless XX        :          3.9642897           -3.9691000           -0.0048103
 Traceless YY        :          3.9642897           -3.9691000           -0.0048103
 Traceless ZZ        :         -7.9285794            7.9382000            0.0096207

 ------------------------------------------------------------------------------------
  ==> Computing MBIS Charges <==

  Electron Count from Grid (Expected Number): 14.00000 (14.00000)
  Difference: -0.00000

  MBIS Charges: (a.u.)
   Center  Symbol  Z      Pop.       Charge
      1       O    8    7.583867    0.416133
      2       N    7    6.416133    0.583867

  MBIS Dipoles: [e a0]
   Center  Symbol  Z        X           Y           Z
      1       O    8    0.000000   -0.000000   -0.057031
      2       N    7    0.000000   -0.000000   -0.097137

  MBIS Quadrupoles: [e a0^2]
   Center  Symbol  Z      XX        XY        XZ        YY        YZ        ZZ
      1       O    8   -2.8028    0.0000   -0.0000   -2.8028   -0.0000   -3.0628
      2       N    7   -2.7920   -0.0000   -0.0000   -2.7920    0.0000   -3.2463

  MBIS Octupoles: [e a0^3]
   Center  Symbol  Z      XXX       XXY       XXZ       XYY       XYZ       XZZ       YYY       YYZ       YZZ       ZZZ
      1       O    8    0.0000   -0.0000   -0.0203    0.0000    0.0000    0.0000   -0.0000   -0.0203    0.0000   -0.0571
      2       N    7    0.0000    0.0000   -0.0562    0.0000   -0.0000    0.0000   -0.0000   -0.0562   -0.0000   -0.2168

  MBIS Radial Moments:
   Center  Symbol  Z      [a0^2]      [a0^3]      [a0^4]
      1       O    8    8.668413   14.430355   28.785693
      2       N    7    8.830286   16.446659   36.575842

  MBIS Valence Widths: [a0]
   Center  Symbol  Z     Width
      1       O    8    0.349353
      2       N    7    0.394083

*** tstop() called on Mac.lan at Sun Aug 10 18:40:33 2025
Module time:
	user time   =      15.83 seconds =       0.26 minutes
	system time =       2.18 seconds =       0.04 minutes
	total time  =          1 seconds =       0.02 minutes
Total time:
	user time   =      78.16 seconds =       1.30 minutes
	system time =       4.82 seconds =       0.08 minutes
	total time  =          9 seconds =       0.15 minutes

    Psi4 stopped on: Sunday, 10 August 2025 06:40PM
    Psi4 wall time for execution: 0:00:09.06

*** Psi4 exiting successfully. Buy a developer a beer!
