                               Psi4 1.9.1 release

  ==> Input File <==

--------------------------------------------------------------------------
molecule {
1 4
C           0.000000           0.000000           0.000000
C           0.000000           0.000000           1.157079
}

set {
basis              cc-pvtz
reference          uks
maxiter            500
DAMPING_PERCENTAGE 1
E_CONVERGENCE      1.0E-8
D_CONVERGENCE      1.0E-8
DIIS_MAX_VECS      400
MBIS_MAXITER       8000
guess              read
}

E, wfn = energy('b3lyp', restart_file='last_wfn', return_wfn=True)
properties('b3lyp','MBIS_CHARGES', wfn=wfn)
wfn.to_file('last_wfn')
--------------------------------------------------------------------------

    Molecular point group: d2h
  Charge       = 1
  Multiplicity = 4
  Basis Set: CC-PVTZ
    Blend: CC-PVTZ
  Basis Set: (CC-PVTZ AUX)
    Blend: CC-PVTZ-JKFIT
  @DF-UKS Final Energy:   -75.45209898339797
    Total Energy =                        -75.4520989833979741
 Dipole X            :          0.0000000            0.0000000            0.0000000
 Dipole Y            :          0.0000000            0.0000000            0.0000000
 Dipole Z            :          0.0000000            0.0000000            0.0000000
 Magnitude           :                                                    0.0000000
    Molecular point group: d2h

    Geometry (in Angstrom), charge = 1, multiplicity = 4:

       Center              X                  Y                   Z               Mass
    ------------   -----------------  -----------------  -----------------  -----------------
         C            0.000000000000     0.000000000000    -0.578539500000    12.000000000000
         C            0.000000000000     0.000000000000     0.578539500000    12.000000000000

  Charge       = 1
  Multiplicity = 4
  Basis Set: CC-PVTZ
    Blend: CC-PVTZ
  Basis Set: (CC-PVTZ AUX)
    Blend: CC-PVTZ-JKFIT

    Orbital Energies [Eh]
    ---------------------

    Alpha Occupied:

       1Ag   -10.679147     1B1u  -10.675367     2Ag    -1.235290
       2B1u   -0.825407     1B2u   -0.767267     3Ag    -0.752839
       1B3u   -0.727382

    Alpha Virtual:

       1B3g   -0.361957     1B2g   -0.332185     3B1u   -0.043174
       2B2u   -0.014996     2B3u   -0.003066     4Ag     0.012744
       5Ag     0.026377     2B3g    0.111272     2B2g    0.120971
       4B1u    0.222817     1B1g    0.226233     6Ag     0.226925
       5B1u    0.406501     3B2u    0.429717     3B3u    0.452966
       1Au     0.557711     6B1u    0.558120     7Ag     0.814454
       3B3g    0.822378     3B2g    0.836091     7B1u    1.155334
       4B2u    1.513133     4B3u    1.541264     8Ag     1.713515
       4B3g    1.852192     4B2g    1.880896     8B1u    1.958585
       2B1g    2.053846     9Ag     2.054899     5B2u    2.085261
       5B3u    2.085607     6B2u    2.116656     6B3u    2.149336
      10Ag     2.350256     5B3g    2.534510     5B2g    2.535839
      11Ag     2.538995     3B1g    2.539024     6B3g    2.547054
       6B2g    2.565510     9B1u    2.614257     2Au     2.615018
      10B1u    2.993083     7B2u    3.129437     7B3u    3.156187
      12Ag     3.177509     3Au     3.245522    11B1u    3.245945
      12B1u    3.785143     7B3g    4.404214     7B2g    4.435158
      13Ag     4.822640    13B1u   14.022261

    Beta Occupied:

       1Ag   -10.645724     1B1u  -10.642375     2Ag    -1.152938
       1B3u   -0.685191

    Beta Virtual:

       1B2u   -0.573672     2B1u   -0.570859     3Ag    -0.496144
       1B2g   -0.268526     1B3g   -0.232622     3B1u   -0.014317
       2B3u    0.004089     2B2u    0.014810     4Ag     0.039908
       5Ag     0.093325     2B2g    0.135783     2B3g    0.151668
       1B1g    0.261497     6Ag     0.266181     4B1u    0.311534
       5B1u    0.458868     3B3u    0.505688     3B2u    0.521447
       1Au     0.596114     6B1u    0.602519     3B2g    0.871063
       3B3g    0.886006     7Ag     0.890989     7B1u    1.230897
       4B3u    1.565108     4B2u    1.580690     8Ag     1.777257
       4B2g    1.907524     4B3g    1.919624     8B1u    2.052824
       2B1g    2.104872     9Ag     2.111381     5B3u    2.138115
       5B2u    2.141309     6B3u    2.211701     6B2u    2.235690
      10Ag     2.502350     5B2g    2.594739     5B3g    2.598842
       3B1g    2.632036    11Ag     2.644515     6B2g    2.671543
       2Au     2.702820     6B3g    2.708226     9B1u    2.714454
      10B1u    3.128879     7B3u    3.247455    12Ag     3.268592
       7B2u    3.277159     3Au     3.313301    11B1u    3.324024
      12B1u    3.882995     7B2g    4.493297     7B3g    4.518346
      13Ag     4.887794    13B1u   14.078660

    Final Occupation by Irrep:
             Ag   B1g   B2g   B3g    Au   B1u   B2u   B3u
    DOCC [     2,    0,    0,    0,    0,    1,    0,    1 ]
    SOCC [     1,    0,    0,    0,    0,    1,    1,    0 ]
    NA   [     3,    0,    0,    0,    0,    2,    1,    1 ]
    NB   [     2,    0,    0,    0,    0,    1,    0,    1 ]

  @DF-UKS Final Energy:   -75.45209898304917

   => Energetics <=

    Nuclear Repulsion Energy =             16.4641995785248874
    One-Electron Energy =                -128.9725410759389774
    Two-Electron Energy =                  45.4802335434105416
    DFT Exchange-Correlation Energy =      -8.4239910290456113
    Empirical Dispersion Energy =           0.0000000000000000
    VV10 Nonlocal Energy =                  0.0000000000000000
    Total Energy =                        -75.4520989830491686

  UHF NO Occupations:
  HONO-2 :    1B2u 1.0000000
  HONO-1 :    3 Ag 1.0000000
  HONO-0 :    2B1u 1.0000000
  LUNO+0 :    2B3u 0.0006546
  LUNO+1 :    4 Ag 0.0004803
  LUNO+2 :    3B1u 0.0000010
  LUNO+3 :    5 Ag 0.0000006

Computation Completed

Properties will be evaluated at   0.000000,   0.000000,   0.000000 [a0]

Properties computed using the B3LYP density matrix

 Multipole Moments:

 ------------------------------------------------------------------------------------
     Multipole            Electronic (a.u.)      Nuclear  (a.u.)        Total (a.u.)
 ------------------------------------------------------------------------------------

 L = 1.  Multiply by 2.5417464519 to convert [e a0] to [Debye]
 Dipole X            :          0.0000000            0.0000000            0.0000000
 Dipole Y            :          0.0000000            0.0000000            0.0000000
 Dipole Z            :          0.0000000            0.0000000            0.0000000
 Magnitude           :                                                    0.0000000

 L = 2.  Multiply by 1.3450342976 to convert [e a0^2] to [Debye ang]
 Quadrupole XX       :         -6.8758944            0.0000000           -6.8758944
 Quadrupole XY       :          0.0000000            0.0000000            0.0000000
 Quadrupole XZ       :          0.0000000            0.0000000            0.0000000
 Quadrupole YY       :         -5.7222808            0.0000000           -5.7222808
 Quadrupole YZ       :          0.0000000            0.0000000            0.0000000
 Quadrupole ZZ       :        -18.2103995           14.3431656           -3.8672339
 Traceless XX        :          3.3936305           -4.7810552           -1.3874247
 Traceless YY        :          4.5472441           -4.7810552           -0.2338111
 Traceless ZZ        :         -7.9408746            9.5621104            1.6212358

 ------------------------------------------------------------------------------------
  ==> Computing MBIS Charges <==

  Electron Count from Grid (Expected Number): 11.00000 (11.00000)
  Difference: -0.00000

  MBIS Charges: (a.u.)
   Center  Symbol  Z      Pop.       Charge
      1       C    6    5.500000    0.500000
      2       C    6    5.500000    0.500000

  MBIS Dipoles: [e a0]
   Center  Symbol  Z        X           Y           Z
      1       C    6   -0.000000   -0.000000   -0.359878
      2       C    6   -0.000000   -0.000000    0.359878

  MBIS Quadrupoles: [e a0^2]
   Center  Symbol  Z      XX        XY        XZ        YY        YZ        ZZ
      1       C    6   -3.4379   -0.0000   -0.0000   -2.8611   -0.0000   -3.3181
      2       C    6   -3.4379   -0.0000   -0.0000   -2.8611    0.0000   -3.3181

  MBIS Octupoles: [e a0^3]
   Center  Symbol  Z      XXX       XXY       XXZ       XYY       XYZ       XZZ       YYY       YYZ       YZZ       ZZZ
      1       C    6   -0.0000   -0.0000   -0.4282   -0.0000   -0.0000   -0.0000    0.0000   -0.2514    0.0000   -0.5994
      2       C    6   -0.0000   -0.0000    0.4282   -0.0000    0.0000   -0.0000    0.0000    0.2514    0.0000    0.5994

  MBIS Radial Moments:
   Center  Symbol  Z      [a0^2]      [a0^3]      [a0^4]
      1       C    6    9.617232   20.654473   52.983731
      2       C    6    9.617232   20.654473   52.983731

  MBIS Valence Widths: [a0]
   Center  Symbol  Z     Width
      1       C    6    0.459598
      2       C    6    0.459598

*** tstop() called on Mac.lan at Sun Aug 10 18:15:07 2025
Module time:
	user time   =       4.30 seconds =       0.07 minutes
	system time =       2.41 seconds =       0.04 minutes
	total time  =          1 seconds =       0.02 minutes
Total time:
	user time   =      15.48 seconds =       0.26 minutes
	system time =       4.68 seconds =       0.08 minutes
	total time  =          2 seconds =       0.03 minutes

    Psi4 stopped on: Sunday, 10 August 2025 06:15PM
    Psi4 wall time for execution: 0:00:01.99

*** Psi4 exiting successfully. Buy a developer a beer!
