                               Psi4 1.9.1 release

  ==> Input File <==

--------------------------------------------------------------------------
molecule {
1 1
O           0.000000           0.000000           0.000000
N           0.000000           0.000000           1.119832
}

set {
basis              cc-pvtz
reference          uks
maxiter            500
DAMPING_PERCENTAGE 1
E_CONVERGENCE      1.0E-8
D_CONVERGENCE      1.0E-8
DIIS_MAX_VECS      400
MBIS_MAXITER       8000
guess              read
}

E, wfn = energy('b3lyp', restart_file='last_wfn', return_wfn=True)
properties('b3lyp','MBIS_CHARGES', wfn=wfn)
wfn.to_file('last_wfn')
--------------------------------------------------------------------------

    Molecular point group: c2v
  Charge       = 1
  Multiplicity = 1
  Basis Set: CC-PVTZ
    Blend: CC-PVTZ
  Basis Set: (CC-PVTZ AUX)
    Blend: CC-PVTZ-JKFIT
  @DF-UKS Final Energy:  -129.57606831731238
    Total Energy =                       -129.5760683173123766
 Dipole X            :          0.0000000            0.0000000            0.0000000
 Dipole Y            :          0.0000000            0.0000000            0.0000000
 Dipole Z            :          0.2133873           -0.0042460            0.2091413
 Magnitude           :                                                    0.2091413
    Molecular point group: c2v

    Geometry (in Angstrom), charge = 1, multiplicity = 1:

       Center              X                  Y                   Z               Mass
    ------------   -----------------  -----------------  -----------------  -----------------
         O            0.000000000000     0.000000000000    -0.522738059711    15.994914619570
         N            0.000000000000     0.000000000000     0.597093940289    14.003074004430

  Charge       = 1
  Multiplicity = 1
  Basis Set: CC-PVTZ
    Blend: CC-PVTZ
  Basis Set: (CC-PVTZ AUX)
    Blend: CC-PVTZ-JKFIT

    Orbital Energies [Eh]
    ---------------------

    Alpha Occupied:

       1A1   -19.769989     2A1   -14.975950     3A1    -1.729687
       4A1    -1.104048     1B1    -0.958129     1B2    -0.958129
       5A1    -0.915831

    Alpha Virtual:

       2B2    -0.519742     2B1    -0.519742     6A1    -0.073136
       3B2     0.088921     3B1     0.088921     7A1     0.111637
       8A1     0.160981     9A1     0.225338     4B1     0.282256
       4B2     0.282256     1A2     0.536820    10A1     0.536820
       5B1     0.748871     5B2     0.748871    11A1     0.830004
       2A2     1.143098    12A1     1.143098    13A1     1.274266
       6B1     1.630786     6B2     1.630786    14A1     1.840843
       7B2     2.390726     7B1     2.390726    15A1     2.629854
       8B2     3.121029     8B1     3.121029     3A2     3.333612
      16A1     3.333612     9B1     3.353335     9B2     3.353335
      17A1     3.405942    10B2     3.612930    10B1     3.612930
      18A1     3.886961     4A2     3.922397    19A1     3.922400
      11B1     4.312795    11B2     4.312795    20A1     4.429444
      12B1     4.626399    12B2     4.626399     5A2     5.156099
      21A1     5.156100    22A1     5.712656     6A2     5.712663
      23A1     5.924614    13B1     5.987876    13B2     5.987876
      14B2     6.564206    14B1     6.564206    24A1     6.616352
      25A1     6.682273    26A1    13.617310

    Beta Occupied:

       1A1   -19.769989     2A1   -14.975950     3A1    -1.729687
       4A1    -1.104048     1B1    -0.958129     1B2    -0.958129
       5A1    -0.915831

    Beta Virtual:

       2B2    -0.519742     2B1    -0.519742     6A1    -0.073136
       3B2     0.088921     3B1     0.088921     7A1     0.111637
       8A1     0.160981     9A1     0.225338     4B1     0.282256
       4B2     0.282256     1A2     0.536820    10A1     0.536820
       5B1     0.748871     5B2     0.748871    11A1     0.830004
       2A2     1.143098    12A1     1.143098    13A1     1.274266
       6B1     1.630786     6B2     1.630786    14A1     1.840843
       7B2     2.390726     7B1     2.390726    15A1     2.629854
       8B2     3.121029     8B1     3.121029     3A2     3.333612
      16A1     3.333612     9B1     3.353335     9B2     3.353335
      17A1     3.405942    10B2     3.612930    10B1     3.612930
      18A1     3.886961     4A2     3.922397    19A1     3.922400
      11B1     4.312795    11B2     4.312795    20A1     4.429444
      12B1     4.626399    12B2     4.626399     5A2     5.156099
      21A1     5.156100    22A1     5.712656     6A2     5.712663
      23A1     5.924614    13B1     5.987876    13B2     5.987876
      14B2     6.564206    14B1     6.564206    24A1     6.616352
      25A1     6.682273    26A1    13.617310

    Final Occupation by Irrep:
             A1    A2    B1    B2
    DOCC [     5,    0,    1,    1 ]
    SOCC [     0,    0,    0,    0 ]
    NA   [     5,    0,    1,    1 ]
    NB   [     5,    0,    1,    1 ]

  @DF-UKS Final Energy:  -129.57606831597337

   => Energetics <=

    Nuclear Repulsion Energy =             26.4628299579937050
    One-Electron Energy =                -222.5790502460243943
    Two-Electron Energy =                  78.6040854155822046
    DFT Exchange-Correlation Energy =     -12.0639334435249008
    Empirical Dispersion Energy =           0.0000000000000000
    VV10 Nonlocal Energy =                  0.0000000000000000
    Total Energy =                       -129.5760683159733730

  UHF NO Occupations:
  HONO-2 :    1 B1 2.0000000
  HONO-1 :    4 A1 2.0000000
  HONO-0 :    5 A1 2.0000000
  LUNO+0 :    6 A1 0.0000000
  LUNO+1 :    7 A1 0.0000000
  LUNO+2 :    8 A1 0.0000000
  LUNO+3 :    9 A1 0.0000000

Computation Completed

Properties will be evaluated at   0.000000,   0.000000,   0.000000 [a0]

Properties computed using the B3LYP density matrix

 Multipole Moments:

 ------------------------------------------------------------------------------------
     Multipole            Electronic (a.u.)      Nuclear  (a.u.)        Total (a.u.)
 ------------------------------------------------------------------------------------

 L = 1.  Multiply by 2.5417464519 to convert [e a0] to [Debye]
 Dipole X            :          0.0000000            0.0000000            0.0000000
 Dipole Y            :          0.0000000            0.0000000            0.0000000
 Dipole Z            :          0.2133873           -0.0042460            0.2091413
 Magnitude           :                                                    0.2091413

 L = 2.  Multiply by 1.3450342976 to convert [e a0^2] to [Debye ang]
 Quadrupole XX       :         -5.9140913            0.0000000           -5.9140913
 Quadrupole XY       :          0.0000000            0.0000000            0.0000000
 Quadrupole XZ       :          0.0000000            0.0000000            0.0000000
 Quadrupole YY       :         -5.9140913            0.0000000           -5.9140913
 Quadrupole YZ       :          0.0000000            0.0000000            0.0000000
 Quadrupole ZZ       :        -21.9865522           16.7186144           -5.2679378
 Traceless XX        :          5.3574870           -5.5728715           -0.2153845
 Traceless YY        :          5.3574870           -5.5728715           -0.2153845
 Traceless ZZ        :        -10.7149739           11.1457429            0.4307690

 ------------------------------------------------------------------------------------
  ==> Computing MBIS Charges <==

  Electron Count from Grid (Expected Number): 14.00000 (14.00000)
  Difference:  0.00000

  MBIS Charges: (a.u.)
   Center  Symbol  Z      Pop.       Charge
      1       O    8    7.643817    0.356183
      2       N    7    6.356183    0.643817

  MBIS Dipoles: [e a0]
   Center  Symbol  Z        X           Y           Z
      1       O    8   -0.000000   -0.000000   -0.104004
      2       N    7    0.000000   -0.000000   -0.061453

  MBIS Quadrupoles: [e a0^2]
   Center  Symbol  Z      XX        XY        XZ        YY        YZ        ZZ
      1       O    8   -3.0256    0.0000   -0.0000   -3.0256    0.0000   -3.2206
      2       N    7   -2.8885    0.0000    0.0000   -2.8885    0.0000   -3.2814

  MBIS Octupoles: [e a0^3]
   Center  Symbol  Z      XXX       XXY       XXZ       XYY       XYZ       XZZ       YYY       YYZ       YZZ       ZZZ
      1       O    8    0.0000   -0.0000   -0.0806    0.0000    0.0000   -0.0000   -0.0000   -0.0806   -0.0000   -0.2382
      2       N    7   -0.0000    0.0000    0.0304   -0.0000    0.0000    0.0000   -0.0000    0.0304    0.0000    0.0129

  MBIS Radial Moments:
   Center  Symbol  Z      [a0^2]      [a0^3]      [a0^4]
      1       O    8    9.271678   15.916086   32.716690
      2       N    7    9.058488   17.160476   38.765433

  MBIS Valence Widths: [a0]
   Center  Symbol  Z     Width
      1       O    8    0.360334
      2       N    7    0.402977

*** tstop() called on Mac.lan at Sun Aug 10 18:41:58 2025
Module time:
	user time   =       4.36 seconds =       0.07 minutes
	system time =       2.02 seconds =       0.03 minutes
	total time  =          1 seconds =       0.02 minutes
Total time:
	user time   =      20.71 seconds =       0.35 minutes
	system time =       4.70 seconds =       0.08 minutes
	total time  =          2 seconds =       0.03 minutes

    Psi4 stopped on: Sunday, 10 August 2025 06:41PM
    Psi4 wall time for execution: 0:00:02.50

*** Psi4 exiting successfully. Buy a developer a beer!
