                               Psi4 1.9.1 release

  ==> Input File <==

--------------------------------------------------------------------------
molecule {
1 2
H           0.000000           0.000000           0.000000
H           0.000000           0.000000           0.995575
}

set {
basis              cc-pvtz
reference          uks
maxiter            500
DAMPING_PERCENTAGE 1
E_CONVERGENCE      1.0E-8
D_CONVERGENCE      1.0E-8
DIIS_MAX_VECS      400
MBIS_MAXITER       8000
guess              read
}

E, wfn = energy('b3lyp', restart_file='last_wfn', return_wfn=True)
properties('b3lyp','MBIS_CHARGES', wfn=wfn)
wfn.to_file('last_wfn')
--------------------------------------------------------------------------

    Molecular point group: d2h
  Charge       = 1
  Multiplicity = 2
  Basis Set: CC-PVTZ
    Blend: CC-PVTZ
  Basis Set: (CC-PVTZ AUX)
    Blend: CC-PVTZ-JKFIT
  @DF-UKS Final Energy:    -0.60789225353655
    Total Energy =                         -0.6078922535365454
 Dipole X            :          0.0000000            0.0000000            0.0000000
 Dipole Y            :          0.0000000            0.0000000            0.0000000
 Dipole Z            :          0.0000000            0.0000000            0.0000000
 Magnitude           :                                                    0.0000000
    Molecular point group: d2h

    Geometry (in Angstrom), charge = 1, multiplicity = 2:

       Center              X                  Y                   Z               Mass
    ------------   -----------------  -----------------  -----------------  -----------------
         H            0.000000000000     0.000000000000    -0.497787500000     1.007825032230
         H            0.000000000000     0.000000000000     0.497787500000     1.007825032230

  Charge       = 1
  Multiplicity = 2
  Basis Set: CC-PVTZ
    Blend: CC-PVTZ
  Basis Set: (CC-PVTZ AUX)
    Blend: CC-PVTZ-JKFIT

    Orbital Energies [Eh]
    ---------------------

    Alpha Occupied:

       1Ag    -0.941964

    Alpha Virtual:

       1B1u   -0.406489     2Ag    -0.098497     2B1u    0.043444
       1B2u    0.052653     1B3u    0.052653     3Ag     0.406865
       1B3g    0.479096     1B2g    0.479096     3B1u    0.920444
       4Ag     1.668196     4B1u    1.772087     2B2u    2.374263
       2B3u    2.374263     1B1g    2.410012     5Ag     2.410012
       6Ag     2.563985     1Au     3.042134     5B1u    3.042134
       3B2u    3.104715     3B3u    3.104715     2B2g    3.163439
       2B3g    3.163439     6B1u    3.326744     3B3g    4.094892
       3B2g    4.094892     7Ag     4.152387     7B1u    5.304092

    Beta Occupied:

    Beta Virtual:

       1Ag    -0.578510     1B1u   -0.231041     2Ag    -0.008358
       2B1u    0.166558     1B2u    0.195330     1B3u    0.195330
       3Ag     0.538874     1B3g    0.590214     1B2g    0.590214
       3B1u    1.026181     4Ag     1.959922     4B1u    2.057283
       5Ag     2.601685     1B1g    2.601686     2B2u    2.604934
       2B3u    2.604934     6Ag     2.848578     5B1u    3.227355
       1Au     3.227356     3B3u    3.340447     3B2u    3.340447
       2B2g    3.406811     2B3g    3.406811     6B1u    3.531615
       3B3g    4.301522     3B2g    4.301522     7Ag     4.380544
       7B1u    5.582429

    Final Occupation by Irrep:
             Ag   B1g   B2g   B3g    Au   B1u   B2u   B3u
    DOCC [     0,    0,    0,    0,    0,    0,    0,    0 ]
    SOCC [     1,    0,    0,    0,    0,    0,    0,    0 ]
    NA   [     1,    0,    0,    0,    0,    0,    0,    0 ]
    NB   [     0,    0,    0,    0,    0,    0,    0,    0 ]

  @DF-UKS Final Energy:    -0.60789225358321

   => Energetics <=

    Nuclear Repulsion Energy =              0.5315292275016950
    One-Electron Energy =                  -1.1322080650210917
    Two-Electron Energy =                   0.2726076451740329
    DFT Exchange-Correlation Energy =      -0.2798210612378412
    Empirical Dispersion Energy =           0.0000000000000000
    VV10 Nonlocal Energy =                  0.0000000000000000
    Total Energy =                         -0.6078922535832051

  UHF NO Occupations:
  HONO-0 :    1 Ag 1.0000000
  LUNO+0 :    2 Ag 0.0000000
  LUNO+1 :    3 Ag 0.0000000
  LUNO+2 :    4 Ag 0.0000000
  LUNO+3 :    3B3u 0.0000000

Computation Completed

Properties will be evaluated at   0.000000,   0.000000,   0.000000 [a0]

Properties computed using the B3LYP density matrix

 Multipole Moments:

 ------------------------------------------------------------------------------------
     Multipole            Electronic (a.u.)      Nuclear  (a.u.)        Total (a.u.)
 ------------------------------------------------------------------------------------

 L = 1.  Multiply by 2.5417464519 to convert [e a0] to [Debye]
 Dipole X            :          0.0000000            0.0000000            0.0000000
 Dipole Y            :          0.0000000            0.0000000            0.0000000
 Dipole Z            :          0.0000000            0.0000000            0.0000000
 Magnitude           :                                                    0.0000000

 L = 2.  Multiply by 1.3450342976 to convert [e a0^2] to [Debye ang]
 Quadrupole XX       :         -0.6068884            0.0000000           -0.6068884
 Quadrupole XY       :          0.0000000            0.0000000            0.0000000
 Quadrupole XZ       :          0.0000000            0.0000000            0.0000000
 Quadrupole YY       :         -0.6068884            0.0000000           -0.6068884
 Quadrupole YZ       :          0.0000000            0.0000000            0.0000000
 Quadrupole ZZ       :         -1.0649901            1.7697654            0.7047753
 Traceless XX        :          0.1527006           -0.5899218           -0.4372212
 Traceless YY        :          0.1527006           -0.5899218           -0.4372212
 Traceless ZZ        :         -0.3054011            1.1798436            0.8744425

 ------------------------------------------------------------------------------------
  ==> Computing MBIS Charges <==

  Electron Count from Grid (Expected Number):  1.00000 ( 1.00000)
  Difference: -0.00000

  MBIS Charges: (a.u.)
   Center  Symbol  Z      Pop.       Charge
      1       H    1    0.500000    0.500000
      2       H    1    0.500000    0.500000

  MBIS Dipoles: [e a0]
   Center  Symbol  Z        X           Y           Z
      1       H    1   -0.000000    0.000000   -0.100400
      2       H    1    0.000000    0.000000    0.100400

  MBIS Quadrupoles: [e a0^2]
   Center  Symbol  Z      XX        XY        XZ        YY        YZ        ZZ
      1       H    1   -0.3034   -0.0000    0.0000   -0.3034   -0.0000   -0.2789
      2       H    1   -0.3034   -0.0000   -0.0000   -0.3034    0.0000   -0.2789

  MBIS Octupoles: [e a0^3]
   Center  Symbol  Z      XXX       XXY       XXZ       XYY       XYZ       XZZ       YYY       YYZ       YZZ       ZZZ
      1       H    1   -0.0000    0.0000   -0.0644   -0.0000    0.0000   -0.0000    0.0000   -0.0644    0.0000   -0.1248
      2       H    1   -0.0000    0.0000    0.0644   -0.0000   -0.0000   -0.0000    0.0000    0.0644    0.0000    0.1248

  MBIS Radial Moments:
   Center  Symbol  Z      [a0^2]      [a0^3]      [a0^4]
      1       H    1    0.885831    1.636373    3.589980
      2       H    1    0.885831    1.636373    3.589980

  MBIS Valence Widths: [a0]
   Center  Symbol  Z     Width
      1       H    1    0.391038
      2       H    1    0.391038

*** tstop() called on Mac.lan at Sun Aug 10 18:11:14 2025
Module time:
	user time   =       0.59 seconds =       0.01 minutes
	system time =       1.25 seconds =       0.02 minutes
	total time  =          0 seconds =       0.00 minutes
Total time:
	user time   =       1.27 seconds =       0.02 minutes
	system time =       3.38 seconds =       0.06 minutes
	total time  =          1 seconds =       0.02 minutes

    Psi4 stopped on: Sunday, 10 August 2025 06:11PM
    Psi4 wall time for execution: 0:00:00.60

*** Psi4 exiting successfully. Buy a developer a beer!
