                               Psi4 1.9.1 release

  ==> Input File <==

--------------------------------------------------------------------------
molecule {
1 3
N           0.000000           0.000000           0.000000
C           0.000000           0.000000           0.852041
}

set {
basis              cc-pvtz
reference          uks
maxiter            500
DAMPING_PERCENTAGE 1
E_CONVERGENCE      1.0E-8
D_CONVERGENCE      1.0E-8
DIIS_MAX_VECS      400
MBIS_MAXITER       8000
guess              read
}

E, wfn = energy('b3lyp', restart_file='last_wfn', return_wfn=True)
properties('b3lyp','MBIS_CHARGES', wfn=wfn)
wfn.to_file('last_wfn')
--------------------------------------------------------------------------

    Molecular point group: c2v
  Charge       = 1
  Multiplicity = 3
  Basis Set: CC-PVTZ
    Blend: CC-PVTZ
  Basis Set: (CC-PVTZ AUX)
    Blend: CC-PVTZ-JKFIT
  @DF-UKS Final Energy:   -91.81478163348059
    Total Energy =                        -91.8147816334806066
 Dipole X            :          0.0000000            0.0000000            0.0000000
 Dipole Y            :          0.0000000            0.0000000            0.0000000
 Dipole Z            :          0.0915673            0.0011421            0.0927093
 Magnitude           :                                                    0.0927093
    Molecular point group: c2v

    Geometry (in Angstrom), charge = 1, multiplicity = 3:

       Center              X                  Y                   Z               Mass
    ------------   -----------------  -----------------  -----------------  -----------------
         N            0.000000000000     0.000000000000    -0.393203203523    14.003074004430
         C            0.000000000000     0.000000000000     0.458837796477    12.000000000000

  Charge       = 1
  Multiplicity = 3
  Basis Set: CC-PVTZ
    Blend: CC-PVTZ
  Basis Set: (CC-PVTZ AUX)
    Blend: CC-PVTZ-JKFIT

    Orbital Energies [Eh]
    ---------------------

    Alpha Occupied:

       1A1   -14.809993     2A1   -10.662687     3A1    -1.477746
       4A1    -0.937771     1B2    -0.917776     1B1    -0.917776
       5A1    -0.802147

    Alpha Virtual:

       2B1    -0.251059     2B2    -0.251059     6A1    -0.095101
       3B1    -0.016925     3B2    -0.016925     7A1     0.001896
       8A1     0.118739     4B1     0.229515     4B2     0.229515
       9A1     0.287573     1A2     0.287573    10A1     0.511219
       5B1     0.614669     5B2     0.614669    11A1     0.645719
      12A1     0.876758     2A2     0.876758    13A1     1.166510
       6B1     1.175947     6B2     1.175947     7B1     1.508034
       7B2     1.508034    14A1     1.796230    15A1     1.965111
       8B2     2.236265     8B1     2.236265    16A1     2.418043
       3A2     2.418043    17A1     2.479700     9B1     2.503600
       9B2     2.503600     4A2     2.595379    18A1     2.595379
      10B2     2.849359    10B1     2.849359    19A1     2.934046
      11B1     3.242475    11B2     3.242475    12B1     3.652841
      12B2     3.652841    20A1     4.055004     5A2     4.055005
      21A1     4.137992    13B2     4.555824    13B1     4.555824
      22A1     4.694673     6A2     4.694673    23A1     5.099800
      24A1     5.624489    14B1     5.911872    14B2     5.911872
      25A1     7.495737    26A1    16.867302

    Beta Occupied:

       1A1   -14.781461     2A1   -10.634573     3A1    -1.433857
       1B1    -0.884184     1B2    -0.884184

    Beta Virtual:

       4A1    -0.655448     5A1    -0.555883     2B1    -0.190823
       2B2    -0.190823     6A1    -0.069113     3B2    -0.005970
       3B1    -0.005970     7A1     0.042520     8A1     0.161994
       4B1     0.248065     4B2     0.248065     1A2     0.301938
       9A1     0.301939    10A1     0.567870     5B1     0.662859
       5B2     0.662859    11A1     0.715424     2A2     0.900797
      12A1     0.900797     6B1     1.216223     6B2     1.216223
      13A1     1.254392     7B2     1.542200     7B1     1.542200
      14A1     1.838174    15A1     2.099975     8B2     2.260200
       8B1     2.260200     3A2     2.440544    16A1     2.440544
      17A1     2.554341     9B2     2.611754     9B1     2.611754
       4A2     2.669095    18A1     2.669098    10B1     2.881182
      10B2     2.881182    19A1     3.059708    11B1     3.315679
      11B2     3.315679    12B1     3.677582    12B2     3.677582
       5A2     4.112296    20A1     4.112297    21A1     4.273821
      13B1     4.664731    13B2     4.664731     6A2     4.736427
      22A1     4.736431    23A1     5.195733    24A1     5.722917
      14B1     5.984750    14B2     5.984750    25A1     7.539080
      26A1    16.920149

    Final Occupation by Irrep:
             A1    A2    B1    B2
    DOCC [     3,    0,    1,    1 ]
    SOCC [     2,    0,    0,    0 ]
    NA   [     5,    0,    1,    1 ]
    NB   [     3,    0,    1,    1 ]

  @DF-UKS Final Energy:   -91.81478163423277

   => Energetics <=

    Nuclear Repulsion Energy =             26.0849452645353921
    One-Electron Energy =                -169.5138356390429806
    Two-Electron Energy =                  61.5436606750775184
    DFT Exchange-Correlation Energy =      -9.9295519348026886
    Empirical Dispersion Energy =           0.0000000000000000
    VV10 Nonlocal Energy =                  0.0000000000000000
    Total Energy =                        -91.8147816342327729

  UHF NO Occupations:
  HONO-2 :    1 B1 1.9996617
  HONO-1 :    4 A1 1.0000000
  HONO-0 :    5 A1 1.0000000
  LUNO+0 :    2 B1 0.0003383
  LUNO+1 :    2 B2 0.0003383
  LUNO+2 :    6 A1 0.0002005
  LUNO+3 :    7 A1 0.0000008

Computation Completed

Properties will be evaluated at   0.000000,   0.000000,   0.000000 [a0]

Properties computed using the B3LYP density matrix

 Multipole Moments:

 ------------------------------------------------------------------------------------
     Multipole            Electronic (a.u.)      Nuclear  (a.u.)        Total (a.u.)
 ------------------------------------------------------------------------------------

 L = 1.  Multiply by 2.5417464519 to convert [e a0] to [Debye]
 Dipole X            :          0.0000000            0.0000000            0.0000000
 Dipole Y            :          0.0000000            0.0000000            0.0000000
 Dipole Z            :          0.0915673            0.0011421            0.0927093
 Magnitude           :                                                    0.0927093

 L = 2.  Multiply by 1.3450342976 to convert [e a0^2] to [Debye ang]
 Quadrupole XX       :         -5.6189482            0.0000000           -5.6189482
 Quadrupole XY       :          0.0000000            0.0000000            0.0000000
 Quadrupole XZ       :          0.0000000            0.0000000            0.0000000
 Quadrupole YY       :         -5.6189482            0.0000000           -5.6189482
 Quadrupole YZ       :          0.0000000            0.0000000            0.0000000
 Quadrupole ZZ       :        -12.3355075            8.3757685           -3.9597391
 Traceless XX        :          2.2388531           -2.7919228           -0.5530697
 Traceless YY        :          2.2388531           -2.7919228           -0.5530697
 Traceless ZZ        :         -4.4777063            5.5838457            1.1061394

 ------------------------------------------------------------------------------------
  ==> Computing MBIS Charges <==

  Electron Count from Grid (Expected Number): 12.00000 (12.00000)
  Difference:  0.00000

  MBIS Charges: (a.u.)
   Center  Symbol  Z      Pop.       Charge
      1       N    7    6.658617    0.341383
      2       C    6    5.341384    0.658616

  MBIS Dipoles: [e a0]
   Center  Symbol  Z        X           Y           Z
      1       N    7    0.000000   -0.000000   -0.454020
      2       C    6   -0.000000    0.000000    0.229322

  MBIS Quadrupoles: [e a0^2]
   Center  Symbol  Z      XX        XY        XZ        YY        YZ        ZZ
      1       N    7   -2.9695   -0.0000    0.0000   -2.9695    0.0000   -2.8896
      2       C    6   -2.6495    0.0000    0.0000   -2.6495    0.0000   -2.8262

  MBIS Octupoles: [e a0^3]
   Center  Symbol  Z      XXX       XXY       XXZ       XYY       XYZ       XZZ       YYY       YYZ       YZZ       ZZZ
      1       N    7   -0.0000   -0.0000   -0.2628   -0.0000    0.0000   -0.0000   -0.0000   -0.2628   -0.0000   -0.4802
      2       C    6   -0.0000   -0.0000    0.1502   -0.0000   -0.0000    0.0000    0.0000    0.1502    0.0000   -0.0664

  MBIS Radial Moments:
   Center  Symbol  Z      [a0^2]      [a0^3]      [a0^4]
      1       N    7    8.828479   16.009674   34.726475
      2       C    6    8.125201   16.404857   39.636113

  MBIS Valence Widths: [a0]
   Center  Symbol  Z     Width
      1       N    7    0.383289
      2       C    6    0.428017

*** tstop() called on Mac.lan at Sun Aug 10 18:33:20 2025
Module time:
	user time   =       3.76 seconds =       0.06 minutes
	system time =       2.78 seconds =       0.05 minutes
	total time  =          0 seconds =       0.00 minutes
Total time:
	user time   =      23.28 seconds =       0.39 minutes
	system time =       4.28 seconds =       0.07 minutes
	total time  =          3 seconds =       0.05 minutes

    Psi4 stopped on: Sunday, 10 August 2025 06:33PM
    Psi4 wall time for execution: 0:00:02.82

*** Psi4 exiting successfully. Buy a developer a beer!
