                               Psi4 1.9.1 release

  ==> Input File <==

--------------------------------------------------------------------------
molecule {
1 1
O           0.000000           0.000000           0.000000
N           0.000000           0.000000           1.294603
}

set {
basis              cc-pvtz
reference          uks
maxiter            500
DAMPING_PERCENTAGE 1
E_CONVERGENCE      1.0E-8
D_CONVERGENCE      1.0E-8
DIIS_MAX_VECS      400
MBIS_MAXITER       8000
guess              read
}

E, wfn = energy('b3lyp', restart_file='last_wfn', return_wfn=True)
properties('b3lyp','MBIS_CHARGES', wfn=wfn)
wfn.to_file('last_wfn')
--------------------------------------------------------------------------

    Molecular point group: c2v
  Charge       = 1
  Multiplicity = 1
  Basis Set: CC-PVTZ
    Blend: CC-PVTZ
  Basis Set: (CC-PVTZ AUX)
    Blend: CC-PVTZ-JKFIT
  @DF-UKS Final Energy:  -129.48740333868187
    Total Energy =                       -129.4874033386818724
 Dipole X            :          0.0000000            0.0000000            0.0000000
 Dipole Y            :          0.0000000            0.0000000            0.0000000
 Dipole Z            :          0.3654811           -0.0049087            0.3605724
 Magnitude           :                                                    0.3605724
    Molecular point group: c2v

    Geometry (in Angstrom), charge = 1, multiplicity = 1:

       Center              X                  Y                   Z               Mass
    ------------   -----------------  -----------------  -----------------  -----------------
         O            0.000000000000     0.000000000000    -0.604321237753    15.994914619570
         N            0.000000000000     0.000000000000     0.690281762247    14.003074004430

  Charge       = 1
  Multiplicity = 1
  Basis Set: CC-PVTZ
    Blend: CC-PVTZ
  Basis Set: (CC-PVTZ AUX)
    Blend: CC-PVTZ-JKFIT

    Orbital Energies [Eh]
    ---------------------

    Alpha Occupied:

       1A1   -19.764732     2A1   -15.006541     3A1    -1.590189
       4A1    -1.129559     5A1    -0.897032     1B1    -0.884120
       1B2    -0.884120

    Alpha Virtual:

       2B2    -0.575640     2B1    -0.575640     6A1    -0.232765
       7A1     0.070651     3B1     0.104202     3B2     0.104202
       8A1     0.145815     9A1     0.232957     4B1     0.282487
       4B2     0.282487     1A2     0.564319    10A1     0.564319
       5B1     0.667640     5B2     0.667640    11A1     0.822224
      12A1     1.107006     2A2     1.107006    13A1     1.176811
       6B2     1.541386     6B1     1.541386    14A1     1.723092
       7B1     2.366412     7B2     2.366412    15A1     2.604998
       8B1     3.037388     8B2     3.037388     3A2     3.326743
      16A1     3.326744     9B1     3.377291     9B2     3.377291
      17A1     3.506731    10B1     3.574399    10B2     3.574399
      18A1     3.796410    19A1     3.904619     4A2     3.904620
      20A1     4.118782    11B1     4.202947    11B2     4.202947
      12B2     4.628035    12B1     4.628035    21A1     4.890458
       5A2     4.890459    22A1     5.243661    13B2     5.579338
      13B1     5.579338    23A1     5.705172     6A2     5.705185
      24A1     6.088584    14B2     6.247640    14B1     6.247640
      25A1     6.876170    26A1     9.901967

    Beta Occupied:

       1A1   -19.764732     2A1   -15.006541     3A1    -1.590189
       4A1    -1.129559     5A1    -0.897032     1B1    -0.884120
       1B2    -0.884120

    Beta Virtual:

       2B2    -0.575640     2B1    -0.575640     6A1    -0.232765
       7A1     0.070651     3B1     0.104202     3B2     0.104202
       8A1     0.145815     9A1     0.232957     4B1     0.282487
       4B2     0.282487     1A2     0.564319    10A1     0.564319
       5B1     0.667640     5B2     0.667640    11A1     0.822224
      12A1     1.107006     2A2     1.107006    13A1     1.176811
       6B2     1.541386     6B1     1.541386    14A1     1.723092
       7B1     2.366412     7B2     2.366412    15A1     2.604998
       8B1     3.037388     8B2     3.037388     3A2     3.326743
      16A1     3.326744     9B1     3.377291     9B2     3.377291
      17A1     3.506731    10B1     3.574399    10B2     3.574399
      18A1     3.796410    19A1     3.904619     4A2     3.904620
      20A1     4.118782    11B1     4.202947    11B2     4.202947
      12B2     4.628035    12B1     4.628035    21A1     4.890458
       5A2     4.890459    22A1     5.243661    13B2     5.579338
      13B1     5.579338    23A1     5.705172     6A2     5.705185
      24A1     6.088584    14B2     6.247640    14B1     6.247640
      25A1     6.876170    26A1     9.901967

    Final Occupation by Irrep:
             A1    A2    B1    B2
    DOCC [     5,    0,    1,    1 ]
    SOCC [     0,    0,    0,    0 ]
    NA   [     5,    0,    1,    1 ]
    NB   [     5,    0,    1,    1 ]

  @DF-UKS Final Energy:  -129.48740333467677

   => Energetics <=

    Nuclear Repulsion Energy =             22.8903561922226366
    One-Electron Energy =                -215.8547535919921643
    Two-Electron Energy =                  75.4121230400551781
    DFT Exchange-Correlation Energy =     -11.9351289749624137
    Empirical Dispersion Energy =           0.0000000000000000
    VV10 Nonlocal Energy =                  0.0000000000000000
    Total Energy =                       -129.4874033346767703

  UHF NO Occupations:
  HONO-2 :    1 B2 2.0000000
  HONO-1 :    1 B1 2.0000000
  HONO-0 :    5 A1 2.0000000
  LUNO+0 :    6 A1 0.0000000
  LUNO+1 :    7 A1 0.0000000
  LUNO+2 :    8 A1 0.0000000
  LUNO+3 :    9 A1 0.0000000

Computation Completed

Properties will be evaluated at   0.000000,   0.000000,   0.000000 [a0]

Properties computed using the B3LYP density matrix

 Multipole Moments:

 ------------------------------------------------------------------------------------
     Multipole            Electronic (a.u.)      Nuclear  (a.u.)        Total (a.u.)
 ------------------------------------------------------------------------------------

 L = 1.  Multiply by 2.5417464519 to convert [e a0] to [Debye]
 Dipole X            :          0.0000000            0.0000000            0.0000000
 Dipole Y            :          0.0000000            0.0000000            0.0000000
 Dipole Z            :          0.3654811           -0.0049087            0.3605725
 Magnitude           :                                                    0.3605725

 L = 2.  Multiply by 1.3450342976 to convert [e a0^2] to [Debye ang]
 Quadrupole XX       :         -6.1614238            0.0000000           -6.1614238
 Quadrupole XY       :          0.0000000            0.0000000            0.0000000
 Quadrupole XZ       :          0.0000000            0.0000000            0.0000000
 Quadrupole YY       :         -6.1614238            0.0000000           -6.1614238
 Quadrupole YZ       :          0.0000000            0.0000000            0.0000000
 Quadrupole ZZ       :        -27.0907970           22.3443514           -4.7464457
 Traceless XX        :          6.9764577           -7.4481171           -0.4716594
 Traceless YY        :          6.9764577           -7.4481171           -0.4716594
 Traceless ZZ        :        -13.9529154           14.8962342            0.9433188

 ------------------------------------------------------------------------------------
  ==> Computing MBIS Charges <==

  Electron Count from Grid (Expected Number): 14.00000 (14.00000)
  Difference:  0.00000

  MBIS Charges: (a.u.)
   Center  Symbol  Z      Pop.       Charge
      1       O    8    7.681318    0.318682
      2       N    7    6.318682    0.681318

  MBIS Dipoles: [e a0]
   Center  Symbol  Z        X           Y           Z
      1       O    8   -0.000000   -0.000000   -0.151230
      2       N    7   -0.000000   -0.000000   -0.013003

  MBIS Quadrupoles: [e a0^2]
   Center  Symbol  Z      XX        XY        XZ        YY        YZ        ZZ
      1       O    8   -3.1970    0.0000    0.0000   -3.1970   -0.0000   -3.3333
      2       N    7   -2.9644    0.0000    0.0000   -2.9644    0.0000   -3.2996

  MBIS Octupoles: [e a0^3]
   Center  Symbol  Z      XXX       XXY       XXZ       XYY       XYZ       XZZ       YYY       YYZ       YZZ       ZZZ
      1       O    8   -0.0000   -0.0000   -0.1420   -0.0000    0.0000    0.0000   -0.0000   -0.1420   -0.0000   -0.4196
      2       N    7   -0.0000    0.0000    0.1116   -0.0000   -0.0000    0.0000   -0.0000    0.1116    0.0000    0.2241

  MBIS Radial Moments:
   Center  Symbol  Z      [a0^2]      [a0^3]      [a0^4]
      1       O    8    9.727367   17.118156   36.062852
      2       N    7    9.228340   17.739182   40.666012

  MBIS Valence Widths: [a0]
   Center  Symbol  Z     Width
      1       O    8    0.368242
      2       N    7    0.408998

*** tstop() called on Mac.lan at Sun Aug 10 18:42:23 2025
Module time:
	user time   =       4.24 seconds =       0.07 minutes
	system time =       1.54 seconds =       0.03 minutes
	total time  =          0 seconds =       0.00 minutes
Total time:
	user time   =      23.22 seconds =       0.39 minutes
	system time =       4.09 seconds =       0.07 minutes
	total time  =          3 seconds =       0.05 minutes

    Psi4 stopped on: Sunday, 10 August 2025 06:42PM
    Psi4 wall time for execution: 0:00:02.77

*** Psi4 exiting successfully. Buy a developer a beer!
