                               Psi4 1.9.1 release

  ==> Input File <==

--------------------------------------------------------------------------
molecule {
1 2
O           0.000000           0.000000           0.000000
C           0.000000           0.000000           1.563048
}

set {
basis              cc-pvtz
reference          uks
maxiter            500
DAMPING_PERCENTAGE 1
E_CONVERGENCE      1.0E-8
D_CONVERGENCE      1.0E-8
DIIS_MAX_VECS      400
MBIS_MAXITER       8000
guess              read
}

E, wfn = energy('b3lyp', restart_file='last_wfn', return_wfn=True)
properties('b3lyp','MBIS_CHARGES', wfn=wfn)
wfn.to_file('last_wfn')
--------------------------------------------------------------------------

    Molecular point group: c2v
  Charge       = 1
  Multiplicity = 2
  Basis Set: CC-PVTZ
    Blend: CC-PVTZ
  Basis Set: (CC-PVTZ AUX)
    Blend: CC-PVTZ-JKFIT
  @DF-UKS Final Energy:  -112.65902880797010
    Total Energy =                       -112.6590288079701025
 Dipole X            :          0.0000000            0.0000000            0.0000000
 Dipole Y            :          0.0000000            0.0000000            0.0000000
 Dipole Z            :          1.1987202           -0.0032193            1.1955008
 Magnitude           :                                                    1.1955008
    Molecular point group: c2v

    Geometry (in Angstrom), charge = 1, multiplicity = 2:

       Center              X                  Y                   Z               Mass
    ------------   -----------------  -----------------  -----------------  -----------------
         O            0.000000000000     0.000000000000    -0.669999400066    15.994914619570
         C            0.000000000000     0.000000000000     0.893048599934    12.000000000000

  Charge       = 1
  Multiplicity = 2
  Basis Set: CC-PVTZ
    Blend: CC-PVTZ
  Basis Set: (CC-PVTZ AUX)
    Blend: CC-PVTZ-JKFIT

    Orbital Energies [Eh]
    ---------------------

    Alpha Occupied:

       1A1   -19.669289     2A1   -10.861407     3A1    -1.395265
       4A1    -1.000779     5A1    -0.828045     1B1    -0.761596
       1B2    -0.761596

    Alpha Virtual:

       2B2    -0.527509     2B1    -0.527509     6A1    -0.348814
       7A1    -0.012558     3B2     0.012582     3B1     0.012582
       8A1     0.015006     9A1     0.245202     4B1     0.284150
       4B2     0.284150     1A2     0.314076    10A1     0.314076
       5B1     0.415400     5B2     0.415400    11A1     0.624084
      12A1     0.879768    13A1     1.111734     2A2     1.111734
       6B1     1.256436     6B2     1.256436    14A1     1.433933
       7B2     1.574923     7B1     1.574923    15A1     1.871304
       8B1     2.252102     8B2     2.252102     3A2     2.266775
      16A1     2.266775     9B1     2.397703     9B2     2.397703
      17A1     2.415345     4A2     2.485880    18A1     2.485881
      10B1     2.657939    10B2     2.657939    19A1     2.733321
      20A1     3.273956    11B2     3.287066    11B1     3.287066
      21A1     4.383877    12B2     4.714109    12B1     4.714109
      22A1     4.744300     5A2     4.744302    13B1     4.983223
      13B2     4.983223    23A1     5.367988     6A2     5.764490
      24A1     5.764545    14B2     6.057147    14B1     6.057147
      25A1     6.658126    26A1     7.858418

    Beta Occupied:

       1A1   -19.647731     2A1   -10.855711     3A1    -1.340966
       4A1    -0.947989     1B1    -0.731704     1B2    -0.731704

    Beta Virtual:

       5A1    -0.651396     2B1    -0.520626     2B2    -0.520626
       6A1    -0.289070     7A1    -0.000886     3B2     0.010037
       3B1     0.010037     8A1     0.037642     9A1     0.269809
       4B1     0.300911     4B2     0.300911    10A1     0.307576
       1A2     0.307576     5B1     0.433056     5B2     0.433056
      11A1     0.656013    12A1     0.907314    13A1     1.128206
       2A2     1.128206     6B1     1.287410     6B2     1.287410
      14A1     1.476379     7B2     1.573347     7B1     1.573347
      15A1     1.907449     8B1     2.240506     8B2     2.240506
       3A2     2.274491    16A1     2.274492     9B1     2.410985
       9B2     2.410985    17A1     2.457163    18A1     2.477037
       4A2     2.477037    10B1     2.708239    10B2     2.708239
      19A1     2.797715    20A1     3.313639    11B2     3.314895
      11B1     3.314895    21A1     4.423897    12B2     4.733571
      12B1     4.733571    22A1     4.781090     5A2     4.781091
      13B1     5.032422    13B2     5.032422    23A1     5.436132
       6A2     5.798053    24A1     5.798108    14B2     6.125980
      14B1     6.125980    25A1     6.732866    26A1     7.888178

    Final Occupation by Irrep:
             A1    A2    B1    B2
    DOCC [     4,    0,    1,    1 ]
    SOCC [     1,    0,    0,    0 ]
    NA   [     5,    0,    1,    1 ]
    NB   [     4,    0,    1,    1 ]

  @DF-UKS Final Energy:  -112.65902880753123

   => Energetics <=

    Nuclear Repulsion Energy =             16.2506244927603021
    One-Electron Energy =                -180.5739865255227414
    Two-Electron Energy =                  62.3683904899627777
    DFT Exchange-Correlation Energy =     -10.7040572647315635
    Empirical Dispersion Energy =           0.0000000000000000
    VV10 Nonlocal Energy =                  0.0000000000000000
    Total Energy =                       -112.6590288075312287

  UHF NO Occupations:
  HONO-2 :    1 B1 1.9887845
  HONO-1 :    1 B2 1.9887845
  HONO-0 :    5 A1 1.0000000
  LUNO+0 :    2 B2 0.0112155
  LUNO+1 :    2 B1 0.0112155
  LUNO+2 :    6 A1 0.0082399
  LUNO+3 :    7 A1 0.0001792

Computation Completed

Properties will be evaluated at   0.000000,   0.000000,   0.000000 [a0]

Properties computed using the B3LYP density matrix

 Multipole Moments:

 ------------------------------------------------------------------------------------
     Multipole            Electronic (a.u.)      Nuclear  (a.u.)        Total (a.u.)
 ------------------------------------------------------------------------------------

 L = 1.  Multiply by 2.5417464519 to convert [e a0] to [Debye]
 Dipole X            :          0.0000000            0.0000000            0.0000000
 Dipole Y            :          0.0000000            0.0000000            0.0000000
 Dipole Z            :          1.1987199           -0.0032193            1.1955006
 Magnitude           :                                                    1.1955006

 L = 2.  Multiply by 1.3450342976 to convert [e a0^2] to [Debye ang]
 Quadrupole XX       :         -6.6200053            0.0000000           -6.6200053
 Quadrupole XY       :          0.0000000            0.0000000            0.0000000
 Quadrupole XZ       :          0.0000000            0.0000000            0.0000000
 Quadrupole YY       :         -6.6200053            0.0000000           -6.6200053
 Quadrupole YZ       :          0.0000000            0.0000000            0.0000000
 Quadrupole ZZ       :        -32.3671640           29.9126974           -2.4544667
 Traceless XX        :          8.5823862           -9.9708991           -1.3885129
 Traceless YY        :          8.5823862           -9.9708991           -1.3885129
 Traceless ZZ        :        -17.1647725           19.9417982            2.7770258

 ------------------------------------------------------------------------------------
  ==> Computing MBIS Charges <==

  Electron Count from Grid (Expected Number): 13.00000 (13.00000)
  Difference: -0.00000

  MBIS Charges: (a.u.)
   Center  Symbol  Z      Pop.       Charge
      1       O    8    7.905152    0.094848
      2       C    6    5.094847    0.905153

  MBIS Dipoles: [e a0]
   Center  Symbol  Z        X           Y           Z
      1       O    8    0.000000   -0.000000   -0.353771
      2       C    6   -0.000000    0.000000    0.141807

  MBIS Quadrupoles: [e a0^2]
   Center  Symbol  Z      XX        XY        XZ        YY        YZ        ZZ
      1       O    8   -3.6955   -0.0000   -0.0000   -3.6955    0.0000   -3.4787
      2       C    6   -2.9245    0.0000    0.0000   -2.9245    0.0000   -3.0802

  MBIS Octupoles: [e a0^3]
   Center  Symbol  Z      XXX       XXY       XXZ       XYY       XYZ       XZZ       YYY       YYZ       YZZ       ZZZ
      1       O    8    0.0000   -0.0000   -0.3327   -0.0000    0.0000   -0.0000   -0.0000   -0.3327   -0.0000   -1.0394
      2       C    6   -0.0000   -0.0000    0.3434    0.0000    0.0000    0.0000    0.0000    0.3434    0.0000    0.6774

  MBIS Radial Moments:
   Center  Symbol  Z      [a0^2]      [a0^3]      [a0^4]
      1       O    8   10.869749   20.048874   44.208861
      2       C    6    8.929158   19.480485   50.570333

  MBIS Valence Widths: [a0]
   Center  Symbol  Z     Width
      1       O    8    0.382147
      2       C    6    0.471067

*** tstop() called on Mac.lan at Sun Aug 10 18:38:55 2025
Module time:
	user time   =       7.17 seconds =       0.12 minutes
	system time =       1.68 seconds =       0.03 minutes
	total time  =          1 seconds =       0.02 minutes
Total time:
	user time   =      65.54 seconds =       1.09 minutes
	system time =       5.33 seconds =       0.09 minutes
	total time  =          7 seconds =       0.12 minutes

    Psi4 stopped on: Sunday, 10 August 2025 06:38PM
    Psi4 wall time for execution: 0:00:07.11

*** Psi4 exiting successfully. Buy a developer a beer!
