                               Psi4 1.9.1 release

  ==> Input File <==

--------------------------------------------------------------------------
molecule {
1 2
O           0.000000           0.000000           0.000000
O           0.000000           0.000000           1.232749
}

set {
basis              cc-pvtz
reference          uks
maxiter            500
DAMPING_PERCENTAGE 1
E_CONVERGENCE      1.0E-8
D_CONVERGENCE      1.0E-8
DIIS_MAX_VECS      400
MBIS_MAXITER       8000
guess              read
}

E, wfn = energy('b3lyp', restart_file='last_wfn', return_wfn=True)
properties('b3lyp','MBIS_CHARGES', wfn=wfn)
wfn.to_file('last_wfn')
--------------------------------------------------------------------------

    Molecular point group: d2h
  Charge       = 1
  Multiplicity = 2
  Basis Set: CC-PVTZ
    Blend: CC-PVTZ
  Basis Set: (CC-PVTZ AUX)
    Blend: CC-PVTZ-JKFIT
  @DF-UKS Final Energy:  -149.89596849979520
    Total Energy =                       -149.8959684997952024
 Dipole X            :          0.0000000            0.0000000            0.0000000
 Dipole Y            :          0.0000000            0.0000000            0.0000000
 Dipole Z            :          0.0000000            0.0000000            0.0000000
 Magnitude           :                                                    0.0000000
    Molecular point group: d2h

    Geometry (in Angstrom), charge = 1, multiplicity = 2:

       Center              X                  Y                   Z               Mass
    ------------   -----------------  -----------------  -----------------  -----------------
         O            0.000000000000     0.000000000000    -0.616374500000    15.994914619570
         O            0.000000000000     0.000000000000     0.616374500000    15.994914619570

  Charge       = 1
  Multiplicity = 2
  Basis Set: CC-PVTZ
    Blend: CC-PVTZ
  Basis Set: (CC-PVTZ AUX)
    Blend: CC-PVTZ-JKFIT

    Orbital Energies [Eh]
    ---------------------

    Alpha Occupied:

       1Ag   -19.824090     1B1u  -19.823839     2Ag    -1.753851
       2B1u   -1.284998     1B3u   -1.009344     3Ag    -0.996312
       1B2u   -0.968538     1B2g   -0.773523

    Alpha Virtual:

       1B3g   -0.648525     3B1u   -0.281900     2B3u    0.152567
       4B1u    0.152733     2B2u    0.156331     4Ag     0.226866
       5Ag     0.275645     2B2g    0.284755     2B3g    0.292018
       1B1g    0.802265     6Ag     0.803541     5B1u    0.843220
       3B2u    0.851693     3B3u    0.853703     1Au     1.190651
       6B1u    1.192275     7Ag     1.643362     3B2g    1.741107
       7B1u    1.742020     3B3g    1.742605     4B3u    2.926973
       4B2u    2.944346     8Ag     3.083421     4B2g    3.200208
       4B3g    3.214778     2B1g    4.127178     9Ag     4.128499
       5B2u    4.168401     5B3u    4.173748     8B1u    4.229561
      10Ag     4.363987     6B3u    4.454732     6B2u    4.455018
       5B2g    4.669291     5B3g    4.669587     2Au     5.155928
       9B1u    5.157764    10B1u    5.420213     3B1g    5.525729
      11Ag     5.529842     3Au     5.745927     6B2g    5.748504
      11B1u    5.749784     6B3g    5.757880     7B3u    5.859611
       7B2u    5.867212    12B1u    6.076226    12Ag     6.388753
       7B3g    6.651268     7B2g    6.653869    13Ag     7.101094
      13B1u   11.096508

    Beta Occupied:

       1Ag   -19.807640     1B1u  -19.807316     2Ag    -1.723976
       2B1u   -1.237987     3Ag    -0.976044     1B2u   -0.954619
       1B3u   -0.910282

    Beta Virtual:

       1B3g   -0.630834     1B2g   -0.582129     3B1u   -0.258818
       4B1u    0.158615     2B2u    0.160719     2B3u    0.181191
       4Ag     0.229948     5Ag     0.287385     2B3g    0.296780
       2B2g    0.315256     1B1g    0.824618     6Ag     0.824702
       3B2u    0.853515     5B1u    0.858867     3B3u    0.880689
       1Au     1.222375     6B1u    1.222475     7Ag     1.659876
       3B3g    1.746593     7B1u    1.751542     3B2g    1.772899
       4B2u    2.955372     4B3u    2.993730     8Ag     3.093974
       4B3g    3.226988     4B2g    3.268103     9Ag     4.148297
       2B1g    4.149059     5B2u    4.172192     5B3u    4.203259
       8B1u    4.247001    10Ag     4.381951     6B2u    4.492364
       6B3u    4.492418     5B3g    4.708387     5B2g    4.708406
       2Au     5.186804     9B1u    5.186914    10B1u    5.441360
      11Ag     5.585703     3B1g    5.585771     6B3g    5.765188
       3Au     5.801334    11B1u    5.802203     6B2g    5.803402
       7B2u    5.873824     7B3u    5.913023    12B1u    6.092513
      12Ag     6.407128     7B3g    6.654896     7B2g    6.687294
      13Ag     7.126626    13B1u   11.119010

    Final Occupation by Irrep:
             Ag   B1g   B2g   B3g    Au   B1u   B2u   B3u
    DOCC [     3,    0,    0,    0,    0,    2,    1,    1 ]
    SOCC [     0,    0,    1,    0,    0,    0,    0,    0 ]
    NA   [     3,    0,    1,    0,    0,    2,    1,    1 ]
    NB   [     3,    0,    0,    0,    0,    2,    1,    1 ]

  @DF-UKS Final Energy:  -149.89596849942390

   => Energetics <=

    Nuclear Repulsion Energy =             27.4730228804728327
    One-Electron Energy =                -253.2961172623976154
    Two-Electron Energy =                  89.2684390511497554
    DFT Exchange-Correlation Energy =     -13.3413131686488686
    Empirical Dispersion Energy =           0.0000000000000000
    VV10 Nonlocal Energy =                  0.0000000000000000
    Total Energy =                       -149.8959684994239012

  UHF NO Occupations:
  HONO-2 :    2B1u 1.9997145
  HONO-1 :    1B3u 1.9989528
  HONO-0 :    1B2g 1.0000000
  LUNO+0 :    2B3u 0.0010472
  LUNO+1 :    3B1u 0.0002855
  LUNO+2 :    4 Ag 0.0001449
  LUNO+3 :    2B2u 0.0000349

Computation Completed

Properties will be evaluated at   0.000000,   0.000000,   0.000000 [a0]

Properties computed using the B3LYP density matrix

 Multipole Moments:

 ------------------------------------------------------------------------------------
     Multipole            Electronic (a.u.)      Nuclear  (a.u.)        Total (a.u.)
 ------------------------------------------------------------------------------------

 L = 1.  Multiply by 2.5417464519 to convert [e a0] to [Debye]
 Dipole X            :          0.0000000            0.0000000            0.0000000
 Dipole Y            :          0.0000000            0.0000000            0.0000000
 Dipole Z            :          0.0000000            0.0000000            0.0000000
 Magnitude           :                                                    0.0000000

 L = 2.  Multiply by 1.3450342976 to convert [e a0^2] to [Debye ang]
 Quadrupole XX       :         -6.3051880            0.0000000           -6.3051880
 Quadrupole XY       :          0.0000000            0.0000000            0.0000000
 Quadrupole XZ       :          0.0000000            0.0000000            0.0000000
 Quadrupole YY       :         -5.7619867            0.0000000           -5.7619867
 Quadrupole YZ       :          0.0000000            0.0000000            0.0000000
 Quadrupole ZZ       :        -26.3405897           21.7073617           -4.6332280
 Traceless XX        :          6.4974002           -7.2357872           -0.7383871
 Traceless YY        :          7.0406014           -7.2357872           -0.1951858
 Traceless ZZ        :        -13.5380016           14.4715745            0.9335729

 ------------------------------------------------------------------------------------
  ==> Computing MBIS Charges <==

  Electron Count from Grid (Expected Number): 15.00000 (15.00000)
  Difference:  0.00000

  MBIS Charges: (a.u.)
   Center  Symbol  Z      Pop.       Charge
      1       O    8    7.500000    0.500000
      2       O    8    7.500000    0.500000

  MBIS Dipoles: [e a0]
   Center  Symbol  Z        X           Y           Z
      1       O    8   -0.000000   -0.000000   -0.039650
      2       O    8    0.000000   -0.000000    0.039650

  MBIS Quadrupoles: [e a0^2]
   Center  Symbol  Z      XX        XY        XZ        YY        YZ        ZZ
      1       O    8   -3.1526   -0.0000    0.0000   -2.8810   -0.0000   -3.0873
      2       O    8   -3.1526   -0.0000   -0.0000   -2.8810    0.0000   -3.0873

  MBIS Octupoles: [e a0^3]
   Center  Symbol  Z      XXX       XXY       XXZ       XYY       XYZ       XZZ       YYY       YYZ       YZZ       ZZZ
      1       O    8   -0.0000   -0.0000   -0.0238    0.0000   -0.0000   -0.0000   -0.0000   -0.0893   -0.0000   -0.2945
      2       O    8   -0.0000   -0.0000    0.0238    0.0000    0.0000   -0.0000   -0.0000    0.0893   -0.0000    0.2945

  MBIS Radial Moments:
   Center  Symbol  Z      [a0^2]      [a0^3]      [a0^4]
      1       O    8    9.120924   15.796102   32.825516
      2       O    8    9.120924   15.796102   32.825516

  MBIS Valence Widths: [a0]
   Center  Symbol  Z     Width
      1       O    8    0.361612
      2       O    8    0.361612

*** tstop() called on Mac.lan at Sun Aug 10 18:13:35 2025
Module time:
	user time   =       4.06 seconds =       0.07 minutes
	system time =       1.81 seconds =       0.03 minutes
	total time  =          0 seconds =       0.00 minutes
Total time:
	user time   =      14.30 seconds =       0.24 minutes
	system time =       4.08 seconds =       0.07 minutes
	total time  =          2 seconds =       0.03 minutes

    Psi4 stopped on: Sunday, 10 August 2025 06:13PM
    Psi4 wall time for execution: 0:00:01.79

*** Psi4 exiting successfully. Buy a developer a beer!
