                               Psi4 1.9.1 release

  ==> Input File <==

--------------------------------------------------------------------------
molecule {
1 2
O           0.000000           0.000000           0.000000
O           0.000000           0.000000           0.927949
}

set {
basis              cc-pvtz
reference          uks
maxiter            500
DAMPING_PERCENTAGE 1
E_CONVERGENCE      1.0E-8
D_CONVERGENCE      1.0E-8
DIIS_MAX_VECS      400
MBIS_MAXITER       8000
guess              read
}

E, wfn = energy('b3lyp', restart_file='last_wfn', return_wfn=True)
properties('b3lyp','MBIS_CHARGES', wfn=wfn)
wfn.to_file('last_wfn')
--------------------------------------------------------------------------

    Molecular point group: d2h
  Charge       = 1
  Multiplicity = 2
  Basis Set: CC-PVTZ
    Blend: CC-PVTZ
  Basis Set: (CC-PVTZ AUX)
    Blend: CC-PVTZ-JKFIT
  @DF-UKS Final Energy:  -149.80348326465469
    Total Energy =                       -149.8034832646546590
 Dipole X            :          0.0000000            0.0000000            0.0000000
 Dipole Y            :          0.0000000            0.0000000            0.0000000
 Dipole Z            :          0.0000000            0.0000000            0.0000000
 Magnitude           :                                                    0.0000000
    Molecular point group: d2h

    Geometry (in Angstrom), charge = 1, multiplicity = 2:

       Center              X                  Y                   Z               Mass
    ------------   -----------------  -----------------  -----------------  -----------------
         O            0.000000000000     0.000000000000    -0.463974500000    15.994914619570
         O            0.000000000000     0.000000000000     0.463974500000    15.994914619570

  Charge       = 1
  Multiplicity = 2
  Basis Set: CC-PVTZ
    Blend: CC-PVTZ
  Basis Set: (CC-PVTZ AUX)
    Blend: CC-PVTZ-JKFIT

    Orbital Energies [Eh]
    ---------------------

    Alpha Occupied:

       1Ag   -19.801609     1B1u  -19.798733     2Ag    -2.090122
       2B1u   -1.201732     1B3u   -1.179875     1B2u   -1.149908
       3Ag    -1.062467     1B2g   -0.645632

    Alpha Virtual:

       1B3g   -0.516795     3B1u    0.038370     2B2u    0.103944
       2B3u    0.105154     4Ag     0.172227     5Ag     0.254695
       2B2g    0.296488     2B3g    0.306809     4B1u    0.463824
       1B1g    0.705644     6Ag     0.706942     5B1u    0.826888
       3B3u    1.066235     3B2u    1.067519     1Au     1.316747
       6B1u    1.318573     7Ag     1.766039     3B2g    1.864678
       3B3g    1.869801     7B1u    2.086707     4B3u    2.933496
       4B2u    2.947075     8Ag     3.316221     4B2g    3.458918
       4B3g    3.469890     8B1u    3.941281     2B1g    4.074519
       9Ag     4.075759     5B3u    4.194015     5B2u    4.194240
       6B2u    4.359163     6B3u    4.363492     5B2g    4.885289
       5B3g    4.885586    10Ag     4.914999     3B1g    5.504698
      11Ag     5.508631     6B2g    5.559172     6B3g    5.565424
       2Au     5.693835     9B1u    5.697286    10B1u    5.723968
       3Au     6.040601    11B1u    6.042254    12Ag     6.219544
       7B3u    6.333763     7B2u    6.334343    12B1u    7.283979
       7B3g    8.137841     7B2g    8.137848    13Ag     8.339762
      13B1u   22.394761

    Beta Occupied:

       1Ag   -19.785378     1B1u  -19.782356     2Ag    -2.068181
       2B1u   -1.155646     1B2u   -1.136754     1B3u   -1.090444
       3Ag    -1.035706

    Beta Virtual:

       1B3g   -0.498789     1B2g   -0.450485     3B1u    0.046384
       2B2u    0.107174     2B3u    0.126333     4Ag     0.174075
       5Ag     0.268015     2B3g    0.312266     2B2g    0.331907
       4B1u    0.486420     1B1g    0.726368     6Ag     0.726599
       5B1u    0.843665     3B2u    1.071008     3B3u    1.102619
       1Au     1.351559     6B1u    1.351673     7Ag     1.777881
       3B3g    1.874741     3B2g    1.900650     7B1u    2.101391
       4B2u    2.958330     4B3u    2.998092     8Ag     3.328291
       4B3g    3.481965     4B2g    3.523734     8B1u    3.964924
       2B1g    4.092553     9Ag     4.092943     5B2u    4.226751
       5B3u    4.226838     6B2u    4.363799     6B3u    4.398364
       5B3g    4.925741     5B2g    4.925764    10Ag     4.929973
      11Ag     5.562570     3B1g    5.562695     6B3g    5.570345
       6B2g    5.604718     9B1u    5.733953     2Au     5.753503
      10B1u    5.761724     3Au     6.068469    11B1u    6.069655
      12Ag     6.245386     7B2u    6.339689     7B3u    6.378197
      12B1u    7.302544     7B3g    8.144035     7B2g    8.181855
      13Ag     8.359580    13B1u   22.416310

    Final Occupation by Irrep:
             Ag   B1g   B2g   B3g    Au   B1u   B2u   B3u
    DOCC [     3,    0,    0,    0,    0,    2,    1,    1 ]
    SOCC [     0,    0,    1,    0,    0,    0,    0,    0 ]
    NA   [     3,    0,    1,    0,    0,    2,    1,    1 ]
    NB   [     3,    0,    0,    0,    0,    2,    1,    1 ]

  @DF-UKS Final Energy:  -149.80348326569754

   => Energetics <=

    Nuclear Repulsion Energy =             36.4969858072803532
    One-Electron Energy =                -269.8111241724971023
    Two-Electron Energy =                  97.1717378987499245
    DFT Exchange-Correlation Energy =     -13.6610827992306749
    Empirical Dispersion Energy =           0.0000000000000000
    VV10 Nonlocal Energy =                  0.0000000000000000
    Total Energy =                       -149.8034832656975084

  UHF NO Occupations:
  HONO-2 :    2B1u 1.9997606
  HONO-1 :    1B3u 1.9994959
  HONO-0 :    1B2g 1.0000000
  LUNO+0 :    2B3u 0.0005041
  LUNO+1 :    3B1u 0.0002394
  LUNO+2 :    4 Ag 0.0001396
  LUNO+3 :    2B2u 0.0000214

Computation Completed

Properties will be evaluated at   0.000000,   0.000000,   0.000000 [a0]

Properties computed using the B3LYP density matrix

 Multipole Moments:

 ------------------------------------------------------------------------------------
     Multipole            Electronic (a.u.)      Nuclear  (a.u.)        Total (a.u.)
 ------------------------------------------------------------------------------------

 L = 1.  Multiply by 2.5417464519 to convert [e a0] to [Debye]
 Dipole X            :          0.0000000            0.0000000            0.0000000
 Dipole Y            :          0.0000000            0.0000000            0.0000000
 Dipole Z            :          0.0000000            0.0000000            0.0000000
 Magnitude           :                                                    0.0000000

 L = 2.  Multiply by 1.3450342976 to convert [e a0^2] to [Debye ang]
 Quadrupole XX       :         -5.8622412            0.0000000           -5.8622412
 Quadrupole XY       :          0.0000000            0.0000000            0.0000000
 Quadrupole XZ       :          0.0000000            0.0000000            0.0000000
 Quadrupole YY       :         -5.2850479            0.0000000           -5.2850479
 Quadrupole YZ       :          0.0000000            0.0000000            0.0000000
 Quadrupole ZZ       :        -17.7469127           12.3000235           -5.4468892
 Traceless XX        :          3.7691594           -4.1000078           -0.3308484
 Traceless YY        :          4.3463527           -4.1000078            0.2463448
 Traceless ZZ        :         -8.1155121            8.2000157            0.0845036

 ------------------------------------------------------------------------------------
  ==> Computing MBIS Charges <==

  Electron Count from Grid (Expected Number): 15.00000 (15.00000)
  Difference: -0.00000

  MBIS Charges: (a.u.)
   Center  Symbol  Z      Pop.       Charge
      1       O    8    7.500000    0.500000
      2       O    8    7.500000    0.500000

  MBIS Dipoles: [e a0]
   Center  Symbol  Z        X           Y           Z
      1       O    8   -0.000000    0.000000    0.059342
      2       O    8   -0.000000   -0.000000   -0.059342

  MBIS Quadrupoles: [e a0^2]
   Center  Symbol  Z      XX        XY        XZ        YY        YZ        ZZ
      1       O    8   -2.9311    0.0000    0.0000   -2.6425   -0.0000   -3.0038
      2       O    8   -2.9311   -0.0000    0.0000   -2.6425    0.0000   -3.0038

  MBIS Octupoles: [e a0^3]
   Center  Symbol  Z      XXX       XXY       XXZ       XYY       XYZ       XZZ       YYY       YYZ       YZZ       ZZZ
      1       O    8   -0.0000   -0.0000    0.1311   -0.0000   -0.0000   -0.0000    0.0000    0.0322   -0.0000   -0.0086
      2       O    8   -0.0000   -0.0000   -0.1311    0.0000   -0.0000   -0.0000    0.0000   -0.0322    0.0000    0.0086

  MBIS Radial Moments:
   Center  Symbol  Z      [a0^2]      [a0^3]      [a0^4]
      1       O    8    8.577404   14.384284   28.986015
      2       O    8    8.577404   14.384284   28.986015

  MBIS Valence Widths: [a0]
   Center  Symbol  Z     Width
      1       O    8    0.349657
      2       O    8    0.349657

*** tstop() called on Mac.lan at Sun Aug 10 18:12:49 2025
Module time:
	user time   =       5.14 seconds =       0.09 minutes
	system time =       1.63 seconds =       0.03 minutes
	total time  =          0 seconds =       0.00 minutes
Total time:
	user time   =      16.10 seconds =       0.27 minutes
	system time =       3.62 seconds =       0.06 minutes
	total time  =          2 seconds =       0.03 minutes

    Psi4 stopped on: Sunday, 10 August 2025 06:12PM
    Psi4 wall time for execution: 0:00:01.93

*** Psi4 exiting successfully. Buy a developer a beer!
