                               Psi4 1.9.1 release

  ==> Input File <==

--------------------------------------------------------------------------
molecule {
1 2
O           0.000000           0.000000           0.000000
O           0.000000           0.000000           1.171789
}

set {
basis              cc-pvtz
reference          uks
maxiter            500
DAMPING_PERCENTAGE 1
E_CONVERGENCE      1.0E-8
D_CONVERGENCE      1.0E-8
DIIS_MAX_VECS      400
MBIS_MAXITER       8000
guess              read
}

E, wfn = energy('b3lyp', restart_file='last_wfn', return_wfn=True)
properties('b3lyp','MBIS_CHARGES', wfn=wfn)
wfn.to_file('last_wfn')
--------------------------------------------------------------------------

    Molecular point group: d2h
  Charge       = 1
  Multiplicity = 2
  Basis Set: CC-PVTZ
    Blend: CC-PVTZ
  Basis Set: (CC-PVTZ AUX)
    Blend: CC-PVTZ-JKFIT
  @DF-UKS Final Energy:  -149.91420478414665
    Total Energy =                       -149.9142047841466479
 Dipole X            :          0.0000000            0.0000000            0.0000000
 Dipole Y            :          0.0000000            0.0000000            0.0000000
 Dipole Z            :          0.0000000            0.0000000            0.0000000
 Magnitude           :                                                    0.0000000
    Molecular point group: d2h

    Geometry (in Angstrom), charge = 1, multiplicity = 2:

       Center              X                  Y                   Z               Mass
    ------------   -----------------  -----------------  -----------------  -----------------
         O            0.000000000000     0.000000000000    -0.585894500000    15.994914619570
         O            0.000000000000     0.000000000000     0.585894500000    15.994914619570

  Charge       = 1
  Multiplicity = 2
  Basis Set: CC-PVTZ
    Blend: CC-PVTZ
  Basis Set: (CC-PVTZ AUX)
    Blend: CC-PVTZ-JKFIT

    Orbital Energies [Eh]
    ---------------------

    Alpha Occupied:

       1Ag   -19.822108     1B1u  -19.821752     2Ag    -1.809836
       2B1u   -1.269220     1B3u   -1.035174     3Ag    -1.008660
       1B2u   -0.996221     1B2g   -0.757186

    Alpha Virtual:

       1B3g   -0.630932     3B1u   -0.199795     2B3u    0.146661
       2B2u    0.149483     4B1u    0.157666     4Ag     0.216461
       5Ag     0.268921     2B2g    0.285443     2B3g    0.293067
       1B1g    0.781122     6Ag     0.782396     5B1u    0.842894
       3B2u    0.882215     3B3u    0.883746     1Au     1.212095
       6B1u    1.213752     7Ag     1.710932     7B1u    1.738680
       3B2g    1.779086     3B3g    1.780991     4B3u    2.933867
       4B2u    2.951355     8Ag     3.121772     4B2g    3.233374
       4B3g    3.247365     2B1g    4.083965     9Ag     4.085259
       5B2u    4.181878     5B3u    4.187700     8B1u    4.265045
       6B3u    4.413624     6B2u    4.413911    10Ag     4.447755
       5B2g    4.696994     5B3g    4.697294     9B1u    5.220254
       2Au     5.278899    10B1u    5.281322     3B1g    5.521994
      11Ag     5.526136     3Au     5.762658    11B1u    5.766334
       6B2g    5.822816     6B3g    5.832904     7B3u    5.942178
       7B2u    5.948558    12B1u    6.262912    12Ag     6.520020
       7B3g    6.824909     7B2g    6.828525    13Ag     7.089189
      13B1u   12.470021

    Beta Occupied:

       1Ag   -19.805583     1B1u  -19.805146     2Ag    -1.781396
       2B1u   -1.222376     3Ag    -0.987219     1B2u   -0.982380
       1B3u   -0.937686

    Beta Virtual:

       1B3g   -0.613059     1B2g   -0.564177     3B1u   -0.176601
       2B2u    0.153669     4B1u    0.164387     2B3u    0.173819
       4Ag     0.218994     5Ag     0.281101     2B3g    0.297914
       2B2g    0.316505     1B1g    0.803027     6Ag     0.803148
       5B1u    0.858357     3B2u    0.884283     3B3u    0.912523
       1Au     1.244319     6B1u    1.244365     7Ag     1.726998
       7B1u    1.748654     3B3g    1.785080     3B2g    1.811363
       4B2u    2.962633     4B3u    3.001565     8Ag     3.132750
       4B3g    3.259623     4B2g    3.301053     9Ag     4.104670
       2B1g    4.104935     5B2u    4.185475     5B3u    4.216747
       8B1u    4.283180     6B2u    4.450888     6B3u    4.450957
      10Ag     4.464753     5B3g    4.736363     5B2g    4.736383
       9B1u    5.241125     2Au     5.311949    10B1u    5.312376
      11Ag     5.582126     3B1g    5.582175     3Au     5.816315
      11B1u    5.816888     6B3g    5.840041     6B2g    5.878555
       7B2u    5.954944     7B3u    5.994211    12B1u    6.279701
      12Ag     6.543750     7B3g    6.828692     7B2g    6.861325
      13Ag     7.109479    13B1u   12.493136

    Final Occupation by Irrep:
             Ag   B1g   B2g   B3g    Au   B1u   B2u   B3u
    DOCC [     3,    0,    0,    0,    0,    2,    1,    1 ]
    SOCC [     0,    0,    1,    0,    0,    0,    0,    0 ]
    NA   [     3,    0,    1,    0,    0,    2,    1,    1 ]
    NB   [     3,    0,    0,    0,    0,    2,    1,    1 ]

  @DF-UKS Final Energy:  -149.91420478368408

   => Energetics <=

    Nuclear Repulsion Energy =             28.9022524386899029
    One-Electron Energy =                -255.9718789323084991
    Two-Electron Energy =                  90.5411089452910574
    DFT Exchange-Correlation Energy =     -13.3856872353565581
    Empirical Dispersion Energy =           0.0000000000000000
    VV10 Nonlocal Energy =                  0.0000000000000000
    Total Energy =                       -149.9142047836840845

  UHF NO Occupations:
  HONO-2 :    2B1u 1.9997145
  HONO-1 :    1B3u 1.9990555
  HONO-0 :    1B2g 1.0000000
  LUNO+0 :    2B3u 0.0009445
  LUNO+1 :    3B1u 0.0002855
  LUNO+2 :    4 Ag 0.0001440
  LUNO+3 :    2B2u 0.0000326

Computation Completed

Properties will be evaluated at   0.000000,   0.000000,   0.000000 [a0]

Properties computed using the B3LYP density matrix

 Multipole Moments:

 ------------------------------------------------------------------------------------
     Multipole            Electronic (a.u.)      Nuclear  (a.u.)        Total (a.u.)
 ------------------------------------------------------------------------------------

 L = 1.  Multiply by 2.5417464519 to convert [e a0] to [Debye]
 Dipole X            :          0.0000000            0.0000000            0.0000000
 Dipole Y            :          0.0000000            0.0000000            0.0000000
 Dipole Z            :          0.0000000            0.0000000            0.0000000
 Magnitude           :                                                    0.0000000

 L = 2.  Multiply by 1.3450342976 to convert [e a0^2] to [Debye ang]
 Quadrupole XX       :         -6.2278328            0.0000000           -6.2278328
 Quadrupole XY       :          0.0000000            0.0000000            0.0000000
 Quadrupole XZ       :          0.0000000            0.0000000            0.0000000
 Quadrupole YY       :         -5.6838820            0.0000000           -5.6838820
 Quadrupole YZ       :          0.0000000            0.0000000            0.0000000
 Quadrupole ZZ       :        -24.4489917           19.6135659           -4.8354258
 Traceless XX        :          5.8924027           -6.5378553           -0.6454526
 Traceless YY        :          6.4363535           -6.5378553           -0.1015018
 Traceless ZZ        :        -12.3287562           13.0757106            0.7469544

 ------------------------------------------------------------------------------------
  ==> Computing MBIS Charges <==

  Electron Count from Grid (Expected Number): 15.00000 (15.00000)
  Difference:  0.00000

  MBIS Charges: (a.u.)
   Center  Symbol  Z      Pop.       Charge
      1       O    8    7.500001    0.499999
      2       O    8    7.500001    0.499999

  MBIS Dipoles: [e a0]
   Center  Symbol  Z        X           Y           Z
      1       O    8    0.000000    0.000000   -0.019512
      2       O    8   -0.000000    0.000000    0.019512

  MBIS Quadrupoles: [e a0^2]
   Center  Symbol  Z      XX        XY        XZ        YY        YZ        ZZ
      1       O    8   -3.1139   -0.0000    0.0000   -2.8419   -0.0000   -3.0738
      2       O    8   -3.1139   -0.0000   -0.0000   -2.8419    0.0000   -3.0738

  MBIS Octupoles: [e a0^3]
   Center  Symbol  Z      XXX       XXY       XXZ       XYY       XYZ       XZZ       YYY       YYZ       YZZ       ZZZ
      1       O    8   -0.0000   -0.0000    0.0032    0.0000   -0.0000   -0.0000   -0.0000   -0.0668    0.0000   -0.2417
      2       O    8   -0.0000   -0.0000   -0.0032    0.0000    0.0000   -0.0000    0.0000    0.0668    0.0000    0.2417

  MBIS Radial Moments:
   Center  Symbol  Z      [a0^2]      [a0^3]      [a0^4]
      1       O    8    9.029700   15.542257   32.096879
      2       O    8    9.029700   15.542257   32.096879

  MBIS Valence Widths: [a0]
   Center  Symbol  Z     Width
      1       O    8    0.359722
      2       O    8    0.359722

*** tstop() called on Mac.lan at Sun Aug 10 18:13:28 2025
Module time:
	user time   =       3.72 seconds =       0.06 minutes
	system time =       2.59 seconds =       0.04 minutes
	total time  =          0 seconds =       0.00 minutes
Total time:
	user time   =      22.63 seconds =       0.38 minutes
	system time =       4.78 seconds =       0.08 minutes
	total time  =          2 seconds =       0.03 minutes

    Psi4 stopped on: Sunday, 10 August 2025 06:13PM
    Psi4 wall time for execution: 0:00:02.71

*** Psi4 exiting successfully. Buy a developer a beer!
