                               Psi4 1.9.1 release

  ==> Input File <==

--------------------------------------------------------------------------
molecule {
1 1
C           0.000000           0.000000           0.000000
H           0.000000           0.000000           1.350139
}

set {
basis              cc-pvtz
reference          uks
maxiter            500
DAMPING_PERCENTAGE 1
E_CONVERGENCE      1.0E-8
D_CONVERGENCE      1.0E-8
DIIS_MAX_VECS      400
MBIS_MAXITER       8000
guess              read
}

E, wfn = energy('b3lyp', restart_file='last_wfn', return_wfn=True)
properties('b3lyp','MBIS_CHARGES', wfn=wfn)
wfn.to_file('last_wfn')
--------------------------------------------------------------------------

    Molecular point group: c2v
  Charge       = 1
  Multiplicity = 1
  Basis Set: CC-PVTZ
    Blend: CC-PVTZ
  Basis Set: (CC-PVTZ AUX)
    Blend: CC-PVTZ-JKFIT
  @DF-UKS Final Energy:   -38.07687243337148
    Total Energy =                        -38.0768724333714843
 Dipole X            :          0.0000000            0.0000000            0.0000000
 Dipole Y            :          0.0000000            0.0000000            0.0000000
 Dipole Z            :         -0.4280655            1.1676486            0.7395831
 Magnitude           :                                                    0.7395831
    Molecular point group: c2v

    Geometry (in Angstrom), charge = 1, multiplicity = 1:

       Center              X                  Y                   Z               Mass
    ------------   -----------------  -----------------  -----------------  -----------------
         C            0.000000000000     0.000000000000    -0.104606563958    12.000000000000
         H            0.000000000000     0.000000000000     1.245532436042     1.007825032230

  Charge       = 1
  Multiplicity = 1
  Basis Set: CC-PVTZ
    Blend: CC-PVTZ
  Basis Set: (CC-PVTZ AUX)
    Blend: CC-PVTZ-JKFIT

    Orbital Energies [Eh]
    ---------------------

    Alpha Occupied:

       1A1   -10.805749     2A1    -1.001069     3A1    -0.702873

    Alpha Virtual:

       1B2    -0.537363     1B1    -0.537363     4A1    -0.289214
       5A1    -0.014956     2B1     0.009419     2B2     0.009419
       6A1     0.033736     7A1     0.162024     3B2     0.217717
       3B1     0.217717     8A1     0.325404     1A2     0.325404
       9A1     0.576882     4B2     0.652499     4B1     0.652499
      10A1     0.902000     5B1     1.524977     5B2     1.524977
      11A1     1.732639    12A1     2.027972     6B2     2.172764
       6B1     2.172764     2A2     2.173123    13A1     2.173124
       7B1     2.255865     7B2     2.255865    14A1     2.328206
       3A2     2.493434    15A1     2.493435     8B2     2.614433
       8B1     2.614433    16A1     2.714034     4A2     3.017325
      17A1     3.017330     9B2     3.344134     9B1     3.344134
      18A1     3.413815    10B2     3.834596    10B1     3.834596
      19A1     3.977859    20A1     5.920058

    Beta Occupied:

       1A1   -10.805749     2A1    -1.001069     3A1    -0.702873

    Beta Virtual:

       1B2    -0.537363     1B1    -0.537363     4A1    -0.289214
       5A1    -0.014956     2B1     0.009419     2B2     0.009419
       6A1     0.033736     7A1     0.162024     3B2     0.217717
       3B1     0.217717     8A1     0.325404     1A2     0.325404
       9A1     0.576882     4B2     0.652499     4B1     0.652499
      10A1     0.902000     5B1     1.524977     5B2     1.524977
      11A1     1.732639    12A1     2.027972     6B2     2.172764
       6B1     2.172764     2A2     2.173123    13A1     2.173124
       7B1     2.255865     7B2     2.255865    14A1     2.328206
       3A2     2.493434    15A1     2.493435     8B2     2.614433
       8B1     2.614433    16A1     2.714034     4A2     3.017325
      17A1     3.017330     9B2     3.344134     9B1     3.344134
      18A1     3.413815    10B2     3.834596    10B1     3.834596
      19A1     3.977859    20A1     5.920058

    Final Occupation by Irrep:
             A1    A2    B1    B2
    DOCC [     3,    0,    0,    0 ]
    SOCC [     0,    0,    0,    0 ]
    NA   [     3,    0,    0,    0 ]
    NB   [     3,    0,    0,    0 ]

  @DF-UKS Final Energy:   -38.07687243339999

   => Energetics <=

    Nuclear Repulsion Energy =              2.3516565805594833
    One-Electron Energy =                 -52.7876288378603391
    Two-Electron Energy =                  16.5769586676237211
    DFT Exchange-Correlation Energy =      -4.2178588437228557
    Empirical Dispersion Energy =           0.0000000000000000
    VV10 Nonlocal Energy =                  0.0000000000000000
    Total Energy =                        -38.0768724333999913

  UHF NO Occupations:
  HONO-2 :    1 A1 2.0000000
  HONO-1 :    2 A1 2.0000000
  HONO-0 :    3 A1 2.0000000
  LUNO+0 :    4 A1 0.0000000
  LUNO+1 :    5 A1 0.0000000
  LUNO+2 :    6 A1 0.0000000
  LUNO+3 :    7 A1 0.0000000

Computation Completed

Properties will be evaluated at   0.000000,   0.000000,   0.000000 [a0]

Properties computed using the B3LYP density matrix

 Multipole Moments:

 ------------------------------------------------------------------------------------
     Multipole            Electronic (a.u.)      Nuclear  (a.u.)        Total (a.u.)
 ------------------------------------------------------------------------------------

 L = 1.  Multiply by 2.5417464519 to convert [e a0] to [Debye]
 Dipole X            :          0.0000000            0.0000000            0.0000000
 Dipole Y            :          0.0000000            0.0000000            0.0000000
 Dipole Z            :         -0.4280655            1.1676486            0.7395831
 Magnitude           :                                                    0.7395831

 L = 2.  Multiply by 1.3450342976 to convert [e a0^2] to [Debye ang]
 Quadrupole XX       :         -3.0442654            0.0000000           -3.0442654
 Quadrupole XY       :          0.0000000            0.0000000            0.0000000
 Quadrupole XZ       :          0.0000000            0.0000000            0.0000000
 Quadrupole YY       :         -3.0442654            0.0000000           -3.0442654
 Quadrupole YZ       :          0.0000000            0.0000000            0.0000000
 Quadrupole ZZ       :         -8.3822829            5.7744341           -2.6078487
 Traceless XX        :          1.7793392           -1.9248114           -0.1454722
 Traceless YY        :          1.7793392           -1.9248114           -0.1454722
 Traceless ZZ        :         -3.5586783            3.8496228            0.2909445

 ------------------------------------------------------------------------------------
  ==> Computing MBIS Charges <==

  Electron Count from Grid (Expected Number):  6.00000 ( 6.00000)
  Difference:  0.00000

  MBIS Charges: (a.u.)
   Center  Symbol  Z      Pop.       Charge
      1       C    6    5.222770    0.777230
      2       H    1    0.777230    0.222770

  MBIS Dipoles: [e a0]
   Center  Symbol  Z        X           Y           Z
      1       C    6   -0.000000   -0.000000    0.233575
      2       H    1    0.000000    0.000000    0.135312

  MBIS Quadrupoles: [e a0^2]
   Center  Symbol  Z      XX        XY        XZ        YY        YZ        ZZ
      1       C    6   -2.5826    0.0000    0.0000   -2.5826    0.0000   -3.9439
      2       H    1   -0.4616    0.0000   -0.0000   -0.4616    0.0000   -0.4731

  MBIS Octupoles: [e a0^3]
   Center  Symbol  Z      XXX       XXY       XXZ       XYY       XYZ       XZZ       YYY       YYZ       YZZ       ZZZ
      1       C    6    0.0000    0.0000    0.2621   -0.0000   -0.0000   -0.0000    0.0000    0.2621    0.0000    0.6908
      2       H    1    0.0000   -0.0000    0.0343   -0.0000   -0.0000   -0.0000    0.0000    0.0343    0.0000    0.1424

  MBIS Radial Moments:
   Center  Symbol  Z      [a0^2]      [a0^3]      [a0^4]
      1       C    6    9.109148   19.570898   50.072765
      2       H    1    1.396370    2.585570    5.716220

  MBIS Valence Widths: [a0]
   Center  Symbol  Z     Width
      1       C    6    0.467189
      2       H    1    0.395439

*** tstop() called on Mac.lan at Sun Aug 10 18:27:26 2025
Module time:
	user time   =       2.96 seconds =       0.05 minutes
	system time =       1.73 seconds =       0.03 minutes
	total time  =          0 seconds =       0.00 minutes
Total time:
	user time   =      11.09 seconds =       0.18 minutes
	system time =       3.77 seconds =       0.06 minutes
	total time  =          1 seconds =       0.02 minutes

    Psi4 stopped on: Sunday, 10 August 2025 06:27PM
    Psi4 wall time for execution: 0:00:01.46

*** Psi4 exiting successfully. Buy a developer a beer!
