                               Psi4 1.9.1 release

  ==> Input File <==

--------------------------------------------------------------------------
molecule {
1 4
C           0.000000           0.000000           0.000000
C           0.000000           0.000000           1.020056
}

set {
basis              cc-pvtz
reference          uks
maxiter            500
DAMPING_PERCENTAGE 1
E_CONVERGENCE      1.0E-8
D_CONVERGENCE      1.0E-8
DIIS_MAX_VECS      400
MBIS_MAXITER       8000
guess              read
}

E, wfn = energy('b3lyp', restart_file='last_wfn', return_wfn=True)
properties('b3lyp','MBIS_CHARGES', wfn=wfn)
wfn.to_file('last_wfn')
--------------------------------------------------------------------------

    Molecular point group: d2h
  Charge       = 1
  Multiplicity = 4
  Basis Set: CC-PVTZ
    Blend: CC-PVTZ
  Basis Set: (CC-PVTZ AUX)
    Blend: CC-PVTZ-JKFIT
  @DF-UKS Final Energy:   -75.33791900081742
    Total Energy =                        -75.3379190008174362
 Dipole X            :          0.0000000            0.0000000            0.0000000
 Dipole Y            :          0.0000000            0.0000000            0.0000000
 Dipole Z            :          0.0000000            0.0000000            0.0000000
 Magnitude           :                                                    0.0000000
    Molecular point group: d2h

    Geometry (in Angstrom), charge = 1, multiplicity = 4:

       Center              X                  Y                   Z               Mass
    ------------   -----------------  -----------------  -----------------  -----------------
         C            0.000000000000     0.000000000000    -0.510028000000    12.000000000000
         C            0.000000000000     0.000000000000     0.510028000000    12.000000000000

  Charge       = 1
  Multiplicity = 4
  Basis Set: CC-PVTZ
    Blend: CC-PVTZ
  Basis Set: (CC-PVTZ AUX)
    Blend: CC-PVTZ-JKFIT

    Orbital Energies [Eh]
    ---------------------

    Alpha Occupied:

       1Ag   -10.661743     1B1u  -10.649880     2Ag    -1.281147
       1B2u   -0.817006     2B1u   -0.806757     1B3u   -0.772625
       3Ag    -0.762437

    Alpha Virtual:

       1B3g   -0.311074     1B2g   -0.281811     3B1u   -0.041868
       2B2u   -0.029688     2B3u   -0.017594     4Ag     0.004440
       5Ag     0.030271     2B3g    0.123264     2B2g    0.134117
       1B1g    0.220227     6Ag     0.221010     4B1u    0.286127
       3B2u    0.479194     5B1u    0.498034     3B3u    0.501403
       1Au     0.584904     6B1u    0.585948     7Ag     0.785662
       3B3g    0.829304     3B2g    0.842899     7B1u    1.408561
       4B2u    1.461023     4B3u    1.492373     8Ag     1.791714
       4B3g    1.936530     4B2g    1.964992     8B1u    2.009003
       5B2u    2.048406     5B3u    2.048740     2B1g    2.069456
       9Ag     2.071025     6B2u    2.198515     6B3u    2.231997
      10Ag     2.397370     5B3g    2.528321     5B2g    2.549274
       3B1g    2.585227    11Ag     2.585387     9B1u    2.591194
       2Au     2.591781     6B3g    2.610655     6B2g    2.611233
      12Ag     3.110271    10B1u    3.119303     7B2u    3.300824
       7B3u    3.329131     3Au     3.477656    11B1u    3.477874
      12B1u    4.239023     7B3g    4.700107     7B2g    4.732458
      13Ag     5.479561    13B1u   16.642513

    Beta Occupied:

       1Ag   -10.627737     1B1u  -10.616656     2Ag    -1.194635
       1B3u   -0.730212

    Beta Virtual:

       1B2u   -0.613383     2B1u   -0.548411     3Ag    -0.502045
       1B2g   -0.219392     1B3g   -0.188575     3B1u   -0.011265
       2B3u   -0.011054     2B2u   -0.001106     4Ag     0.033576
       5Ag     0.098925     2B2g    0.152141     2B3g    0.169585
       1B1g    0.255902     6Ag     0.260472     4B1u    0.349188
       3B3u    0.554737     3B2u    0.569097     5B1u    0.572686
       1Au     0.621650     6B1u    0.627838     7Ag     0.860815
       3B2g    0.875572     3B3g    0.890759     7B1u    1.506641
       4B3u    1.514840     4B2u    1.529621     8Ag     1.854719
       4B2g    1.991570     4B3g    2.002973     8B1u    2.096927
       5B3u    2.099813     5B2u    2.102763     2B1g    2.120179
       9Ag     2.126209     6B3u    2.312555     6B2u    2.340130
      10Ag     2.562988     5B2g    2.655293     6B2g    2.668854
       5B3g    2.672400     3B1g    2.680747     2Au     2.683542
       6B3g    2.690326    11Ag     2.693949     9B1u    2.696425
      12Ag     3.198278    10B1u    3.262640     7B3u    3.412924
       7B2u    3.439958     3Au     3.544765    11B1u    3.555183
      12B1u    4.334730     7B2g    4.797752     7B3g    4.824499
      13Ag     5.546712    13B1u   16.703923

    Final Occupation by Irrep:
             Ag   B1g   B2g   B3g    Au   B1u   B2u   B3u
    DOCC [     2,    0,    0,    0,    0,    1,    0,    1 ]
    SOCC [     1,    0,    0,    0,    0,    1,    1,    0 ]
    NA   [     3,    0,    0,    0,    0,    2,    1,    1 ]
    NB   [     2,    0,    0,    0,    0,    1,    0,    1 ]

  @DF-UKS Final Energy:   -75.33791900063586

   => Energetics <=

    Nuclear Repulsion Energy =             18.6758173905354106
    One-Electron Energy =                -132.9479859941839663
    Two-Electron Energy =                  47.4845145684129761
    DFT Exchange-Correlation Energy =      -8.5502649654002898
    Empirical Dispersion Energy =           0.0000000000000000
    VV10 Nonlocal Energy =                  0.0000000000000000
    Total Energy =                        -75.3379190006358641

  UHF NO Occupations:
  HONO-2 :    3 Ag 1.0000000
  HONO-1 :    1B2u 1.0000000
  HONO-0 :    2B1u 1.0000000
  LUNO+0 :    2B3u 0.0005119
  LUNO+1 :    4 Ag 0.0004723
  LUNO+2 :    3B1u 0.0000012
  LUNO+3 :    5 Ag 0.0000008

Computation Completed

Properties will be evaluated at   0.000000,   0.000000,   0.000000 [a0]

Properties computed using the B3LYP density matrix

 Multipole Moments:

 ------------------------------------------------------------------------------------
     Multipole            Electronic (a.u.)      Nuclear  (a.u.)        Total (a.u.)
 ------------------------------------------------------------------------------------

 L = 1.  Multiply by 2.5417464519 to convert [e a0] to [Debye]
 Dipole X            :          0.0000000            0.0000000            0.0000000
 Dipole Y            :          0.0000000            0.0000000            0.0000000
 Dipole Z            :          0.0000000            0.0000000            0.0000000
 Magnitude           :                                                    0.0000000

 L = 2.  Multiply by 1.3450342976 to convert [e a0^2] to [Debye ang]
 Quadrupole XX       :         -6.5005244            0.0000000           -6.5005244
 Quadrupole XY       :          0.0000000            0.0000000            0.0000000
 Quadrupole XZ       :          0.0000000            0.0000000            0.0000000
 Quadrupole YY       :         -5.4519000            0.0000000           -5.4519000
 Quadrupole YZ       :          0.0000000            0.0000000            0.0000000
 Quadrupole ZZ       :        -15.3202744           11.1472315           -4.1730430
 Traceless XX        :          2.5903752           -3.7157438           -1.1253686
 Traceless YY        :          3.6389996           -3.7157438           -0.0767442
 Traceless ZZ        :         -6.2293748            7.4314876            1.2021128

 ------------------------------------------------------------------------------------
  ==> Computing MBIS Charges <==

  Electron Count from Grid (Expected Number): 11.00000 (11.00000)
  Difference: -0.00000

  MBIS Charges: (a.u.)
   Center  Symbol  Z      Pop.       Charge
      1       C    6    5.500000    0.500000
      2       C    6    5.500000    0.500000

  MBIS Dipoles: [e a0]
   Center  Symbol  Z        X           Y           Z
      1       C    6   -0.000000    0.000000   -0.316274
      2       C    6   -0.000000    0.000000    0.316274

  MBIS Quadrupoles: [e a0^2]
   Center  Symbol  Z      XX        XY        XZ        YY        YZ        ZZ
      1       C    6   -3.2503    0.0000   -0.0000   -2.7260   -0.0000   -3.1606
      2       C    6   -3.2503    0.0000   -0.0000   -2.7260    0.0000   -3.1606

  MBIS Octupoles: [e a0^3]
   Center  Symbol  Z      XXX       XXY       XXZ       XYY       XYZ       XZZ       YYY       YYZ       YZZ       ZZZ
      1       C    6   -0.0000   -0.0000   -0.3212   -0.0000    0.0000   -0.0000    0.0000   -0.1697    0.0000   -0.3240
      2       C    6   -0.0000   -0.0000    0.3212   -0.0000   -0.0000   -0.0000    0.0000    0.1697    0.0000    0.3240

  MBIS Radial Moments:
   Center  Symbol  Z      [a0^2]      [a0^3]      [a0^4]
      1       C    6    9.136860   19.139165   47.951707
      2       C    6    9.136860   19.139165   47.951707

  MBIS Valence Widths: [a0]
   Center  Symbol  Z     Width
      1       C    6    0.446319
      2       C    6    0.446319

*** tstop() called on Mac.lan at Sun Aug 10 18:15:22 2025
Module time:
	user time   =       3.66 seconds =       0.06 minutes
	system time =       2.37 seconds =       0.04 minutes
	total time  =          1 seconds =       0.02 minutes
Total time:
	user time   =      14.80 seconds =       0.25 minutes
	system time =       4.46 seconds =       0.07 minutes
	total time  =          2 seconds =       0.03 minutes

    Psi4 stopped on: Sunday, 10 August 2025 06:15PM
    Psi4 wall time for execution: 0:00:01.88

*** Psi4 exiting successfully. Buy a developer a beer!
