                               Psi4 1.9.1 release

  ==> Input File <==

--------------------------------------------------------------------------
molecule {
1 3
O           0.000000           0.000000           0.000000
H           0.000000           0.000000           0.794637
}

set {
basis              cc-pvtz
reference          uks
maxiter            500
DAMPING_PERCENTAGE 1
E_CONVERGENCE      1.0E-8
D_CONVERGENCE      1.0E-8
DIIS_MAX_VECS      400
MBIS_MAXITER       8000
guess              read
}

E, wfn = energy('b3lyp', restart_file='last_wfn', return_wfn=True)
properties('b3lyp','MBIS_CHARGES', wfn=wfn)
wfn.to_file('last_wfn')
--------------------------------------------------------------------------

    Molecular point group: c2v
  Charge       = 1
  Multiplicity = 3
  Basis Set: CC-PVTZ
    Blend: CC-PVTZ
  Basis Set: (CC-PVTZ AUX)
    Blend: CC-PVTZ-JKFIT
  @DF-UKS Final Energy:   -75.21600015951721
    Total Energy =                        -75.2160001595172076
 Dipole X            :          0.0000000            0.0000000            0.0000000
 Dipole Y            :          0.0000000            0.0000000            0.0000000
 Dipole Z            :         -0.0032864            0.7005654            0.6972790
 Magnitude           :                                                    0.6972790
    Molecular point group: c2v

    Geometry (in Angstrom), charge = 1, multiplicity = 3:

       Center              X                  Y                   Z               Mass
    ------------   -----------------  -----------------  -----------------  -----------------
         O            0.000000000000     0.000000000000    -0.047101530491    15.994914619570
         H            0.000000000000     0.000000000000     0.747535469509     1.007825032230

  Charge       = 1
  Multiplicity = 3
  Basis Set: CC-PVTZ
    Blend: CC-PVTZ
  Basis Set: (CC-PVTZ AUX)
    Blend: CC-PVTZ-JKFIT

    Orbital Energies [Eh]
    ---------------------

    Alpha Occupied:

       1A1   -19.835647     2A1    -1.666144     3A1    -1.048596
       1B1    -0.983973     1B2    -0.983973

    Alpha Virtual:

       4A1    -0.249217     5A1     0.091194     2B2     0.133168
       2B1     0.133168     6A1     0.142111     3B2     0.334128
       3B1     0.334128     7A1     0.428853     1A2     0.899009
       8A1     0.899009     9A1     1.063530     4B2     1.347681
       4B1     1.347681    10A1     1.408125    11A1     2.108073
       2A2     2.801937    12A1     2.801937     5B1     2.877526
       5B2     2.877526     6B2     3.102334     6B1     3.102334
      13A1     3.397139     7B2     3.762059     7B1     3.762059
      14A1     3.981151     8B2     4.470088     8B1     4.470088
      15A1     4.660966     3A2     5.033991    16A1     5.033991
      17A1     5.493266     4A2     5.493266     9B2     5.718590
       9B1     5.718590    18A1     6.396498    10B1     6.785745
      10B2     6.785745    19A1     6.791943    20A1    11.512683

    Beta Occupied:

       1A1   -19.779766     2A1    -1.523890     3A1    -0.984808

    Beta Virtual:

       1B1    -0.678975     1B2    -0.678975     4A1    -0.236373
       5A1     0.108620     6A1     0.153625     2B2     0.201445
       2B1     0.201445     3B2     0.353134     3B1     0.353134
       7A1     0.471156     8A1     1.011338     1A2     1.011338
       9A1     1.095479     4B2     1.399547     4B1     1.399547
      10A1     1.443738    11A1     2.124531     2A2     2.827127
      12A1     2.827127     5B1     2.953186     5B2     2.953186
       6B2     3.179553     6B1     3.179553    13A1     3.414522
       7B2     3.797460     7B1     3.797460    14A1     4.042919
       8B2     4.622645     8B1     4.622645    15A1     4.729271
      16A1     5.130499     3A2     5.130499    17A1     5.703997
       4A2     5.703998     9B2     5.812483     9B1     5.812483
      18A1     6.445966    19A1     6.833231    10B1     6.855379
      10B2     6.855379    20A1    11.576658

    Final Occupation by Irrep:
             A1    A2    B1    B2
    DOCC [     3,    0,    0,    0 ]
    SOCC [     0,    0,    1,    1 ]
    NA   [     3,    0,    1,    1 ]
    NB   [     3,    0,    0,    0 ]

  @DF-UKS Final Energy:   -75.21600015989580

   => Energetics <=

    Nuclear Repulsion Energy =              5.3274862425988223
    One-Electron Energy =                -109.2830500905953670
    Two-Electron Energy =                  35.6946756213620517
    DFT Exchange-Correlation Energy =      -6.9551119332613141
    Empirical Dispersion Energy =           0.0000000000000000
    VV10 Nonlocal Energy =                  0.0000000000000000
    Total Energy =                        -75.2160001598957990

  UHF NO Occupations:
  HONO-2 :    3 A1 1.9986537
  HONO-1 :    1 B2 1.0000000
  HONO-0 :    1 B1 1.0000000
  LUNO+0 :    4 A1 0.0013463
  LUNO+1 :    5 A1 0.0003467
  LUNO+2 :    6 A1 0.0000015
  LUNO+3 :    7 A1 0.0000000

Computation Completed

Properties will be evaluated at   0.000000,   0.000000,   0.000000 [a0]

Properties computed using the B3LYP density matrix

 Multipole Moments:

 ------------------------------------------------------------------------------------
     Multipole            Electronic (a.u.)      Nuclear  (a.u.)        Total (a.u.)
 ------------------------------------------------------------------------------------

 L = 1.  Multiply by 2.5417464519 to convert [e a0] to [Debye]
 Dipole X            :          0.0000000            0.0000000            0.0000000
 Dipole Y            :          0.0000000            0.0000000            0.0000000
 Dipole Z            :         -0.0032864            0.7005654            0.6972790
 Magnitude           :                                                    0.6972790

 L = 2.  Multiply by 1.3450342976 to convert [e a0^2] to [Debye ang]
 Quadrupole XX       :         -2.8954421            0.0000000           -2.8954421
 Quadrupole XY       :          0.0000000            0.0000000            0.0000000
 Quadrupole XZ       :          0.0000000            0.0000000            0.0000000
 Quadrupole YY       :         -2.8954421            0.0000000           -2.8954421
 Quadrupole YZ       :          0.0000000            0.0000000            0.0000000
 Quadrupole ZZ       :         -4.3032179            2.0589250           -2.2442929
 Traceless XX        :          0.4692586           -0.6863083           -0.2170497
 Traceless YY        :          0.4692586           -0.6863083           -0.2170497
 Traceless ZZ        :         -0.9385172            1.3726166            0.4340995

 ------------------------------------------------------------------------------------
  ==> Computing MBIS Charges <==

  Electron Count from Grid (Expected Number):  8.00000 ( 8.00000)
  Difference: -0.00000

  MBIS Charges: (a.u.)
   Center  Symbol  Z      Pop.       Charge
      1       O    8    7.463209    0.536791
      2       H    1    0.536791    0.463209

  MBIS Dipoles: [e a0]
   Center  Symbol  Z        X           Y           Z
      1       O    8   -0.000000    0.000000    0.055305
      2       H    1   -0.000000   -0.000000    0.035407

  MBIS Quadrupoles: [e a0^2]
   Center  Symbol  Z      XX        XY        XZ        YY        YZ        ZZ
      1       O    8   -2.7329    0.0000   -0.0000   -2.7329   -0.0000   -3.1025
      2       H    1   -0.1625    0.0000    0.0000   -0.1625   -0.0000   -0.1605

  MBIS Octupoles: [e a0^3]
   Center  Symbol  Z      XXX       XXY       XXZ       XYY       XYZ       XZZ       YYY       YYZ       YZZ       ZZZ
      1       O    8   -0.0000   -0.0000    0.0601   -0.0000   -0.0000    0.0000   -0.0000    0.0601   -0.0000    0.1134
      2       H    1    0.0000   -0.0000    0.0038    0.0000   -0.0000    0.0000   -0.0000    0.0038   -0.0000    0.0120

  MBIS Radial Moments:
   Center  Symbol  Z      [a0^2]      [a0^3]      [a0^4]
      1       O    8    8.568344   14.358261   28.872458
      2       H    1    0.485629    0.656048    1.064959

  MBIS Valence Widths: [a0]
   Center  Symbol  Z     Width
      1       O    8    0.351210
      2       H    1    0.277598

*** tstop() called on Mac.lan at Sun Aug 10 18:28:52 2025
Module time:
	user time   =       3.06 seconds =       0.05 minutes
	system time =       1.72 seconds =       0.03 minutes
	total time  =          0 seconds =       0.00 minutes
Total time:
	user time   =      12.05 seconds =       0.20 minutes
	system time =       3.87 seconds =       0.06 minutes
	total time  =          1 seconds =       0.02 minutes

    Psi4 stopped on: Sunday, 10 August 2025 06:28PM
    Psi4 wall time for execution: 0:00:01.56

*** Psi4 exiting successfully. Buy a developer a beer!
