                               Psi4 1.9.1 release

  ==> Input File <==

--------------------------------------------------------------------------
molecule {
1 2
H           0.000000           0.000000           0.000000
H           0.000000           0.000000           0.770548
}

set {
basis              cc-pvtz
reference          uks
maxiter            500
DAMPING_PERCENTAGE 1
E_CONVERGENCE      1.0E-8
D_CONVERGENCE      1.0E-8
DIIS_MAX_VECS      400
MBIS_MAXITER       8000
guess              read
}

E, wfn = energy('b3lyp', restart_file='last_wfn', return_wfn=True)
properties('b3lyp','MBIS_CHARGES', wfn=wfn)
wfn.to_file('last_wfn')
--------------------------------------------------------------------------

    Molecular point group: d2h
  Charge       = 1
  Multiplicity = 2
  Basis Set: CC-PVTZ
    Blend: CC-PVTZ
  Basis Set: (CC-PVTZ AUX)
    Blend: CC-PVTZ-JKFIT
  @DF-UKS Final Energy:    -0.57961975662367
    Total Energy =                         -0.5796197566236744
 Dipole X            :          0.0000000            0.0000000            0.0000000
 Dipole Y            :          0.0000000            0.0000000            0.0000000
 Dipole Z            :          0.0000000            0.0000000            0.0000000
 Magnitude           :                                                    0.0000000
    Molecular point group: d2h

    Geometry (in Angstrom), charge = 1, multiplicity = 2:

       Center              X                  Y                   Z               Mass
    ------------   -----------------  -----------------  -----------------  -----------------
         H            0.000000000000     0.000000000000    -0.385274000000     1.007825032230
         H            0.000000000000     0.000000000000     0.385274000000     1.007825032230

  Charge       = 1
  Multiplicity = 2
  Basis Set: CC-PVTZ
    Blend: CC-PVTZ
  Basis Set: (CC-PVTZ AUX)
    Blend: CC-PVTZ-JKFIT

    Orbital Energies [Eh]
    ---------------------

    Alpha Occupied:

       1Ag    -1.043891

    Alpha Virtual:

       1B1u   -0.335540     2Ag    -0.120395     1B2u    0.039601
       1B3u    0.039601     2B1u    0.078960     3Ag     0.484871
       1B2g    0.523592     1B3g    0.523592     3B1u    1.000336
       4B1u    1.504393     4Ag     1.530626     5Ag     2.318319
       1B1g    2.318319     2B2u    2.443386     2B3u    2.443386
       6Ag     2.764848     2B2g    3.081958     2B3g    3.081958
       5B1u    3.228062     1Au     3.228062     3B2u    3.232341
       3B3u    3.232341     6B1u    3.726207     3B2g    4.707440
       3B3g    4.707440     7Ag     4.758087     7B1u    5.745334

    Beta Occupied:

    Beta Virtual:

       1Ag    -0.636798     1B1u   -0.194874     2Ag    -0.032512
       1B2u    0.185142     1B3u    0.185142     2B1u    0.212438
       3Ag     0.603707     1B3g    0.624966     1B2g    0.624966
       3B1u    1.071703     4B1u    1.776439     4Ag     1.823244
       1B1g    2.520120     5Ag     2.520120     2B2u    2.716742
       2B3u    2.716742     6Ag     3.029650     2B2g    3.300461
       2B3g    3.300461     1Au     3.412904     5B1u    3.412904
       3B3u    3.444820     3B2u    3.444820     6B1u    3.938460
       3B2g    4.939649     3B3g    4.939649     7Ag     5.017553
       7B1u    6.113450

    Final Occupation by Irrep:
             Ag   B1g   B2g   B3g    Au   B1u   B2u   B3u
    DOCC [     0,    0,    0,    0,    0,    0,    0,    0 ]
    SOCC [     1,    0,    0,    0,    0,    0,    0,    0 ]
    NA   [     1,    0,    0,    0,    0,    0,    0,    0 ]
    NB   [     0,    0,    0,    0,    0,    0,    0,    0 ]

  @DF-UKS Final Energy:    -0.57961975667636

   => Energetics <=

    Nuclear Repulsion Energy =              0.6867543756780891
    One-Electron Energy =                  -1.2631720107194959
    Two-Electron Energy =                   0.3059777049231818
    DFT Exchange-Correlation Energy =      -0.3091798265581325
    Empirical Dispersion Energy =           0.0000000000000000
    VV10 Nonlocal Energy =                  0.0000000000000000
    Total Energy =                         -0.5796197566763576

  UHF NO Occupations:
  HONO-0 :    1 Ag 1.0000000
  LUNO+0 :    2 Ag 0.0000000
  LUNO+1 :    3 Ag 0.0000000
  LUNO+2 :    4 Ag 0.0000000
  LUNO+3 :    3B3u 0.0000000

Computation Completed

Properties will be evaluated at   0.000000,   0.000000,   0.000000 [a0]

Properties computed using the B3LYP density matrix

 Multipole Moments:

 ------------------------------------------------------------------------------------
     Multipole            Electronic (a.u.)      Nuclear  (a.u.)        Total (a.u.)
 ------------------------------------------------------------------------------------

 L = 1.  Multiply by 2.5417464519 to convert [e a0] to [Debye]
 Dipole X            :          0.0000000            0.0000000            0.0000000
 Dipole Y            :          0.0000000            0.0000000            0.0000000
 Dipole Z            :          0.0000000            0.0000000            0.0000000
 Magnitude           :                                                    0.0000000

 L = 2.  Multiply by 1.3450342976 to convert [e a0^2] to [Debye ang]
 Quadrupole XX       :         -0.5261433            0.0000000           -0.5261433
 Quadrupole XY       :          0.0000000            0.0000000            0.0000000
 Quadrupole XZ       :          0.0000000            0.0000000            0.0000000
 Quadrupole YY       :         -0.5261433            0.0000000           -0.5261433
 Quadrupole YZ       :          0.0000000            0.0000000            0.0000000
 Quadrupole ZZ       :         -0.7700113            1.0601496            0.2901383
 Traceless XX        :          0.0812893           -0.3533832           -0.2720939
 Traceless YY        :          0.0812893           -0.3533832           -0.2720939
 Traceless ZZ        :         -0.1625786            0.7067664            0.5441877

 ------------------------------------------------------------------------------------
  ==> Computing MBIS Charges <==

  Electron Count from Grid (Expected Number):  1.00000 ( 1.00000)
  Difference: -0.00000

  MBIS Charges: (a.u.)
   Center  Symbol  Z      Pop.       Charge
      1       H    1    0.500000    0.500000
      2       H    1    0.500000    0.500000

  MBIS Dipoles: [e a0]
   Center  Symbol  Z        X           Y           Z
      1       H    1    0.000000    0.000000   -0.073068
      2       H    1    0.000000   -0.000000    0.073068

  MBIS Quadrupoles: [e a0^2]
   Center  Symbol  Z      XX        XY        XZ        YY        YZ        ZZ
      1       H    1   -0.2631    0.0000    0.0000   -0.2631   -0.0000   -0.2264
      2       H    1   -0.2631    0.0000    0.0000   -0.2631    0.0000   -0.2264

  MBIS Octupoles: [e a0^3]
   Center  Symbol  Z      XXX       XXY       XXZ       XYY       XYZ       XZZ       YYY       YYZ       YZZ       ZZZ
      1       H    1    0.0000    0.0000   -0.0398    0.0000   -0.0000   -0.0000    0.0000   -0.0398    0.0000   -0.0714
      2       H    1   -0.0000    0.0000    0.0398   -0.0000    0.0000   -0.0000    0.0000    0.0398    0.0000    0.0714

  MBIS Radial Moments:
   Center  Symbol  Z      [a0^2]      [a0^3]      [a0^4]
      1       H    1    0.752508    1.291586    2.635815
      2       H    1    0.752508    1.291586    2.635815

  MBIS Valence Widths: [a0]
   Center  Symbol  Z     Width
      1       H    1    0.359228
      2       H    1    0.359228

*** tstop() called on Mac.lan at Sun Aug 10 18:11:27 2025
Module time:
	user time   =       0.53 seconds =       0.01 minutes
	system time =       1.22 seconds =       0.02 minutes
	total time  =          0 seconds =       0.00 minutes
Total time:
	user time   =       1.44 seconds =       0.02 minutes
	system time =       3.35 seconds =       0.06 minutes
	total time  =          1 seconds =       0.02 minutes

    Psi4 stopped on: Sunday, 10 August 2025 06:11PM
    Psi4 wall time for execution: 0:00:00.71

*** Psi4 exiting successfully. Buy a developer a beer!
