                               Psi4 1.9.1 release

  ==> Input File <==

--------------------------------------------------------------------------
molecule {
1 3
O           0.000000           0.000000           0.000000
H           0.000000           0.000000           0.909065
}

set {
basis              cc-pvtz
reference          uks
maxiter            500
DAMPING_PERCENTAGE 1
E_CONVERGENCE      1.0E-8
D_CONVERGENCE      1.0E-8
DIIS_MAX_VECS      400
MBIS_MAXITER       8000
guess              read
}

E, wfn = energy('b3lyp', restart_file='last_wfn', return_wfn=True)
properties('b3lyp','MBIS_CHARGES', wfn=wfn)
wfn.to_file('last_wfn')
--------------------------------------------------------------------------

    Molecular point group: c2v
  Charge       = 1
  Multiplicity = 3
  Basis Set: CC-PVTZ
    Blend: CC-PVTZ
  Basis Set: (CC-PVTZ AUX)
    Blend: CC-PVTZ-JKFIT
  @DF-UKS Final Energy:   -75.26766612361500
    Total Energy =                        -75.2676661236150011
 Dipole X            :          0.0000000            0.0000000            0.0000000
 Dipole Y            :          0.0000000            0.0000000            0.0000000
 Dipole Z            :         -0.0145447            0.8014470            0.7869023
 Magnitude           :                                                    0.7869023
    Molecular point group: c2v

    Geometry (in Angstrom), charge = 1, multiplicity = 3:

       Center              X                  Y                   Z               Mass
    ------------   -----------------  -----------------  -----------------  -----------------
         O            0.000000000000     0.000000000000    -0.053884167004    15.994914619570
         H            0.000000000000     0.000000000000     0.855180832996     1.007825032230

  Charge       = 1
  Multiplicity = 3
  Basis Set: CC-PVTZ
    Blend: CC-PVTZ
  Basis Set: (CC-PVTZ AUX)
    Blend: CC-PVTZ-JKFIT

    Orbital Energies [Eh]
    ---------------------

    Alpha Occupied:

       1A1   -19.828400     2A1    -1.610963     3A1    -1.015397
       1B2    -0.966018     1B1    -0.966018

    Alpha Virtual:

       4A1    -0.278830     5A1     0.031742     2B1     0.135189
       2B2     0.135189     6A1     0.155024     3B1     0.325017
       3B2     0.325017     7A1     0.450504     8A1     0.910087
       1A2     0.910087     9A1     0.927807     4B1     1.311713
       4B2     1.311713    10A1     1.415881    11A1     2.025448
      12A1     2.765295     2A2     2.765296     5B1     2.837667
       5B2     2.837667     6B1     3.132680     6B2     3.132680
      13A1     3.299786     7B1     3.653443     7B2     3.653443
      14A1     3.932973    15A1     4.220541     8B1     4.485933
       8B2     4.485933    16A1     4.868908     3A2     4.868908
       4A2     5.515810    17A1     5.515810     9B2     5.768365
       9B1     5.768365    18A1     5.992546    10B1     6.246211
      10B2     6.246211    19A1     6.548767    20A1    10.208649

    Beta Occupied:

       1A1   -19.772408     2A1    -1.463106     3A1    -0.957186

    Beta Virtual:

       1B2    -0.662298     1B1    -0.662298     4A1    -0.263314
       5A1     0.044230     6A1     0.167291     2B1     0.204777
       2B2     0.204777     3B1     0.340155     3B2     0.340155
       7A1     0.498152     8A1     0.951882     9A1     1.022003
       1A2     1.022003     4B1     1.364908     4B2     1.364908
      10A1     1.445636    11A1     2.040142     2A2     2.781540
      12A1     2.781540     5B2     2.921013     5B1     2.921013
       6B1     3.184938     6B2     3.184938    13A1     3.310482
       7B1     3.693018     7B2     3.693018    14A1     3.988386
      15A1     4.279159     8B1     4.638319     8B2     4.638319
      16A1     4.965749     3A2     4.965749     4A2     5.727315
      17A1     5.727316     9B2     5.877946     9B1     5.877946
      18A1     6.042897    10B1     6.304741    10B2     6.304741
      19A1     6.601578    20A1    10.279165

    Final Occupation by Irrep:
             A1    A2    B1    B2
    DOCC [     3,    0,    0,    0 ]
    SOCC [     0,    0,    1,    1 ]
    NA   [     3,    0,    1,    1 ]
    NB   [     3,    0,    0,    0 ]

  @DF-UKS Final Energy:   -75.26766612361784

   => Energetics <=

    Nuclear Repulsion Energy =              4.6568921753229970
    One-Electron Energy =                -108.3064740108686692
    Two-Electron Energy =                  35.2883147663580772
    DFT Exchange-Correlation Energy =      -6.9063990544302323
    Empirical Dispersion Energy =           0.0000000000000000
    VV10 Nonlocal Energy =                  0.0000000000000000
    Total Energy =                        -75.2676661236178290

  UHF NO Occupations:
  HONO-2 :    3 A1 1.9984977
  HONO-1 :    1 B1 1.0000000
  HONO-0 :    1 B2 1.0000000
  LUNO+0 :    4 A1 0.0015023
  LUNO+1 :    5 A1 0.0004800
  LUNO+2 :    6 A1 0.0000015
  LUNO+3 :    7 A1 0.0000000

Computation Completed

Properties will be evaluated at   0.000000,   0.000000,   0.000000 [a0]

Properties computed using the B3LYP density matrix

 Multipole Moments:

 ------------------------------------------------------------------------------------
     Multipole            Electronic (a.u.)      Nuclear  (a.u.)        Total (a.u.)
 ------------------------------------------------------------------------------------

 L = 1.  Multiply by 2.5417464519 to convert [e a0] to [Debye]
 Dipole X            :          0.0000000            0.0000000            0.0000000
 Dipole Y            :          0.0000000            0.0000000            0.0000000
 Dipole Z            :         -0.0145447            0.8014470            0.7869023
 Magnitude           :                                                    0.7869023

 L = 2.  Multiply by 1.3450342976 to convert [e a0^2] to [Debye ang]
 Quadrupole XX       :         -2.9696571            0.0000000           -2.9696571
 Quadrupole XY       :          0.0000000            0.0000000            0.0000000
 Quadrupole XZ       :          0.0000000            0.0000000            0.0000000
 Quadrupole YY       :         -2.9696571            0.0000000           -2.9696571
 Quadrupole YZ       :          0.0000000            0.0000000            0.0000000
 Quadrupole ZZ       :         -4.6363643            2.6945908           -1.9417735
 Traceless XX        :          0.5555691           -0.8981969           -0.3426279
 Traceless YY        :          0.5555691           -0.8981969           -0.3426279
 Traceless ZZ        :         -1.1111381            1.7963939            0.6852558

 ------------------------------------------------------------------------------------
  ==> Computing MBIS Charges <==

  Electron Count from Grid (Expected Number):  8.00000 ( 8.00000)
  Difference: -0.00000

  MBIS Charges: (a.u.)
   Center  Symbol  Z      Pop.       Charge
      1       O    8    7.492175    0.507825
      2       H    1    0.507825    0.492175

  MBIS Dipoles: [e a0]
   Center  Symbol  Z        X           Y           Z
      1       O    8    0.000000   -0.000000    0.000228
      2       H    1   -0.000000   -0.000000    0.043000

  MBIS Quadrupoles: [e a0^2]
   Center  Symbol  Z      XX        XY        XZ        YY        YZ        ZZ
      1       O    8   -2.7857   -0.0000    0.0000   -2.7857   -0.0000   -3.1926
      2       H    1   -0.1840    0.0000   -0.0000   -0.1840   -0.0000   -0.1788

  MBIS Octupoles: [e a0^3]
   Center  Symbol  Z      XXX       XXY       XXZ       XYY       XYZ       XZZ       YYY       YYZ       YZZ       ZZZ
      1       O    8    0.0000   -0.0000    0.0151    0.0000   -0.0000   -0.0000   -0.0000    0.0151   -0.0000   -0.0108
      2       H    1   -0.0000   -0.0000    0.0053    0.0000    0.0000   -0.0000   -0.0000    0.0053   -0.0000    0.0233

  MBIS Radial Moments:
   Center  Symbol  Z      [a0^2]      [a0^3]      [a0^4]
      1       O    8    8.763894   14.799278   29.949315
      2       H    1    0.546781    0.803597    1.415473

  MBIS Valence Widths: [a0]
   Center  Symbol  Z     Width
      1       O    8    0.354734
      2       H    1    0.303026

*** tstop() called on Mac.lan at Sun Aug 10 18:28:40 2025
Module time:
	user time   =       2.88 seconds =       0.05 minutes
	system time =       2.18 seconds =       0.04 minutes
	total time  =          0 seconds =       0.00 minutes
Total time:
	user time   =      12.91 seconds =       0.22 minutes
	system time =       4.10 seconds =       0.07 minutes
	total time  =          1 seconds =       0.02 minutes

    Psi4 stopped on: Sunday, 10 August 2025 06:28PM
    Psi4 wall time for execution: 0:00:01.66

*** Psi4 exiting successfully. Buy a developer a beer!
