                               Psi4 1.9.1 release

  ==> Input File <==

--------------------------------------------------------------------------
molecule {
1 2
O           0.000000           0.000000           0.000000
O           0.000000           0.000000           0.684108
}

set {
basis              cc-pvtz
reference          uks
maxiter            500
DAMPING_PERCENTAGE 1
E_CONVERGENCE      1.0E-8
D_CONVERGENCE      1.0E-8
DIIS_MAX_VECS      400
MBIS_MAXITER       8000
guess              read
}

E, wfn = energy('b3lyp', restart_file='last_wfn', return_wfn=True)
properties('b3lyp','MBIS_CHARGES', wfn=wfn)
wfn.to_file('last_wfn')
--------------------------------------------------------------------------

    Molecular point group: d2h
  Charge       = 1
  Multiplicity = 2
  Basis Set: CC-PVTZ
    Blend: CC-PVTZ
  Basis Set: (CC-PVTZ AUX)
    Blend: CC-PVTZ-JKFIT
  @DF-UKS Final Energy:  -148.46107005841660
    Total Energy =                       -148.4610700584166239
 Dipole X            :          0.0000000            0.0000000            0.0000000
 Dipole Y            :          0.0000000            0.0000000            0.0000000
 Dipole Z            :          0.0000000            0.0000000            0.0000000
 Magnitude           :                                                    0.0000000
    Molecular point group: d2h

    Geometry (in Angstrom), charge = 1, multiplicity = 2:

       Center              X                  Y                   Z               Mass
    ------------   -----------------  -----------------  -----------------  -----------------
         O            0.000000000000     0.000000000000    -0.342054000000    15.994914619570
         O            0.000000000000     0.000000000000     0.342054000000    15.994914619570

  Charge       = 1
  Multiplicity = 2
  Basis Set: CC-PVTZ
    Blend: CC-PVTZ
  Basis Set: (CC-PVTZ AUX)
    Blend: CC-PVTZ-JKFIT

    Orbital Energies [Eh]
    ---------------------

    Alpha Occupied:

       1Ag   -19.845366     1B1u  -19.797695     2Ag    -2.382350
       1B3u   -1.447633     1B2u   -1.430917     3Ag    -1.155623
       2B1u   -1.139484     1B2g   -0.434386

    Alpha Virtual:

       1B3g   -0.313896     2B2u    0.028074     2B3u    0.030977
       3B1u    0.039754     4Ag     0.133306     5Ag     0.258949
       2B2g    0.335541     2B3g    0.353323     1B1g    0.650279
       6Ag     0.651655     4B1u    0.828939     5B1u    1.231589
       3B3u    1.296248     3B2u    1.303084     1Au     1.429038
       6B1u    1.431293     7Ag     1.556760     3B2g    1.848241
       3B3g    1.859549     4B2u    2.693188     4B3u    2.694190
       7B1u    3.225728     8Ag     3.676408     4B2g    3.727409
       4B3g    3.737084     5B3u    3.982344     5B2u    3.982488
       8B1u    4.156238     2B1g    4.214404     9Ag     4.215717
       6B3u    4.870737     6B2u    4.874715    10Ag     5.166744
       5B2g    5.189968     5B3g    5.190213     6B2g    5.369376
       6B3g    5.372508     2Au     5.416852     9B1u    5.419842
       3B1g    5.539033    11Ag     5.541874    12Ag     5.591854
      10B1u    6.396725     7B2u    6.828764     7B3u    6.830948
       3Au     7.213148    11B1u    7.215175    12B1u    9.228312
       7B2g    9.773073     7B3g    9.776643    13Ag    11.180301
      13B1u   34.810798

    Beta Occupied:

       1Ag   -19.832215     1B1u  -19.784253     2Ag    -2.368271
       1B2u   -1.420027     1B3u   -1.374881     3Ag    -1.124922
       2B1u   -1.094265

    Beta Virtual:

       1B3g   -0.297998     1B2g   -0.255647     2B2u    0.030626
       3B1u    0.046571     2B3u    0.050203     4Ag     0.137273
       5Ag     0.272384     2B3g    0.360187     2B2g    0.382783
       1B1g    0.671024     6Ag     0.671319     4B1u    0.847619
       5B1u    1.253180     3B2u    1.308879     3B3u    1.341617
       1Au     1.468216     6B1u    1.468914     7Ag     1.563935
       3B3g    1.865853     3B2g    1.890554     4B2u    2.700618
       4B3u    2.736826     7B1u    3.243052     8Ag     3.689362
       4B3g    3.748190     4B2g    3.786220     5B2u    4.007850
       5B3u    4.007868     8B1u    4.187991     2B1g    4.232653
       9Ag     4.233245     6B2u    4.880981     6B3u    4.918692
      10Ag     5.184073     5B3g    5.230491     5B2g    5.230560
       6B3g    5.377731     6B2g    5.412760     9B1u    5.465096
       2Au     5.465419    11Ag     5.583428     3B1g    5.585663
      12Ag     5.608470    10B1u    6.414933     7B2u    6.833341
       7B3u    6.868762     3Au     7.248876    11B1u    7.249031
      12B1u    9.242804     7B3g    9.784707     7B2g    9.824194
      13Ag    11.206281    13B1u   34.826506

    Final Occupation by Irrep:
             Ag   B1g   B2g   B3g    Au   B1u   B2u   B3u
    DOCC [     3,    0,    0,    0,    0,    2,    1,    1 ]
    SOCC [     0,    0,    1,    0,    0,    0,    0,    0 ]
    NA   [     3,    0,    1,    0,    0,    2,    1,    1 ]
    NB   [     3,    0,    0,    0,    0,    2,    1,    1 ]

  @DF-UKS Final Energy:  -148.46107005771347

   => Energetics <=

    Nuclear Repulsion Energy =             49.5058404270670778
    One-Electron Energy =                -291.1400065930110941
    Two-Electron Energy =                 107.3549324426491864
    DFT Exchange-Correlation Energy =     -14.1818363344186764
    Empirical Dispersion Energy =           0.0000000000000000
    VV10 Nonlocal Energy =                  0.0000000000000000
    Total Energy =                       -148.4610700577134992

  UHF NO Occupations:
  HONO-2 :    1B3u 1.9998446
  HONO-1 :    2B1u 1.9998302
  HONO-0 :    1B2g 1.0000000
  LUNO+0 :    3B1u 0.0001698
  LUNO+1 :    2B3u 0.0001554
  LUNO+2 :    4 Ag 0.0001167
  LUNO+3 :    2B2u 0.0000094

Computation Completed

Properties will be evaluated at   0.000000,   0.000000,   0.000000 [a0]

Properties computed using the B3LYP density matrix

 Multipole Moments:

 ------------------------------------------------------------------------------------
     Multipole            Electronic (a.u.)      Nuclear  (a.u.)        Total (a.u.)
 ------------------------------------------------------------------------------------

 L = 1.  Multiply by 2.5417464519 to convert [e a0] to [Debye]
 Dipole X            :          0.0000000            0.0000000            0.0000000
 Dipole Y            :          0.0000000            0.0000000            0.0000000
 Dipole Z            :          0.0000000            0.0000000            0.0000000
 Magnitude           :                                                    0.0000000

 L = 2.  Multiply by 1.3450342976 to convert [e a0^2] to [Debye ang]
 Quadrupole XX       :         -5.5263972            0.0000000           -5.5263972
 Quadrupole XY       :          0.0000000            0.0000000            0.0000000
 Quadrupole XZ       :          0.0000000            0.0000000            0.0000000
 Quadrupole YY       :         -4.7699232            0.0000000           -4.7699232
 Quadrupole YZ       :          0.0000000            0.0000000            0.0000000
 Quadrupole ZZ       :        -12.4945510            6.6850870           -5.8094640
 Traceless XX        :          2.0705599           -2.2283623           -0.1578024
 Traceless YY        :          2.8270340           -2.2283623            0.5986716
 Traceless ZZ        :         -4.8975939            4.4567247           -0.4408692

 ------------------------------------------------------------------------------------
  ==> Computing MBIS Charges <==

  Electron Count from Grid (Expected Number): 15.00000 (15.00000)
  Difference:  0.00000

  MBIS Charges: (a.u.)
   Center  Symbol  Z      Pop.       Charge
      1       O    8    7.500001    0.499999
      2       O    8    7.500001    0.499999

  MBIS Dipoles: [e a0]
   Center  Symbol  Z        X           Y           Z
      1       O    8   -0.000000   -0.000000    0.131018
      2       O    8   -0.000000    0.000000   -0.131018

  MBIS Quadrupoles: [e a0^2]
   Center  Symbol  Z      XX        XY        XZ        YY        YZ        ZZ
      1       O    8   -2.7632    0.0000    0.0000   -2.3850   -0.0000   -2.9443
      2       O    8   -2.7632    0.0000    0.0000   -2.3850    0.0000   -2.9443

  MBIS Octupoles: [e a0^3]
   Center  Symbol  Z      XXX       XXY       XXZ       XYY       XYZ       XZZ       YYY       YYZ       YZZ       ZZZ
      1       O    8   -0.0000   -0.0000    0.3178   -0.0000   -0.0000    0.0000    0.0000    0.1348    0.0000    0.2420
      2       O    8   -0.0000   -0.0000   -0.3178    0.0000   -0.0000   -0.0000    0.0000   -0.1348    0.0000   -0.2420

  MBIS Radial Moments:
   Center  Symbol  Z      [a0^2]      [a0^3]      [a0^4]
      1       O    8    8.092424   13.455596   27.235230
      2       O    8    8.092424   13.455596   27.235230

  MBIS Valence Widths: [a0]
   Center  Symbol  Z     Width
      1       O    8    0.336849
      2       O    8    0.336849

*** tstop() called on Mac.lan at Sun Aug 10 18:13:19 2025
Module time:
	user time   =       4.20 seconds =       0.07 minutes
	system time =       2.10 seconds =       0.03 minutes
	total time  =          1 seconds =       0.02 minutes
Total time:
	user time   =      15.94 seconds =       0.27 minutes
	system time =       4.53 seconds =       0.08 minutes
	total time  =          2 seconds =       0.03 minutes

    Psi4 stopped on: Sunday, 10 August 2025 06:13PM
    Psi4 wall time for execution: 0:00:01.99

*** Psi4 exiting successfully. Buy a developer a beer!
