                               Psi4 1.9.1 release

  ==> Input File <==

--------------------------------------------------------------------------
molecule {
1 2
H           0.000000           0.000000           0.000000
H           0.000000           0.000000           0.831919
}

set {
basis              cc-pvtz
reference          uks
maxiter            500
DAMPING_PERCENTAGE 1
E_CONVERGENCE      1.0E-8
D_CONVERGENCE      1.0E-8
DIIS_MAX_VECS      400
MBIS_MAXITER       8000
guess              read
}

E, wfn = energy('b3lyp', restart_file='last_wfn', return_wfn=True)
properties('b3lyp','MBIS_CHARGES', wfn=wfn)
wfn.to_file('last_wfn')
--------------------------------------------------------------------------

    Molecular point group: d2h
  Charge       = 1
  Multiplicity = 2
  Basis Set: CC-PVTZ
    Blend: CC-PVTZ
  Basis Set: (CC-PVTZ AUX)
    Blend: CC-PVTZ-JKFIT
  @DF-UKS Final Energy:    -0.59205505626896
    Total Energy =                         -0.5920550562689568
 Dipole X            :          0.0000000            0.0000000            0.0000000
 Dipole Y            :          0.0000000            0.0000000            0.0000000
 Dipole Z            :          0.0000000            0.0000000            0.0000000
 Magnitude           :                                                    0.0000000
    Molecular point group: d2h

    Geometry (in Angstrom), charge = 1, multiplicity = 2:

       Center              X                  Y                   Z               Mass
    ------------   -----------------  -----------------  -----------------  -----------------
         H            0.000000000000     0.000000000000    -0.415959500000     1.007825032230
         H            0.000000000000     0.000000000000     0.415959500000     1.007825032230

  Charge       = 1
  Multiplicity = 2
  Basis Set: CC-PVTZ
    Blend: CC-PVTZ
  Basis Set: (CC-PVTZ AUX)
    Blend: CC-PVTZ-JKFIT

    Orbital Energies [Eh]
    ---------------------

    Alpha Occupied:

       1Ag    -1.013138

    Alpha Virtual:

       1B1u   -0.355891     2Ag    -0.114340     1B3u    0.042224
       1B2u    0.042224     2B1u    0.067304     3Ag     0.465484
       1B3g    0.512213     1B2g    0.512213     3B1u    0.977898
       4B1u    1.559074     4Ag     1.570771     1B1g    2.335050
       5Ag     2.335050     2B3u    2.427904     2B2u    2.427904
       6Ag     2.723236     2B3g    3.118861     2B2g    3.118861
       1Au     3.174419     5B1u    3.174419     3B3u    3.186775
       3B2u    3.186775     6B1u    3.566565     3B3g    4.516367
       3B2g    4.516367     7Ag     4.557495     7B1u    5.566511

    Beta Occupied:

    Beta Virtual:

       1Ag    -0.619319     1B1u   -0.204763     2Ag    -0.025815
       1B2u    0.187219     1B3u    0.187219     2B1u    0.198613
       3Ag     0.588027     1B3g    0.616698     1B2g    0.616698
       3B1u    1.057138     4B1u    1.833083     4Ag     1.862697
       1B1g    2.533865     5Ag     2.533865     2B3u    2.689518
       2B2u    2.689518     6Ag     2.997506     2B3g    3.345114
       2B2g    3.345114     1Au     3.359755     5B1u    3.359755
       3B2u    3.405686     3B3u    3.405686     6B1u    3.774670
       3B2g    4.740716     3B3g    4.740716     7Ag     4.805712
       7B1u    5.905534

    Final Occupation by Irrep:
             Ag   B1g   B2g   B3g    Au   B1u   B2u   B3u
    DOCC [     0,    0,    0,    0,    0,    0,    0,    0 ]
    SOCC [     1,    0,    0,    0,    0,    0,    0,    0 ]
    NA   [     1,    0,    0,    0,    0,    0,    0,    0 ]
    NB   [     0,    0,    0,    0,    0,    0,    0,    0 ]

  @DF-UKS Final Energy:    -0.59205505632016

   => Energetics <=

    Nuclear Repulsion Energy =              0.6360922285342684
    One-Electron Energy =                  -1.2239141245492946
    Two-Electron Energy =                   0.2959730127399868
    DFT Exchange-Correlation Energy =      -0.3002061730451240
    Empirical Dispersion Energy =           0.0000000000000000
    VV10 Nonlocal Energy =                  0.0000000000000000
    Total Energy =                         -0.5920550563201634

  UHF NO Occupations:
  HONO-0 :    1 Ag 1.0000000
  LUNO+0 :    2 Ag 0.0000000
  LUNO+1 :    3 Ag 0.0000000
  LUNO+2 :    4 Ag 0.0000000
  LUNO+3 :    5 Ag 0.0000000

Computation Completed

Properties will be evaluated at   0.000000,   0.000000,   0.000000 [a0]

Properties computed using the B3LYP density matrix

 Multipole Moments:

 ------------------------------------------------------------------------------------
     Multipole            Electronic (a.u.)      Nuclear  (a.u.)        Total (a.u.)
 ------------------------------------------------------------------------------------

 L = 1.  Multiply by 2.5417464519 to convert [e a0] to [Debye]
 Dipole X            :          0.0000000            0.0000000            0.0000000
 Dipole Y            :          0.0000000            0.0000000            0.0000000
 Dipole Z            :          0.0000000            0.0000000            0.0000000
 Magnitude           :                                                    0.0000000

 L = 2.  Multiply by 1.3450342976 to convert [e a0^2] to [Debye ang]
 Quadrupole XX       :         -0.5490190            0.0000000           -0.5490190
 Quadrupole XY       :          0.0000000            0.0000000            0.0000000
 Quadrupole XZ       :          0.0000000            0.0000000            0.0000000
 Quadrupole YY       :         -0.5490190            0.0000000           -0.5490190
 Quadrupole YZ       :          0.0000000            0.0000000            0.0000000
 Quadrupole ZZ       :         -0.8428327            1.2357477            0.3929150
 Traceless XX        :          0.0979379           -0.4119159           -0.3139780
 Traceless YY        :          0.0979379           -0.4119159           -0.3139780
 Traceless ZZ        :         -0.1958758            0.8238318            0.6279560

 ------------------------------------------------------------------------------------
  ==> Computing MBIS Charges <==

  Electron Count from Grid (Expected Number):  1.00000 ( 1.00000)
  Difference:  0.00000

  MBIS Charges: (a.u.)
   Center  Symbol  Z      Pop.       Charge
      1       H    1    0.500000    0.500000
      2       H    1    0.500000    0.500000

  MBIS Dipoles: [e a0]
   Center  Symbol  Z        X           Y           Z
      1       H    1   -0.000000   -0.000000   -0.081081
      2       H    1   -0.000000   -0.000000    0.081081

  MBIS Quadrupoles: [e a0^2]
   Center  Symbol  Z      XX        XY        XZ        YY        YZ        ZZ
      1       H    1   -0.2745    0.0000    0.0000   -0.2745    0.0000   -0.2399
      2       H    1   -0.2745    0.0000   -0.0000   -0.2745   -0.0000   -0.2399

  MBIS Octupoles: [e a0^3]
   Center  Symbol  Z      XXX       XXY       XXZ       XYY       XYZ       XZZ       YYY       YYZ       YZZ       ZZZ
      1       H    1   -0.0000   -0.0000   -0.0464   -0.0000   -0.0000   -0.0000   -0.0000   -0.0464   -0.0000   -0.0848
      2       H    1   -0.0000   -0.0000    0.0464   -0.0000    0.0000   -0.0000   -0.0000    0.0464   -0.0000    0.0848

  MBIS Radial Moments:
   Center  Symbol  Z      [a0^2]      [a0^3]      [a0^4]
      1       H    1    0.788966    1.382782    2.880541
      2       H    1    0.788966    1.382782    2.880541

  MBIS Valence Widths: [a0]
   Center  Symbol  Z     Width
      1       H    1    0.368255
      2       H    1    0.368255

*** tstop() called on Mac.lan at Sun Aug 10 18:11:23 2025
Module time:
	user time   =       0.56 seconds =       0.01 minutes
	system time =       1.24 seconds =       0.02 minutes
	total time  =          0 seconds =       0.00 minutes
Total time:
	user time   =       1.36 seconds =       0.02 minutes
	system time =       3.47 seconds =       0.06 minutes
	total time  =          0 seconds =       0.00 minutes

    Psi4 stopped on: Sunday, 10 August 2025 06:11PM
    Psi4 wall time for execution: 0:00:00.72

*** Psi4 exiting successfully. Buy a developer a beer!
