                               Psi4 1.9.1 release

  ==> Input File <==

--------------------------------------------------------------------------
molecule {
1 3
N           0.000000           0.000000           0.000000
C           0.000000           0.000000           1.078246
}

set {
basis              cc-pvtz
reference          uks
maxiter            500
DAMPING_PERCENTAGE 1
E_CONVERGENCE      1.0E-8
D_CONVERGENCE      1.0E-8
DIIS_MAX_VECS      400
MBIS_MAXITER       8000
guess              read
}

E, wfn = energy('b3lyp', restart_file='last_wfn', return_wfn=True)
properties('b3lyp','MBIS_CHARGES', wfn=wfn)
wfn.to_file('last_wfn')
--------------------------------------------------------------------------

    Molecular point group: c2v
  Charge       = 1
  Multiplicity = 3
  Basis Set: CC-PVTZ
    Blend: CC-PVTZ
  Basis Set: (CC-PVTZ AUX)
    Blend: CC-PVTZ-JKFIT
  @DF-UKS Final Energy:   -92.18257705864974
    Total Energy =                        -92.1825770586497413
 Dipole X            :          0.0000000            0.0000000            0.0000000
 Dipole Y            :          0.0000000            0.0000000            0.0000000
 Dipole Z            :          0.8096868            0.0014453            0.8111321
 Magnitude           :                                                    0.8111321
    Molecular point group: c2v

    Geometry (in Angstrom), charge = 1, multiplicity = 3:

       Center              X                  Y                   Z               Mass
    ------------   -----------------  -----------------  -----------------  -----------------
         N            0.000000000000     0.000000000000    -0.497593169092    14.003074004430
         C            0.000000000000     0.000000000000     0.580652830908    12.000000000000

  Charge       = 1
  Multiplicity = 3
  Basis Set: CC-PVTZ
    Blend: CC-PVTZ
  Basis Set: (CC-PVTZ AUX)
    Blend: CC-PVTZ-JKFIT

    Orbital Energies [Eh]
    ---------------------

    Alpha Occupied:

       1A1   -14.822679     2A1   -10.746098     3A1    -1.467545
       4A1    -0.883543     1B1    -0.878615     1B2    -0.832571
       5A1    -0.803063

    Alpha Virtual:

       2B1    -0.396675     2B2    -0.362924     6A1    -0.099487
       3B1    -0.022371     3B2    -0.011327     7A1    -0.010697
       8A1     0.150295     4B1     0.209000     4B2     0.225683
       1A2     0.252055     9A1     0.252403    10A1     0.312431
       5B1     0.490217     5B2     0.512470    11A1     0.575578
       2A2     0.811103    12A1     0.811964    13A1     1.007433
       6B1     1.183084     6B2     1.205699    14A1     1.432182
       7B1     1.516307     7B2     1.540735    15A1     1.855300
       8B1     2.194346     8B2     2.194564    16A1     2.306695
       3A2     2.311814    17A1     2.338093     9B1     2.389362
       9B2     2.416560     4A2     2.496946    18A1     2.497064
      10B1     2.531120    10B2     2.568155    19A1     2.742849
      11B1     3.035378    11B2     3.065066    12B1     3.524876
      12B2     3.525029    20A1     3.713507    21A1     4.019862
       5A2     4.020035     6A2     4.214123    22A1     4.214831
      13B1     4.425487    13B2     4.460047    23A1     4.685278
      24A1     5.005077    14B1     5.320019    14B2     5.354972
      25A1     6.045288    26A1    13.570624

    Beta Occupied:

       1A1   -14.808130     2A1   -10.717605     3A1    -1.398939
       1B2    -0.808071     4A1    -0.797859

    Beta Virtual:

       1B1    -0.687798     5A1    -0.609846     2B2    -0.323595
       2B1    -0.292150     6A1    -0.082301     3B2    -0.002236
       3B1     0.005299     7A1     0.030901     8A1     0.164811
       4B2     0.229994     4B1     0.238867     1A2     0.287728
       9A1     0.290850    10A1     0.379412     5B2     0.547737
       5B1     0.553324    11A1     0.595368     2A2     0.840280
      12A1     0.843091    13A1     1.066705     6B2     1.219858
       6B1     1.223906    14A1     1.472273     7B2     1.565275
       7B1     1.575350    15A1     1.917935     8B2     2.246951
       8B1     2.248799     3A2     2.357832    16A1     2.361515
      17A1     2.391246     9B2     2.481230     9B1     2.499924
       4A2     2.584388    18A1     2.591900    10B2     2.601309
      10B1     2.617335    19A1     2.851347    11B2     3.106088
      11B1     3.116450    12B2     3.564121    12B1     3.565428
      20A1     3.763388     5A2     4.071170    21A1     4.078599
       6A2     4.249977    22A1     4.252991    13B2     4.475200
      13B1     4.484045    23A1     4.730050    24A1     5.038527
      14B2     5.385011    14B1     5.396850    25A1     6.081055
      26A1    13.611038

    Final Occupation by Irrep:
             A1    A2    B1    B2
    DOCC [     4,    0,    0,    1 ]
    SOCC [     1,    0,    1,    0 ]
    NA   [     5,    0,    1,    1 ]
    NB   [     4,    0,    0,    1 ]

  @DF-UKS Final Energy:   -92.18257705753405

   => Energetics <=

    Nuclear Repulsion Energy =             20.6125901214936107
    One-Electron Energy =                -159.6769775177375550
    Two-Electron Energy =                  56.5307692344222090
    DFT Exchange-Correlation Energy =      -9.6489588957123100
    Empirical Dispersion Energy =           0.0000000000000000
    VV10 Nonlocal Energy =                  0.0000000000000000
    Total Energy =                        -92.1825770575340471

  UHF NO Occupations:
  HONO-2 :    1 B2 1.9984323
  HONO-1 :    1 B1 1.0000000
  HONO-0 :    5 A1 1.0000000
  LUNO+0 :    2 B2 0.0015677
  LUNO+1 :    6 A1 0.0004879
  LUNO+2 :    7 A1 0.0002630
  LUNO+3 :    8 A1 0.0000005

Computation Completed

Properties will be evaluated at   0.000000,   0.000000,   0.000000 [a0]

Properties computed using the B3LYP density matrix

 Multipole Moments:

 ------------------------------------------------------------------------------------
     Multipole            Electronic (a.u.)      Nuclear  (a.u.)        Total (a.u.)
 ------------------------------------------------------------------------------------

 L = 1.  Multiply by 2.5417464519 to convert [e a0] to [Debye]
 Dipole X            :          0.0000000            0.0000000            0.0000000
 Dipole Y            :          0.0000000            0.0000000            0.0000000
 Dipole Z            :          0.8096868            0.0014453            0.8111321
 Magnitude           :                                                    0.8111321

 L = 2.  Multiply by 1.3450342976 to convert [e a0^2] to [Debye ang]
 Quadrupole XX       :         -5.4381108            0.0000000           -5.4381108
 Quadrupole XY       :          0.0000000            0.0000000            0.0000000
 Quadrupole XZ       :          0.0000000            0.0000000            0.0000000
 Quadrupole YY       :         -6.3590447            0.0000000           -6.3590447
 Quadrupole YZ       :          0.0000000            0.0000000            0.0000000
 Quadrupole ZZ       :        -18.4566785           13.4134159           -5.0432627
 Traceless XX        :          4.6465005           -4.4711386            0.1753619
 Traceless YY        :          3.7255666           -4.4711386           -0.7455720
 Traceless ZZ        :         -8.3720672            8.9422772            0.5702101

 ------------------------------------------------------------------------------------
  ==> Computing MBIS Charges <==

  Electron Count from Grid (Expected Number): 12.00000 (12.00000)
  Difference: -0.00000

  MBIS Charges: (a.u.)
   Center  Symbol  Z      Pop.       Charge
      1       N    7    6.851166    0.148834
      2       C    6    5.148834    0.851166

  MBIS Dipoles: [e a0]
   Center  Symbol  Z        X           Y           Z
      1       N    7   -0.000000   -0.000000   -0.098163
      2       C    6   -0.000000    0.000000    0.115283

  MBIS Quadrupoles: [e a0^2]
   Center  Symbol  Z      XX        XY        XZ        YY        YZ        ZZ
      1       N    7   -3.0596    0.0000   -0.0000   -3.5755   -0.0000   -3.8112
      2       C    6   -2.3786    0.0000   -0.0000   -2.7836    0.0000   -2.8261

  MBIS Octupoles: [e a0^3]
   Center  Symbol  Z      XXX       XXY       XXZ       XYY       XYZ       XZZ       YYY       YYZ       YZZ       ZZZ
      1       N    7   -0.0000   -0.0000   -0.0257   -0.0000    0.0000   -0.0000   -0.0000   -0.1776    0.0000   -0.1180
      2       C    6   -0.0000   -0.0000   -0.0201   -0.0000    0.0000   -0.0000    0.0000    0.1016    0.0000    0.0437

  MBIS Radial Moments:
   Center  Symbol  Z      [a0^2]      [a0^3]      [a0^4]
      1       N    7   10.446203   20.284533   47.015294
      2       C    6    7.988229   16.362691   40.078216

  MBIS Valence Widths: [a0]
   Center  Symbol  Z     Width
      1       N    7    0.411441
      2       C    6    0.437979

*** tstop() called on Mac.lan at Sun Aug 10 18:32:51 2025
Module time:
	user time   =       3.93 seconds =       0.07 minutes
	system time =       2.45 seconds =       0.04 minutes
	total time  =          1 seconds =       0.02 minutes
Total time:
	user time   =      21.87 seconds =       0.36 minutes
	system time =       4.85 seconds =       0.08 minutes
	total time  =          3 seconds =       0.05 minutes

    Psi4 stopped on: Sunday, 10 August 2025 06:32PM
    Psi4 wall time for execution: 0:00:02.70

*** Psi4 exiting successfully. Buy a developer a beer!
