                               Psi4 1.9.1 release

  ==> Input File <==

--------------------------------------------------------------------------
molecule {
1 3
N           0.000000           0.000000           0.000000
C           0.000000           0.000000           1.462796
}

set {
basis              cc-pvtz
reference          uks
maxiter            500
DAMPING_PERCENTAGE 1
E_CONVERGENCE      1.0E-8
D_CONVERGENCE      1.0E-8
DIIS_MAX_VECS      400
MBIS_MAXITER       8000
guess              read
}

E, wfn = energy('b3lyp', restart_file='last_wfn', return_wfn=True)
properties('b3lyp','MBIS_CHARGES', wfn=wfn)
wfn.to_file('last_wfn')
--------------------------------------------------------------------------

    Molecular point group: c2v
  Charge       = 1
  Multiplicity = 3
  Basis Set: CC-PVTZ
    Blend: CC-PVTZ
  Basis Set: (CC-PVTZ AUX)
    Blend: CC-PVTZ-JKFIT
  @DF-UKS Final Energy:   -92.18644374496920
    Total Energy =                        -92.1864437449691962
 Dipole X            :          0.0000000            0.0000000            0.0000000
 Dipole Y            :          0.0000000            0.0000000            0.0000000
 Dipole Z            :          0.6150455            0.0019607            0.6170062
 Magnitude           :                                                    0.6170062
    Molecular point group: c2v

    Geometry (in Angstrom), charge = 1, multiplicity = 3:

       Center              X                  Y                   Z               Mass
    ------------   -----------------  -----------------  -----------------  -----------------
         N            0.000000000000     0.000000000000    -0.675056802785    14.003074004430
         C            0.000000000000     0.000000000000     0.787739197215    12.000000000000

  Charge       = 1
  Multiplicity = 3
  Basis Set: CC-PVTZ
    Blend: CC-PVTZ
  Basis Set: (CC-PVTZ AUX)
    Blend: CC-PVTZ-JKFIT

    Orbital Energies [Eh]
    ---------------------

    Alpha Occupied:

       1A1   -14.867084     2A1   -10.790170     3A1    -1.285187
       4A1    -0.931579     5A1    -0.777386     1B1    -0.762746
       1B2    -0.722640

    Alpha Virtual:

       2B1    -0.496991     2B2    -0.466860     6A1    -0.201384
       7A1    -0.007693     3B1     0.011882     3B2     0.022257
       8A1     0.024709     9A1     0.151856     4B1     0.191037
       4B2     0.208596     1A2     0.297239    10A1     0.297674
       5B1     0.376573     5B2     0.397964    11A1     0.558599
      12A1     0.723019     2A2     0.732458    13A1     0.733453
       6B1     1.032938     6B2     1.054756    14A1     1.245200
       7B1     1.571792     7B2     1.592551    15A1     1.769281
       8B1     2.209109     8B2     2.236469     3A2     2.246002
      16A1     2.246018     9B1     2.259573     9B2     2.259781
      17A1     2.434323    10B1     2.499077     4A2     2.511921
      18A1     2.512593    10B2     2.528058    19A1     2.634378
      11B1     2.812383    11B2     2.837659    20A1     2.862100
      12B1     3.466803    12B2     3.466925    21A1     3.654020
       5A2     3.654634    22A1     3.910430    23A1     4.027953
       6A2     4.028131    13B1     4.038642    13B2     4.073508
      24A1     4.432953    14B1     4.531608    14B2     4.560447
      25A1     5.074542    26A1     7.610442

    Beta Occupied:

       1A1   -14.840025     2A1   -10.775743     3A1    -1.209256
       4A1    -0.837397     1B2    -0.695751

    Beta Virtual:

       5A1    -0.601085     1B1    -0.589409     2B2    -0.441989
       2B1    -0.401446     6A1    -0.144831     7A1     0.016947
       3B2     0.023524     3B1     0.029840     8A1     0.061272
       9A1     0.180242     4B2     0.221006     4B1     0.232198
       1A2     0.315285    10A1     0.317295     5B2     0.425884
       5B1     0.432467    11A1     0.590795    12A1     0.764574
       2A2     0.772447    13A1     0.775163     6B2     1.083939
       6B1     1.090350    14A1     1.291108     7B2     1.596560
       7B1     1.606495    15A1     1.823060     8B2     2.263082
       8B1     2.278003     9B2     2.279712     9B1     2.280577
       3A2     2.280969    16A1     2.283449    17A1     2.493282
       4A2     2.541583    18A1     2.546011    10B2     2.563707
      10B1     2.580410    19A1     2.691727    11B2     2.884042
      11B1     2.893036    20A1     2.933279    12B2     3.523343
      12B1     3.524586     5A2     3.711064    21A1     3.714744
      22A1     3.965434     6A2     4.103425    23A1     4.109768
      13B2     4.119188    13B1     4.139676    24A1     4.504039
      14B2     4.607400    14B1     4.617764    25A1     5.126294
      26A1     7.651316

    Final Occupation by Irrep:
             A1    A2    B1    B2
    DOCC [     4,    0,    0,    1 ]
    SOCC [     1,    0,    1,    0 ]
    NA   [     5,    0,    1,    1 ]
    NB   [     4,    0,    0,    1 ]

  @DF-UKS Final Energy:   -92.18644374806033

   => Energetics <=

    Nuclear Repulsion Energy =             15.1938088757010554
    One-Electron Energy =                -149.4903718224101681
    Two-Electron Energy =                  51.5060473405572452
    DFT Exchange-Correlation Energy =      -9.3959281419084455
    Empirical Dispersion Energy =           0.0000000000000000
    VV10 Nonlocal Energy =                  0.0000000000000000
    Total Energy =                        -92.1864437480603129

  UHF NO Occupations:
  HONO-2 :    1 B2 1.9956590
  HONO-1 :    5 A1 1.0000000
  HONO-0 :    1 B1 1.0000000
  LUNO+0 :    2 B2 0.0043410
  LUNO+1 :    6 A1 0.0029413
  LUNO+2 :    7 A1 0.0003914
  LUNO+3 :    8 A1 0.0000006

Computation Completed

Properties will be evaluated at   0.000000,   0.000000,   0.000000 [a0]

Properties computed using the B3LYP density matrix

 Multipole Moments:

 ------------------------------------------------------------------------------------
     Multipole            Electronic (a.u.)      Nuclear  (a.u.)        Total (a.u.)
 ------------------------------------------------------------------------------------

 L = 1.  Multiply by 2.5417464519 to convert [e a0] to [Debye]
 Dipole X            :          0.0000000            0.0000000            0.0000000
 Dipole Y            :          0.0000000            0.0000000            0.0000000
 Dipole Z            :          0.6150463            0.0019607            0.6170071
 Magnitude           :                                                    0.6170071

 L = 2.  Multiply by 1.3450342976 to convert [e a0^2] to [Debye ang]
 Quadrupole XX       :         -6.0419667            0.0000000           -6.0419667
 Quadrupole XY       :          0.0000000            0.0000000            0.0000000
 Quadrupole XZ       :          0.0000000            0.0000000            0.0000000
 Quadrupole YY       :         -7.1605279            0.0000000           -7.1605279
 Quadrupole YZ       :          0.0000000            0.0000000            0.0000000
 Quadrupole ZZ       :        -28.5602690           24.6871642           -3.8731047
 Traceless XX        :          7.8789545           -8.2290547           -0.3501002
 Traceless YY        :          6.7603933           -8.2290547           -1.4686615
 Traceless ZZ        :        -14.6393478           16.4581095            1.8187617

 ------------------------------------------------------------------------------------
  ==> Computing MBIS Charges <==

  Electron Count from Grid (Expected Number): 12.00000 (12.00000)
  Difference:  0.00000

  MBIS Charges: (a.u.)
   Center  Symbol  Z      Pop.       Charge
      1       N    7    6.726929    0.273071
      2       C    6    5.273071    0.726929

  MBIS Dipoles: [e a0]
   Center  Symbol  Z        X           Y           Z
      1       N    7   -0.000000   -0.000000   -0.253153
      2       C    6   -0.000000   -0.000000    0.136395

  MBIS Quadrupoles: [e a0^2]
   Center  Symbol  Z      XX        XY        XZ        YY        YZ        ZZ
      1       N    7   -3.2579   -0.0000   -0.0000   -3.8265   -0.0000   -3.6741
      2       C    6   -2.7841   -0.0000   -0.0000   -3.3340    0.0000   -3.3062

  MBIS Octupoles: [e a0^3]
   Center  Symbol  Z      XXX       XXY       XXZ       XYY       XYZ       XZZ       YYY       YYZ       YZZ       ZZZ
      1       N    7   -0.0000    0.0000   -0.1990    0.0000   -0.0000   -0.0000   -0.0000   -0.3674   -0.0000   -0.8443
      2       C    6   -0.0000    0.0000    0.1437   -0.0000   -0.0000   -0.0000    0.0000    0.3264    0.0000    0.5449

  MBIS Radial Moments:
   Center  Symbol  Z      [a0^2]      [a0^3]      [a0^4]
      1       N    7   10.758519   21.504690   51.226006
      2       C    6    9.424268   20.576612   53.457197

  MBIS Valence Widths: [a0]
   Center  Symbol  Z     Width
      1       N    7    0.423911
      2       C    6    0.471410

*** tstop() called on Mac.lan at Sun Aug 10 18:34:25 2025
Module time:
	user time   =       3.64 seconds =       0.06 minutes
	system time =       2.50 seconds =       0.04 minutes
	total time  =          0 seconds =       0.00 minutes
Total time:
	user time   =      21.31 seconds =       0.36 minutes
	system time =       5.21 seconds =       0.09 minutes
	total time  =          2 seconds =       0.03 minutes

    Psi4 stopped on: Sunday, 10 August 2025 06:34PM
    Psi4 wall time for execution: 0:00:02.59

*** Psi4 exiting successfully. Buy a developer a beer!
