                               Psi4 1.9.1 release

  ==> Input File <==

--------------------------------------------------------------------------
molecule {
1 4
C           0.000000           0.000000           0.000000
C           0.000000           0.000000           1.865028
}

set {
basis              cc-pvtz
reference          uks
maxiter            500
DAMPING_PERCENTAGE 1
E_CONVERGENCE      1.0E-8
D_CONVERGENCE      1.0E-8
DIIS_MAX_VECS      400
MBIS_MAXITER       8000
guess              read
}

E, wfn = energy('b3lyp', restart_file='last_wfn', return_wfn=True)
properties('b3lyp','MBIS_CHARGES', wfn=wfn)
wfn.to_file('last_wfn')
--------------------------------------------------------------------------

    Molecular point group: d2h
  Charge       = 1
  Multiplicity = 4
  Basis Set: CC-PVTZ
    Blend: CC-PVTZ
  Basis Set: (CC-PVTZ AUX)
    Blend: CC-PVTZ-JKFIT
  @DF-UKS Final Energy:   -75.44274298904662
    Total Energy =                        -75.4427429890466215
 Dipole X            :          0.0000000            0.0000000            0.0000000
 Dipole Y            :          0.0000000            0.0000000            0.0000000
 Dipole Z            :          0.0000000           -0.0000000           -0.0000000
 Magnitude           :                                                    0.0000000
    Molecular point group: d2h

    Geometry (in Angstrom), charge = 1, multiplicity = 4:

       Center              X                  Y                   Z               Mass
    ------------   -----------------  -----------------  -----------------  -----------------
         C            0.000000000000     0.000000000000    -0.932514000000    12.000000000000
         C            0.000000000000     0.000000000000     0.932514000000    12.000000000000

  Charge       = 1
  Multiplicity = 4
  Basis Set: CC-PVTZ
    Blend: CC-PVTZ
  Basis Set: (CC-PVTZ AUX)
    Blend: CC-PVTZ-JKFIT

    Orbital Energies [Eh]
    ---------------------

    Alpha Occupied:

       1Ag   -10.723484     1B1u  -10.723349     2Ag    -1.038435
       2B1u   -0.866115     3Ag    -0.668060     1B3u   -0.625284
       1B2u   -0.625284

    Alpha Virtual:

       1B2g   -0.478857     1B3g   -0.478857     3B1u   -0.325949
       4B1u    0.018700     2B3u    0.022271     2B2u    0.022271
       4Ag     0.048520     5Ag     0.061091     2B2g    0.094169
       2B3g    0.094169     3B3u    0.270465     3B2u    0.270465
       6Ag     0.279161     1B1g    0.279161     5B1u    0.330935
       6B1u    0.445882     1Au     0.445882     7Ag     0.635036
       3B2g    0.709127     3B3g    0.709127     7B1u    0.838396
       4B3u    1.511719     4B2u    1.511719     8Ag     1.544540
       4B2g    1.631902     4B3g    1.631902     8B1u    2.027865
       5B2u    2.067415     5B3u    2.067415     9Ag     2.077736
      10Ag     2.120870     2B1g    2.120870     6B2u    2.268001
       6B3u    2.268001     5B3g    2.327233     5B2g    2.327233
       9B1u    2.459723     2Au     2.459726    11Ag     2.511410
       3B1g    2.511417     6B2g    2.598764     6B3g    2.598764
       7B3u    2.628710     7B2u    2.628710    10B1u    2.637539
       3Au     2.637545    11B1u    2.688098    12Ag     2.996175
      12B1u    3.130083     7B3g    3.143616     7B2g    3.143616
      13Ag     3.598751    13B1u    4.692659

    Beta Occupied:

       1Ag   -10.699464     1B1u  -10.699452     2Ag    -0.945790
       2B1u   -0.756184

    Beta Virtual:

       3Ag    -0.504048     1B3u   -0.480535     1B2u   -0.480535
       1B2g   -0.380574     1B3g   -0.380574     3B1u   -0.240498
       4B1u    0.048719     2B3u    0.052126     2B2u    0.052126
       4Ag     0.085586     5Ag     0.086954     2B2g    0.116979
       2B3g    0.116979     1B1g    0.326401     6Ag     0.326401
       3B3u    0.327507     3B2u    0.327507     5B1u    0.360610
       1Au     0.490366     6B1u    0.490366     7Ag     0.695450
       3B2g    0.756494     3B3g    0.756494     7B1u    0.882291
       4B3u    1.567694     4B2u    1.567694     8Ag     1.603550
       4B2g    1.685996     4B3g    1.685996     8B1u    2.089255
       5B2u    2.128559     5B3u    2.128559     9Ag     2.138406
      10Ag     2.187907     2B1g    2.187908     6B2u    2.330945
       6B3u    2.330945     5B3g    2.389814     5B2g    2.389814
       9B1u    2.523368     2Au     2.523371    11Ag     2.590719
       3B1g    2.590727     6B2g    2.671729     6B3g    2.671729
       7B3u    2.712620     7B2u    2.712620    10B1u    2.717512
       3Au     2.717519    11B1u    2.764325    12Ag     3.069082
      12B1u    3.187637     7B3g    3.214739     7B2g    3.214739
      13Ag     3.652848    13B1u    4.740193

    Final Occupation by Irrep:
             Ag   B1g   B2g   B3g    Au   B1u   B2u   B3u
    DOCC [     2,    0,    0,    0,    0,    2,    0,    0 ]
    SOCC [     1,    0,    0,    0,    0,    0,    1,    1 ]
    NA   [     3,    0,    0,    0,    0,    2,    1,    1 ]
    NB   [     2,    0,    0,    0,    0,    2,    0,    0 ]

  @DF-UKS Final Energy:   -75.44274299073845

   => Energetics <=

    Nuclear Repulsion Energy =             10.2145273873207287
    One-Electron Energy =                -117.0674635993413517
    Two-Electron Energy =                  39.5502169221886533
    DFT Exchange-Correlation Energy =      -8.1400237009064877
    Empirical Dispersion Energy =           0.0000000000000000
    VV10 Nonlocal Energy =                  0.0000000000000000
    Total Energy =                        -75.4427429907384521

  UHF NO Occupations:
  HONO-2 :    3 Ag 1.0000000
  HONO-1 :    1B2u 1.0000000
  HONO-0 :    1B3u 1.0000000
  LUNO+0 :    3B1u 0.0021066
  LUNO+1 :    4 Ag 0.0001896
  LUNO+2 :    4B1u 0.0000008
  LUNO+3 :    5 Ag 0.0000006

Computation Completed

Properties will be evaluated at   0.000000,   0.000000,   0.000000 [a0]

Properties computed using the B3LYP density matrix

 Multipole Moments:

 ------------------------------------------------------------------------------------
     Multipole            Electronic (a.u.)      Nuclear  (a.u.)        Total (a.u.)
 ------------------------------------------------------------------------------------

 L = 1.  Multiply by 2.5417464519 to convert [e a0] to [Debye]
 Dipole X            :          0.0000000            0.0000000            0.0000000
 Dipole Y            :          0.0000000            0.0000000            0.0000000
 Dipole Z            :          0.0000000           -0.0000000           -0.0000000
 Magnitude           :                                                    0.0000000

 L = 2.  Multiply by 1.3450342976 to convert [e a0^2] to [Debye ang]
 Quadrupole XX       :         -6.9392289            0.0000000           -6.9392289
 Quadrupole XY       :          0.0000000            0.0000000            0.0000000
 Quadrupole XZ       :          0.0000000            0.0000000            0.0000000
 Quadrupole YY       :         -6.9392289            0.0000000           -6.9392289
 Quadrupole YZ       :          0.0000000            0.0000000            0.0000000
 Quadrupole ZZ       :        -40.3577984           37.2640198           -3.0937786
 Traceless XX        :         11.1395232          -12.4213399           -1.2818168
 Traceless YY        :         11.1395232          -12.4213399           -1.2818168
 Traceless ZZ        :        -22.2790463           24.8426799            2.5636335

 ------------------------------------------------------------------------------------
  ==> Computing MBIS Charges <==

  Electron Count from Grid (Expected Number): 11.00000 (11.00000)
  Difference: -0.00000

  MBIS Charges: (a.u.)
   Center  Symbol  Z      Pop.       Charge
      1       C    6    5.500000    0.500000
      2       C    6    5.500000    0.500000

  MBIS Dipoles: [e a0]
   Center  Symbol  Z        X           Y           Z
      1       C    6   -0.000000    0.000000   -0.191137
      2       C    6   -0.000000   -0.000000    0.191137

  MBIS Quadrupoles: [e a0^2]
   Center  Symbol  Z      XX        XY        XZ        YY        YZ        ZZ
      1       C    6   -3.4696    0.0000    0.0000   -3.4696   -0.0000   -3.7732
      2       C    6   -3.4696    0.0000   -0.0000   -3.4696    0.0000   -3.7732

  MBIS Octupoles: [e a0^3]
   Center  Symbol  Z      XXX       XXY       XXZ       XYY       XYZ       XZZ       YYY       YYZ       YZZ       ZZZ
      1       C    6   -0.0000   -0.0000   -0.3024   -0.0000   -0.0000   -0.0000    0.0000   -0.3024    0.0000   -0.9768
      2       C    6   -0.0000   -0.0000    0.3024   -0.0000    0.0000   -0.0000    0.0000    0.3024    0.0000    0.9768

  MBIS Radial Moments:
   Center  Symbol  Z      [a0^2]      [a0^3]      [a0^4]
      1       C    6   10.712427   24.287986   65.546851
      2       C    6   10.712427   24.287986   65.546851

  MBIS Valence Widths: [a0]
   Center  Symbol  Z     Width
      1       C    6    0.488351
      2       C    6    0.488351

*** tstop() called on Mac.lan at Sun Aug 10 18:23:21 2025
Module time:
	user time   =       4.04 seconds =       0.07 minutes
	system time =       1.66 seconds =       0.03 minutes
	total time  =          1 seconds =       0.02 minutes
Total time:
	user time   =      15.00 seconds =       0.25 minutes
	system time =       3.87 seconds =       0.06 minutes
	total time  =          2 seconds =       0.03 minutes

    Psi4 stopped on: Sunday, 10 August 2025 06:23PM
    Psi4 wall time for execution: 0:00:01.84

*** Psi4 exiting successfully. Buy a developer a beer!
