                               Psi4 1.9.1 release

  ==> Input File <==

--------------------------------------------------------------------------
molecule {
1 1
C           0.000000           0.000000           0.000000
H           0.000000           0.000000           1.642437
}

set {
basis              cc-pvtz
reference          uks
maxiter            500
DAMPING_PERCENTAGE 1
E_CONVERGENCE      1.0E-8
D_CONVERGENCE      1.0E-8
DIIS_MAX_VECS      400
MBIS_MAXITER       8000
guess              read
}

E, wfn = energy('b3lyp', restart_file='last_wfn', return_wfn=True)
properties('b3lyp','MBIS_CHARGES', wfn=wfn)
wfn.to_file('last_wfn')
--------------------------------------------------------------------------

    Molecular point group: c2v
  Charge       = 1
  Multiplicity = 1
  Basis Set: CC-PVTZ
    Blend: CC-PVTZ
  Basis Set: (CC-PVTZ AUX)
    Blend: CC-PVTZ-JKFIT
  @DF-UKS Final Energy:   -38.03674719582747
    Total Energy =                        -38.0367471958274734
 Dipole X            :          0.0000000            0.0000000            0.0000000
 Dipole Y            :          0.0000000            0.0000000            0.0000000
 Dipole Z            :         -0.5986397            1.4204384            0.8217987
 Magnitude           :                                                    0.8217987
    Molecular point group: c2v

    Geometry (in Angstrom), charge = 1, multiplicity = 1:

       Center              X                  Y                   Z               Mass
    ------------   -----------------  -----------------  -----------------  -----------------
         C            0.000000000000     0.000000000000    -0.127253335462    12.000000000000
         H            0.000000000000     0.000000000000     1.515183664538     1.007825032230

  Charge       = 1
  Multiplicity = 1
  Basis Set: CC-PVTZ
    Blend: CC-PVTZ
  Basis Set: (CC-PVTZ AUX)
    Blend: CC-PVTZ-JKFIT

    Orbital Energies [Eh]
    ---------------------

    Alpha Occupied:

       1A1   -10.802307     2A1    -0.960193     3A1    -0.669618

    Alpha Virtual:

       1B1    -0.526339     1B2    -0.526339     4A1    -0.366933
       5A1    -0.006562     2B2     0.012636     2B1     0.012636
       6A1     0.041379     7A1     0.150987     3B1     0.221553
       3B2     0.221553     8A1     0.335765     1A2     0.335765
       9A1     0.471260     4B1     0.578899     4B2     0.578899
      10A1     0.884289     5B2     1.526618     5B1     1.526618
      11A1     1.657989    12A1     2.065450     6B2     2.184384
       6B1     2.184384    13A1     2.214587    14A1     2.247843
       2A2     2.247843     7B1     2.265890     7B2     2.265890
      15A1     2.497623     3A2     2.497623     8B2     2.550920
       8B1     2.550920    16A1     2.814699    17A1     2.908218
       4A2     2.908230     9B2     3.199240     9B1     3.199240
      18A1     3.240142    10B2     3.481054    10B1     3.481054
      19A1     3.655635    20A1     4.620359

    Beta Occupied:

       1A1   -10.802307     2A1    -0.960193     3A1    -0.669618

    Beta Virtual:

       1B1    -0.526339     1B2    -0.526339     4A1    -0.366933
       5A1    -0.006562     2B2     0.012636     2B1     0.012636
       6A1     0.041379     7A1     0.150987     3B1     0.221553
       3B2     0.221553     8A1     0.335765     1A2     0.335765
       9A1     0.471260     4B1     0.578899     4B2     0.578899
      10A1     0.884289     5B2     1.526618     5B1     1.526618
      11A1     1.657989    12A1     2.065450     6B2     2.184384
       6B1     2.184384    13A1     2.214587    14A1     2.247843
       2A2     2.247843     7B2     2.265890     7B1     2.265890
      15A1     2.497623     3A2     2.497623     8B1     2.550920
       8B2     2.550920    16A1     2.814699    17A1     2.908218
       4A2     2.908230     9B2     3.199240     9B1     3.199240
      18A1     3.240142    10B1     3.481054    10B2     3.481054
      19A1     3.655635    20A1     4.620359

    Final Occupation by Irrep:
             A1    A2    B1    B2
    DOCC [     3,    0,    0,    0 ]
    SOCC [     0,    0,    0,    0 ]
    NA   [     3,    0,    0,    0 ]
    NB   [     3,    0,    0,    0 ]

  @DF-UKS Final Energy:   -38.03674719580584

   => Energetics <=

    Nuclear Repulsion Energy =              1.9331415841338211
    One-Electron Energy =                 -52.0558650793309496
    Two-Electron Energy =                  16.2603127243381280
    DFT Exchange-Correlation Energy =      -4.1743364249468362
    Empirical Dispersion Energy =           0.0000000000000000
    VV10 Nonlocal Energy =                  0.0000000000000000
    Total Energy =                        -38.0367471958058374

  UHF NO Occupations:
  HONO-2 :    1 A1 2.0000000
  HONO-1 :    2 A1 2.0000000
  HONO-0 :    3 A1 2.0000000
  LUNO+0 :    4 A1 0.0000000
  LUNO+1 :    5 A1 0.0000000
  LUNO+2 :    6 A1 0.0000000
  LUNO+3 :    7 A1 0.0000000

Computation Completed

Properties will be evaluated at   0.000000,   0.000000,   0.000000 [a0]

Properties computed using the B3LYP density matrix

 Multipole Moments:

 ------------------------------------------------------------------------------------
     Multipole            Electronic (a.u.)      Nuclear  (a.u.)        Total (a.u.)
 ------------------------------------------------------------------------------------

 L = 1.  Multiply by 2.5417464519 to convert [e a0] to [Debye]
 Dipole X            :          0.0000000            0.0000000            0.0000000
 Dipole Y            :          0.0000000            0.0000000            0.0000000
 Dipole Z            :         -0.5986397            1.4204384            0.8217987
 Magnitude           :                                                    0.8217987

 L = 2.  Multiply by 1.3450342976 to convert [e a0^2] to [Debye ang]
 Quadrupole XX       :         -3.2050646            0.0000000           -3.2050646
 Quadrupole XY       :          0.0000000            0.0000000            0.0000000
 Quadrupole XZ       :          0.0000000            0.0000000            0.0000000
 Quadrupole YY       :         -3.2050646            0.0000000           -3.2050646
 Quadrupole YZ       :          0.0000000            0.0000000            0.0000000
 Quadrupole ZZ       :        -10.1603589            8.5453510           -1.6150079
 Traceless XX        :          2.3184314           -2.8484503           -0.5300189
 Traceless YY        :          2.3184314           -2.8484503           -0.5300189
 Traceless ZZ        :         -4.6368629            5.6969007            1.0600378

 ------------------------------------------------------------------------------------
  ==> Computing MBIS Charges <==

  Electron Count from Grid (Expected Number):  6.00000 ( 6.00000)
  Difference: -0.00000

  MBIS Charges: (a.u.)
   Center  Symbol  Z      Pop.       Charge
      1       C    6    5.260287    0.739713
      2       H    1    0.739713    0.260287

  MBIS Dipoles: [e a0]
   Center  Symbol  Z        X           Y           Z
      1       C    6    0.000000    0.000000    0.082934
      2       H    1    0.000000    0.000000    0.171471

  MBIS Quadrupoles: [e a0^2]
   Center  Symbol  Z      XX        XY        XZ        YY        YZ        ZZ
      1       C    6   -2.6592    0.0000    0.0000   -2.6592    0.0000   -4.1694
      2       H    1   -0.5459    0.0000    0.0000   -0.5459    0.0000   -0.5643

  MBIS Octupoles: [e a0^3]
   Center  Symbol  Z      XXX       XXY       XXZ       XYY       XYZ       XZZ       YYY       YYZ       YZZ       ZZZ
      1       C    6    0.0000    0.0000    0.0726   -0.0000    0.0000    0.0000   -0.0000    0.0726   -0.0000    0.1246
      2       H    1    0.0000    0.0000    0.0821    0.0000   -0.0000    0.0000   -0.0000    0.0821    0.0000    0.2836

  MBIS Radial Moments:
   Center  Symbol  Z      [a0^2]      [a0^3]      [a0^4]
      1       C    6    9.487864   20.718627   53.775503
      2       H    1    1.656036    3.406981    8.304560

  MBIS Valence Widths: [a0]
   Center  Symbol  Z     Width
      1       C    6    0.474979
      2       H    1    0.441263

*** tstop() called on Mac.lan at Sun Aug 10 18:27:54 2025
Module time:
	user time   =       2.33 seconds =       0.04 minutes
	system time =       2.05 seconds =       0.03 minutes
	total time  =          1 seconds =       0.02 minutes
Total time:
	user time   =      10.85 seconds =       0.18 minutes
	system time =       4.15 seconds =       0.07 minutes
	total time  =          2 seconds =       0.03 minutes

    Psi4 stopped on: Sunday, 10 August 2025 06:27PM
    Psi4 wall time for execution: 0:00:01.48

*** Psi4 exiting successfully. Buy a developer a beer!
