                               Psi4 1.9.1 release

  ==> Input File <==

--------------------------------------------------------------------------
molecule {
1 3
N           0.000000           0.000000           0.000000
C           0.000000           0.000000           1.802104
}

set {
basis              cc-pvtz
reference          uks
maxiter            500
DAMPING_PERCENTAGE 1
E_CONVERGENCE      1.0E-8
D_CONVERGENCE      1.0E-8
DIIS_MAX_VECS      400
MBIS_MAXITER       8000
guess              read
}

E, wfn = energy('b3lyp', restart_file='last_wfn', return_wfn=True)
properties('b3lyp','MBIS_CHARGES', wfn=wfn)
wfn.to_file('last_wfn')
--------------------------------------------------------------------------

    Molecular point group: c2v
  Charge       = 1
  Multiplicity = 3
  Basis Set: CC-PVTZ
    Blend: CC-PVTZ
  Basis Set: (CC-PVTZ AUX)
    Blend: CC-PVTZ-JKFIT
  @DF-UKS Final Energy:   -92.11573370399239
    Total Energy =                        -92.1157337039924045
 Dipole X            :          0.0000000            0.0000000            0.0000000
 Dipole Y            :          0.0000000            0.0000000            0.0000000
 Dipole Z            :          0.5492250            0.0024155            0.5516405
 Magnitude           :                                                    0.5516405
    Molecular point group: c2v

    Geometry (in Angstrom), charge = 1, multiplicity = 3:

       Center              X                  Y                   Z               Mass
    ------------   -----------------  -----------------  -----------------  -----------------
         N            0.000000000000     0.000000000000    -0.831641981879    14.003074004430
         C            0.000000000000     0.000000000000     0.970462018121    12.000000000000

  Charge       = 1
  Multiplicity = 3
  Basis Set: CC-PVTZ
    Blend: CC-PVTZ
  Basis Set: (CC-PVTZ AUX)
    Blend: CC-PVTZ-JKFIT

    Orbital Energies [Eh]
    ---------------------

    Alpha Occupied:

       1A1   -14.841752     2A1   -10.758423     3A1    -1.196967
       4A1    -0.913926     5A1    -0.728710     1B1    -0.716405
       1B2    -0.706536

    Alpha Virtual:

       2B1    -0.493159     2B2    -0.442618     6A1    -0.371537
       7A1     0.016921     3B1     0.034960     3B2     0.055768
       8A1     0.068656     9A1     0.166154     4B1     0.180167
       4B2     0.188499     5B1     0.344490    10A1     0.354129
       1A2     0.354445     5B2     0.366485    11A1     0.484475
      12A1     0.687677     2A2     0.694971    13A1     0.695608
       6B1     0.913846     6B2     0.929170    14A1     1.094904
       7B1     1.572712     7B2     1.614989    15A1     1.828085
      16A1     2.186149     8B1     2.222799     8B2     2.247518
       3A2     2.294740    17A1     2.297658     9B1     2.323418
       9B2     2.323989    10B1     2.494595    10B2     2.514476
      18A1     2.566000     4A2     2.570412    19A1     2.650466
      11B1     2.653837    11B2     2.692539    20A1     3.121687
      21A1     3.369370    12B1     3.460733    12B2     3.460736
       5A2     3.494607    22A1     3.494727    13B1     3.690808
      13B2     3.701997    23A1     3.980626     6A2     3.981184
      24A1     3.987212    14B1     4.243472    14B2     4.252646
      25A1     4.947653    26A1     5.623247

    Beta Occupied:

       1A1   -14.790963     2A1   -10.765533     3A1    -1.072878
       4A1    -0.872414     1B2    -0.644541

    Beta Virtual:

       5A1    -0.558359     1B1    -0.532804     2B2    -0.443410
       2B1    -0.421817     6A1    -0.294782     3B2     0.027870
       7A1     0.034854     3B1     0.040857     8A1     0.075820
       9A1     0.206607     4B2     0.238300     4B1     0.239299
       1A2     0.328908    10A1     0.333864     5B2     0.375159
       5B1     0.384191    11A1     0.531837    12A1     0.724789
       2A2     0.775023    13A1     0.775523     6B2     0.980189
       6B1     0.982521    14A1     1.156835     7B2     1.549088
       7B1     1.576563    15A1     1.868492    16A1     2.221887
       8B2     2.267193     8B1     2.276126     9B2     2.277029
       3A2     2.280051     9B1     2.281160    17A1     2.286772
       4A2     2.508890    18A1     2.520703    10B2     2.567873
      10B1     2.578623    11B2     2.694440    19A1     2.702110
      11B1     2.712212    20A1     3.164211    21A1     3.406692
      12B2     3.576059    12B1     3.576083     5A2     3.598235
      22A1     3.598623    13B2     3.792288    13B1     3.794273
      23A1     4.087479     6A2     4.139568    24A1     4.140061
      14B2     4.377682    14B1     4.379559    25A1     5.029742
      26A1     5.708487

    Final Occupation by Irrep:
             A1    A2    B1    B2
    DOCC [     4,    0,    0,    1 ]
    SOCC [     1,    0,    1,    0 ]
    NA   [     5,    0,    1,    1 ]
    NB   [     4,    0,    0,    1 ]

  @DF-UKS Final Energy:   -92.11573370043202

   => Energetics <=

    Nuclear Repulsion Energy =             12.3330522811891008
    One-Electron Energy =                -144.1183413680532794
    Two-Electron Energy =                  49.0575084581484120
    DFT Exchange-Correlation Energy =      -9.3879530717162627
    Empirical Dispersion Energy =           0.0000000000000000
    VV10 Nonlocal Energy =                  0.0000000000000000
    Total Energy =                        -92.1157337004320169

  UHF NO Occupations:
  HONO-2 :    1 B2 1.5489267
  HONO-1 :    5 A1 1.0000000
  HONO-0 :    1 B1 1.0000000
  LUNO+0 :    2 B2 0.4510733
  LUNO+1 :    6 A1 0.0089153
  LUNO+2 :    7 A1 0.0007888
  LUNO+3 :    8 A1 0.0000015

Computation Completed

Properties will be evaluated at   0.000000,   0.000000,   0.000000 [a0]

Properties computed using the B3LYP density matrix

 Multipole Moments:

 ------------------------------------------------------------------------------------
     Multipole            Electronic (a.u.)      Nuclear  (a.u.)        Total (a.u.)
 ------------------------------------------------------------------------------------

 L = 1.  Multiply by 2.5417464519 to convert [e a0] to [Debye]
 Dipole X            :          0.0000000            0.0000000            0.0000000
 Dipole Y            :          0.0000000            0.0000000            0.0000000
 Dipole Z            :          0.5492252            0.0024155            0.5516407
 Magnitude           :                                                    0.5516407

 L = 2.  Multiply by 1.3450342976 to convert [e a0^2] to [Debye ang]
 Quadrupole XX       :         -6.2054200            0.0000000           -6.2054200
 Quadrupole XY       :          0.0000000            0.0000000            0.0000000
 Quadrupole XZ       :          0.0000000            0.0000000            0.0000000
 Quadrupole YY       :         -7.3778166            0.0000000           -7.3778166
 Quadrupole YZ       :          0.0000000            0.0000000            0.0000000
 Quadrupole ZZ       :        -40.2169037           37.4682474           -2.7486563
 Traceless XX        :         11.7279601          -12.4894158           -0.7614557
 Traceless YY        :         10.5555635          -12.4894158           -1.9338523
 Traceless ZZ        :        -22.2835236           24.9788316            2.6953080

 ------------------------------------------------------------------------------------
  ==> Computing MBIS Charges <==

  Electron Count from Grid (Expected Number): 12.00000 (12.00000)
  Difference: -0.00000

  MBIS Charges: (a.u.)
   Center  Symbol  Z      Pop.       Charge
      1       N    7    6.660766    0.339234
      2       C    6    5.339233    0.660767

  MBIS Dipoles: [e a0]
   Center  Symbol  Z        X           Y           Z
      1       N    7   -0.000000   -0.000000   -0.226259
      2       C    6   -0.000000    0.000000    0.099245

  MBIS Quadrupoles: [e a0^2]
   Center  Symbol  Z      XX        XY        XZ        YY        YZ        ZZ
      1       N    7   -3.4065   -0.0000   -0.0000   -3.6341   -0.0000   -3.5044
      2       C    6   -2.7989    0.0000    0.0000   -3.7437    0.0000   -3.3796

  MBIS Octupoles: [e a0^3]
   Center  Symbol  Z      XXX       XXY       XXZ       XYY       XYZ       XZZ       YYY       YYZ       YZZ       ZZZ
      1       N    7   -0.0000   -0.0000   -0.1474   -0.0000    0.0000    0.0000   -0.0000   -0.3124   -0.0000   -0.8722
      2       C    6   -0.0000   -0.0000    0.1775    0.0000    0.0000    0.0000    0.0000    0.2219    0.0000    0.7213

  MBIS Radial Moments:
   Center  Symbol  Z      [a0^2]      [a0^3]      [a0^4]
      1       N    7   10.545011   21.093634   50.372824
      2       C    6    9.922217   22.115377   58.725691

  MBIS Valence Widths: [a0]
   Center  Symbol  Z     Width
      1       N    7    0.422016
      2       C    6    0.479736

*** tstop() called on Mac.lan at Sun Aug 10 18:35:12 2025
Module time:
	user time   =       4.33 seconds =       0.07 minutes
	system time =       2.39 seconds =       0.04 minutes
	total time  =          0 seconds =       0.00 minutes
Total time:
	user time   =      19.70 seconds =       0.33 minutes
	system time =       4.86 seconds =       0.08 minutes
	total time  =          2 seconds =       0.03 minutes

    Psi4 stopped on: Sunday, 10 August 2025 06:35PM
    Psi4 wall time for execution: 0:00:02.44

*** Psi4 exiting successfully. Buy a developer a beer!
