                               Psi4 1.9.1 release

  ==> Input File <==

--------------------------------------------------------------------------
molecule {
1 1
O           0.000000           0.000000           0.000000
N           0.000000           0.000000           1.275184
}

set {
basis              cc-pvtz
reference          uks
maxiter            500
DAMPING_PERCENTAGE 1
E_CONVERGENCE      1.0E-8
D_CONVERGENCE      1.0E-8
DIIS_MAX_VECS      400
MBIS_MAXITER       8000
guess              read
}

E, wfn = energy('b3lyp', restart_file='last_wfn', return_wfn=True)
properties('b3lyp','MBIS_CHARGES', wfn=wfn)
wfn.to_file('last_wfn')
--------------------------------------------------------------------------

    Molecular point group: c2v
  Charge       = 1
  Multiplicity = 1
  Basis Set: CC-PVTZ
    Blend: CC-PVTZ
  Basis Set: (CC-PVTZ AUX)
    Blend: CC-PVTZ-JKFIT
  @DF-UKS Final Energy:  -129.49925601454521
    Total Energy =                       -129.4992560145452103
 Dipole X            :          0.0000000            0.0000000            0.0000000
 Dipole Y            :          0.0000000            0.0000000            0.0000000
 Dipole Z            :          0.3492341           -0.0048351            0.3443990
 Magnitude           :                                                    0.3443990
    Molecular point group: c2v

    Geometry (in Angstrom), charge = 1, multiplicity = 1:

       Center              X                  Y                   Z               Mass
    ------------   -----------------  -----------------  -----------------  -----------------
         O            0.000000000000     0.000000000000    -0.595256440193    15.994914619570
         N            0.000000000000     0.000000000000     0.679927559807    14.003074004430

  Charge       = 1
  Multiplicity = 1
  Basis Set: CC-PVTZ
    Blend: CC-PVTZ
  Basis Set: (CC-PVTZ AUX)
    Blend: CC-PVTZ-JKFIT

    Orbital Energies [Eh]
    ---------------------

    Alpha Occupied:

       1A1   -19.765820     2A1   -15.004106     3A1    -1.604050
       4A1    -1.126648     5A1    -0.899551     1B1    -0.891313
       1B2    -0.891313

    Alpha Virtual:

       2B1    -0.570753     2B2    -0.570753     6A1    -0.211994
       7A1     0.069389     3B2     0.102947     3B1     0.102947
       8A1     0.145164     9A1     0.231008     4B2     0.282327
       4B1     0.282327     1A2     0.561284    10A1     0.561284
       5B1     0.674937     5B2     0.674937    11A1     0.825717
      12A1     1.110006     2A2     1.110006    13A1     1.181983
       6B2     1.552117     6B1     1.552117    14A1     1.736501
       7B2     2.370165     7B1     2.370165    15A1     2.605636
       8B2     3.042305     8B1     3.042305     3A2     3.324580
      16A1     3.324581     9B2     3.375472     9B1     3.375472
      17A1     3.543096    10B2     3.578848    10B1     3.578848
      18A1     3.761283     4A2     3.906550    19A1     3.906550
      20A1     4.126611    11B2     4.216446    11B1     4.216446
      12B1     4.626514    12B2     4.626514    21A1     4.913575
       5A2     4.913576    22A1     5.313539    13B1     5.628908
      13B2     5.628908    23A1     5.706054     6A2     5.706070
      24A1     6.132978    14B1     6.269586    14B2     6.269586
      25A1     6.854146    26A1    10.212726

    Beta Occupied:

       1A1   -19.765820     2A1   -15.004106     3A1    -1.604050
       4A1    -1.126648     5A1    -0.899551     1B1    -0.891313
       1B2    -0.891313

    Beta Virtual:

       2B1    -0.570753     2B2    -0.570753     6A1    -0.211994
       7A1     0.069389     3B2     0.102947     3B1     0.102947
       8A1     0.145164     9A1     0.231008     4B2     0.282327
       4B1     0.282327     1A2     0.561284    10A1     0.561284
       5B1     0.674937     5B2     0.674937    11A1     0.825717
      12A1     1.110006     2A2     1.110006    13A1     1.181983
       6B2     1.552117     6B1     1.552117    14A1     1.736501
       7B2     2.370165     7B1     2.370165    15A1     2.605636
       8B2     3.042305     8B1     3.042305     3A2     3.324580
      16A1     3.324581     9B2     3.375472     9B1     3.375472
      17A1     3.543096    10B2     3.578848    10B1     3.578848
      18A1     3.761283     4A2     3.906550    19A1     3.906550
      20A1     4.126611    11B2     4.216446    11B1     4.216446
      12B1     4.626514    12B2     4.626514    21A1     4.913575
       5A2     4.913576    22A1     5.313539    13B1     5.628908
      13B2     5.628908    23A1     5.706054     6A2     5.706070
      24A1     6.132978    14B1     6.269586    14B2     6.269586
      25A1     6.854146    26A1    10.212726

    Final Occupation by Irrep:
             A1    A2    B1    B2
    DOCC [     5,    0,    1,    1 ]
    SOCC [     0,    0,    0,    0 ]
    NA   [     5,    0,    1,    1 ]
    NB   [     5,    0,    1,    1 ]

  @DF-UKS Final Energy:  -129.49925601095677

   => Energetics <=

    Nuclear Repulsion Energy =             23.2389394765931847
    One-Electron Energy =                -216.5149106256597236
    Two-Electron Energy =                  75.7233176484597976
    DFT Exchange-Correlation Energy =     -11.9466025103500240
    Empirical Dispersion Energy =           0.0000000000000000
    VV10 Nonlocal Energy =                  0.0000000000000000
    Total Energy =                       -129.4992560109567705

  UHF NO Occupations:
  HONO-2 :    4 A1 2.0000000
  HONO-1 :    1 B2 2.0000000
  HONO-0 :    5 A1 2.0000000
  LUNO+0 :    6 A1 0.0000000
  LUNO+1 :    7 A1 0.0000000
  LUNO+2 :    8 A1 0.0000000
  LUNO+3 :    9 A1 0.0000000

Computation Completed

Properties will be evaluated at   0.000000,   0.000000,   0.000000 [a0]

Properties computed using the B3LYP density matrix

 Multipole Moments:

 ------------------------------------------------------------------------------------
     Multipole            Electronic (a.u.)      Nuclear  (a.u.)        Total (a.u.)
 ------------------------------------------------------------------------------------

 L = 1.  Multiply by 2.5417464519 to convert [e a0] to [Debye]
 Dipole X            :          0.0000000            0.0000000            0.0000000
 Dipole Y            :          0.0000000            0.0000000            0.0000000
 Dipole Z            :          0.3492341           -0.0048351            0.3443991
 Magnitude           :                                                    0.3443991

 L = 2.  Multiply by 1.3450342976 to convert [e a0^2] to [Debye ang]
 Quadrupole XX       :         -6.1373085            0.0000000           -6.1373085
 Quadrupole XY       :          0.0000000            0.0000000            0.0000000
 Quadrupole XZ       :          0.0000000            0.0000000            0.0000000
 Quadrupole YY       :         -6.1373085            0.0000000           -6.1373085
 Quadrupole YZ       :          0.0000000            0.0000000            0.0000000
 Quadrupole ZZ       :        -26.4922319           21.6790498           -4.8131821
 Traceless XX        :          6.7849745           -7.2263499           -0.4413755
 Traceless YY        :          6.7849745           -7.2263499           -0.4413755
 Traceless ZZ        :        -13.5699490           14.4526999            0.8827509

 ------------------------------------------------------------------------------------
  ==> Computing MBIS Charges <==

  Electron Count from Grid (Expected Number): 14.00000 (14.00000)
  Difference:  0.00000

  MBIS Charges: (a.u.)
   Center  Symbol  Z      Pop.       Charge
      1       O    8    7.678209    0.321791
      2       N    7    6.321791    0.678209

  MBIS Dipoles: [e a0]
   Center  Symbol  Z        X           Y           Z
      1       O    8   -0.000000   -0.000000   -0.146216
      2       N    7   -0.000000   -0.000000   -0.018826

  MBIS Quadrupoles: [e a0^2]
   Center  Symbol  Z      XX        XY        XZ        YY        YZ        ZZ
      1       O    8   -3.1805    0.0000   -0.0000   -3.1805    0.0000   -3.3229
      2       N    7   -2.9568    0.0000    0.0000   -2.9568    0.0000   -3.2977

  MBIS Octupoles: [e a0^3]
   Center  Symbol  Z      XXX       XXY       XXZ       XYY       XYZ       XZZ       YYY       YYZ       YZZ       ZZZ
      1       O    8   -0.0000   -0.0000   -0.1355   -0.0000    0.0000   -0.0000   -0.0000   -0.1355   -0.0000   -0.4000
      2       N    7   -0.0000   -0.0000    0.1031   -0.0000   -0.0000    0.0000   -0.0000    0.1031   -0.0000    0.2024

  MBIS Radial Moments:
   Center  Symbol  Z      [a0^2]      [a0^3]      [a0^4]
      1       O    8    9.683850   16.999340   35.724189
      2       N    7    9.211355   17.679627   40.465195

  MBIS Valence Widths: [a0]
   Center  Symbol  Z     Width
      1       O    8    0.367498
      2       N    7    0.408443

*** tstop() called on Mac.lan at Sun Aug 10 18:42:20 2025
Module time:
	user time   =       3.87 seconds =       0.06 minutes
	system time =       2.23 seconds =       0.04 minutes
	total time  =          1 seconds =       0.02 minutes
Total time:
	user time   =      20.20 seconds =       0.34 minutes
	system time =       4.84 seconds =       0.08 minutes
	total time  =          3 seconds =       0.05 minutes

    Psi4 stopped on: Sunday, 10 August 2025 06:42PM
    Psi4 wall time for execution: 0:00:02.50

*** Psi4 exiting successfully. Buy a developer a beer!
