                               Psi4 1.9.1 release

  ==> Input File <==

--------------------------------------------------------------------------
molecule {
1 1
C           0.000000           0.000000           0.000000
H           0.000000           0.000000           1.224868
}

set {
basis              cc-pvtz
reference          uks
maxiter            500
DAMPING_PERCENTAGE 1
E_CONVERGENCE      1.0E-8
D_CONVERGENCE      1.0E-8
DIIS_MAX_VECS      400
MBIS_MAXITER       8000
guess              read
}

E, wfn = energy('b3lyp', restart_file='last_wfn', return_wfn=True)
properties('b3lyp','MBIS_CHARGES', wfn=wfn)
wfn.to_file('last_wfn')
--------------------------------------------------------------------------

    Molecular point group: c2v
  Charge       = 1
  Multiplicity = 1
  Basis Set: CC-PVTZ
    Blend: CC-PVTZ
  Basis Set: (CC-PVTZ AUX)
    Blend: CC-PVTZ-JKFIT
  @DF-UKS Final Energy:   -38.08901141221926
    Total Energy =                        -38.0890114122192500
 Dipole X            :          0.0000000            0.0000000            0.0000000
 Dipole Y            :          0.0000000            0.0000000            0.0000000
 Dipole Z            :         -0.3372689            1.0593098            0.7220409
 Magnitude           :                                                    0.7220409
    Molecular point group: c2v

    Geometry (in Angstrom), charge = 1, multiplicity = 1:

       Center              X                  Y                   Z               Mass
    ------------   -----------------  -----------------  -----------------  -----------------
         C            0.000000000000     0.000000000000    -0.094900771537    12.000000000000
         H            0.000000000000     0.000000000000     1.129967228463     1.007825032230

  Charge       = 1
  Multiplicity = 1
  Basis Set: CC-PVTZ
    Blend: CC-PVTZ
  Basis Set: (CC-PVTZ AUX)
    Blend: CC-PVTZ-JKFIT

    Orbital Energies [Eh]
    ---------------------

    Alpha Occupied:

       1A1   -10.804186     2A1    -1.028155     3A1    -0.715035

    Alpha Virtual:

       1B2    -0.542261     1B1    -0.542261     4A1    -0.250418
       5A1    -0.013398     2B2     0.008574     2B1     0.008574
       6A1     0.031677     7A1     0.162062     3B2     0.221282
       3B1     0.221282     8A1     0.321016     1A2     0.321016
       9A1     0.608309     4B2     0.683425     4B1     0.683425
      10A1     0.954015     5B1     1.530605     5B2     1.530605
      11A1     1.721703    12A1     1.894242     2A2     2.141829
      13A1     2.141829     6B1     2.187623     6B2     2.187623
       7B2     2.251463     7B1     2.251463    14A1     2.423185
      15A1     2.493281     3A2     2.493281     8B1     2.639214
       8B2     2.639214    16A1     2.741278     4A2     3.099522
      17A1     3.099523     9B2     3.392896     9B1     3.392896
      18A1     3.715126    10B1     4.065068    10B2     4.065068
      19A1     4.160800    20A1     6.741723

    Beta Occupied:

       1A1   -10.804186     2A1    -1.028155     3A1    -0.715035

    Beta Virtual:

       1B2    -0.542261     1B1    -0.542261     4A1    -0.250418
       5A1    -0.013398     2B2     0.008574     2B1     0.008574
       6A1     0.031677     7A1     0.162062     3B2     0.221282
       3B1     0.221282     8A1     0.321016     1A2     0.321016
       9A1     0.608309     4B2     0.683425     4B1     0.683425
      10A1     0.954015     5B1     1.530605     5B2     1.530605
      11A1     1.721703    12A1     1.894242     2A2     2.141829
      13A1     2.141829     6B1     2.187623     6B2     2.187623
       7B2     2.251463     7B1     2.251463    14A1     2.423185
      15A1     2.493281     3A2     2.493281     8B1     2.639214
       8B2     2.639214    16A1     2.741278     4A2     3.099522
      17A1     3.099523     9B2     3.392896     9B1     3.392896
      18A1     3.715126    10B1     4.065068    10B2     4.065068
      19A1     4.160800    20A1     6.741723

    Final Occupation by Irrep:
             A1    A2    B1    B2
    DOCC [     3,    0,    0,    0 ]
    SOCC [     0,    0,    0,    0 ]
    NA   [     3,    0,    0,    0 ]
    NB   [     3,    0,    0,    0 ]

  @DF-UKS Final Energy:   -38.08901141066931

   => Energetics <=

    Nuclear Repulsion Energy =              2.5921676980866506
    One-Electron Energy =                 -53.1989756956443358
    Two-Electron Energy =                  16.7620220951854897
    DFT Exchange-Correlation Energy =      -4.2442255082971094
    Empirical Dispersion Energy =           0.0000000000000000
    VV10 Nonlocal Energy =                  0.0000000000000000
    Total Energy =                        -38.0890114106693005

  UHF NO Occupations:
  HONO-2 :    1 A1 2.0000000
  HONO-1 :    2 A1 2.0000000
  HONO-0 :    3 A1 2.0000000
  LUNO+0 :    4 A1 0.0000000
  LUNO+1 :    5 A1 0.0000000
  LUNO+2 :    6 A1 0.0000000
  LUNO+3 :    7 A1 0.0000000

Computation Completed

Properties will be evaluated at   0.000000,   0.000000,   0.000000 [a0]

Properties computed using the B3LYP density matrix

 Multipole Moments:

 ------------------------------------------------------------------------------------
     Multipole            Electronic (a.u.)      Nuclear  (a.u.)        Total (a.u.)
 ------------------------------------------------------------------------------------

 L = 1.  Multiply by 2.5417464519 to convert [e a0] to [Debye]
 Dipole X            :          0.0000000            0.0000000            0.0000000
 Dipole Y            :          0.0000000            0.0000000            0.0000000
 Dipole Z            :         -0.3372689            1.0593098            0.7220409
 Magnitude           :                                                    0.7220409

 L = 2.  Multiply by 1.3450342976 to convert [e a0^2] to [Debye ang]
 Quadrupole XX       :         -2.9680536            0.0000000           -2.9680536
 Quadrupole XY       :          0.0000000            0.0000000            0.0000000
 Quadrupole XZ       :          0.0000000            0.0000000            0.0000000
 Quadrupole YY       :         -2.9680536            0.0000000           -2.9680536
 Quadrupole YZ       :          0.0000000            0.0000000            0.0000000
 Quadrupole ZZ       :         -7.6790151            4.7525976           -2.9264175
 Traceless XX        :          1.5703205           -1.5841992           -0.0138787
 Traceless YY        :          1.5703205           -1.5841992           -0.0138787
 Traceless ZZ        :         -3.1406410            3.1683984            0.0277574

 ------------------------------------------------------------------------------------
  ==> Computing MBIS Charges <==

  Electron Count from Grid (Expected Number):  6.00000 ( 6.00000)
  Difference:  0.00000

  MBIS Charges: (a.u.)
   Center  Symbol  Z      Pop.       Charge
      1       C    6    5.206276    0.793724
      2       H    1    0.793724    0.206276

  MBIS Dipoles: [e a0]
   Center  Symbol  Z        X           Y           Z
      1       C    6    0.000000   -0.000000    0.307517
      2       H    1    0.000000   -0.000000    0.116401

  MBIS Quadrupoles: [e a0^2]
   Center  Symbol  Z      XX        XY        XZ        YY        YZ        ZZ
      1       C    6   -2.5495    0.0000   -0.0000   -2.5495   -0.0000   -3.8501
      2       H    1   -0.4185   -0.0000    0.0000   -0.4185   -0.0000   -0.4292

  MBIS Octupoles: [e a0^3]
   Center  Symbol  Z      XXX       XXY       XXZ       XYY       XYZ       XZZ       YYY       YYZ       YZZ       ZZZ
      1       C    6    0.0000   -0.0000    0.3525    0.0000   -0.0000    0.0000    0.0000    0.3525   -0.0000    0.9296
      2       H    1    0.0000   -0.0000    0.0206    0.0000   -0.0000    0.0000   -0.0000    0.0206   -0.0000    0.0928

  MBIS Radial Moments:
   Center  Symbol  Z      [a0^2]      [a0^3]      [a0^4]
      1       C    6    8.949223   19.124542   48.732226
      2       H    1    1.266180    2.213997    4.632620

  MBIS Valence Widths: [a0]
   Center  Symbol  Z     Width
      1       C    6    0.463627
      2       H    1    0.372557

*** tstop() called on Mac.lan at Sun Aug 10 18:27:15 2025
Module time:
	user time   =       3.76 seconds =       0.06 minutes
	system time =       1.45 seconds =       0.02 minutes
	total time  =          1 seconds =       0.02 minutes
Total time:
	user time   =      11.69 seconds =       0.19 minutes
	system time =       3.41 seconds =       0.06 minutes
	total time  =          2 seconds =       0.03 minutes

    Psi4 stopped on: Sunday, 10 August 2025 06:27PM
    Psi4 wall time for execution: 0:00:01.49

*** Psi4 exiting successfully. Buy a developer a beer!
