                               Psi4 1.9.1 release

  ==> Input File <==

--------------------------------------------------------------------------
molecule {
1 1
C           0.000000           0.000000           0.000000
H           0.000000           0.000000           1.412774
}

set {
basis              cc-pvtz
reference          uks
maxiter            500
DAMPING_PERCENTAGE 1
E_CONVERGENCE      1.0E-8
D_CONVERGENCE      1.0E-8
DIIS_MAX_VECS      400
MBIS_MAXITER       8000
guess              read
}

E, wfn = energy('b3lyp', restart_file='last_wfn', return_wfn=True)
properties('b3lyp','MBIS_CHARGES', wfn=wfn)
wfn.to_file('last_wfn')
--------------------------------------------------------------------------

    Molecular point group: c2v
  Charge       = 1
  Multiplicity = 1
  Basis Set: CC-PVTZ
    Blend: CC-PVTZ
  Basis Set: (CC-PVTZ AUX)
    Blend: CC-PVTZ-JKFIT
  @DF-UKS Final Energy:   -38.06898147117738
    Total Energy =                        -38.0689814711773806
 Dipole X            :          0.0000000            0.0000000            0.0000000
 Dipole Y            :          0.0000000            0.0000000            0.0000000
 Dipole Z            :         -0.4698040            1.2218176            0.7520136
 Magnitude           :                                                    0.7520136
    Molecular point group: c2v

    Geometry (in Angstrom), charge = 1, multiplicity = 1:

       Center              X                  Y                   Z               Mass
    ------------   -----------------  -----------------  -----------------  -----------------
         C            0.000000000000     0.000000000000    -0.109459421429    12.000000000000
         H            0.000000000000     0.000000000000     1.303314578571     1.007825032230

  Charge       = 1
  Multiplicity = 1
  Basis Set: CC-PVTZ
    Blend: CC-PVTZ
  Basis Set: (CC-PVTZ AUX)
    Blend: CC-PVTZ-JKFIT

    Orbital Energies [Eh]
    ---------------------

    Alpha Occupied:

       1A1   -10.805816     2A1    -0.990030     3A1    -0.696165

    Alpha Virtual:

       1B1    -0.534986     1B2    -0.534986     4A1    -0.307985
       5A1    -0.014199     2B1     0.009924     2B2     0.009924
       6A1     0.035026     7A1     0.160938     3B2     0.217216
       3B1     0.217216     8A1     0.327620     1A2     0.327620
       9A1     0.556822     4B2     0.636634     4B1     0.636634
      10A1     0.891563     5B2     1.523396     5B1     1.523396
      11A1     1.728047    12A1     2.067146     6B2     2.168915
       6B1     2.168915     2A2     2.190984    13A1     2.190984
       7B1     2.258021     7B2     2.258021    14A1     2.282914
       3A2     2.493474    15A1     2.493475     8B2     2.600221
       8B1     2.600221    16A1     2.746426     4A2     2.984549
      17A1     2.984554    18A1     3.309041     9B2     3.318199
       9B1     3.318199    10B2     3.736701    10B1     3.736701
      19A1     3.899535    20A1     5.579273

    Beta Occupied:

       1A1   -10.805816     2A1    -0.990030     3A1    -0.696165

    Beta Virtual:

       1B1    -0.534986     1B2    -0.534986     4A1    -0.307985
       5A1    -0.014199     2B1     0.009924     2B2     0.009924
       6A1     0.035026     7A1     0.160938     3B1     0.217216
       3B2     0.217216     8A1     0.327620     1A2     0.327620
       9A1     0.556822     4B2     0.636634     4B1     0.636634
      10A1     0.891563     5B2     1.523396     5B1     1.523396
      11A1     1.728047    12A1     2.067146     6B2     2.168915
       6B1     2.168915     2A2     2.190984    13A1     2.190984
       7B1     2.258021     7B2     2.258021    14A1     2.282914
       3A2     2.493474    15A1     2.493475     8B2     2.600221
       8B1     2.600221    16A1     2.746426     4A2     2.984549
      17A1     2.984554    18A1     3.309041     9B2     3.318199
       9B1     3.318199    10B2     3.736701    10B1     3.736701
      19A1     3.899535    20A1     5.579273

    Final Occupation by Irrep:
             A1    A2    B1    B2
    DOCC [     3,    0,    0,    0 ]
    SOCC [     0,    0,    0,    0 ]
    NA   [     3,    0,    0,    0 ]
    NB   [     3,    0,    0,    0 ]

  @DF-UKS Final Energy:   -38.06898147122428

   => Energetics <=

    Nuclear Repulsion Energy =              2.2473964441729533
    One-Electron Energy =                 -52.6065807931725686
    Two-Electron Energy =                  16.4968132142576813
    DFT Exchange-Correlation Energy =      -4.2066103364823562
    Empirical Dispersion Energy =           0.0000000000000000
    VV10 Nonlocal Energy =                  0.0000000000000000
    Total Energy =                        -38.0689814712242907

  UHF NO Occupations:
  HONO-2 :    1 A1 2.0000000
  HONO-1 :    2 A1 2.0000000
  HONO-0 :    3 A1 2.0000000
  LUNO+0 :    4 A1 0.0000000
  LUNO+1 :    5 A1 0.0000000
  LUNO+2 :    6 A1 0.0000000
  LUNO+3 :    7 A1 0.0000000

Computation Completed

Properties will be evaluated at   0.000000,   0.000000,   0.000000 [a0]

Properties computed using the B3LYP density matrix

 Multipole Moments:

 ------------------------------------------------------------------------------------
     Multipole            Electronic (a.u.)      Nuclear  (a.u.)        Total (a.u.)
 ------------------------------------------------------------------------------------

 L = 1.  Multiply by 2.5417464519 to convert [e a0] to [Debye]
 Dipole X            :          0.0000000            0.0000000            0.0000000
 Dipole Y            :          0.0000000            0.0000000            0.0000000
 Dipole Z            :         -0.4698040            1.2218176            0.7520136
 Magnitude           :                                                    0.7520136

 L = 2.  Multiply by 1.3450342976 to convert [e a0^2] to [Debye ang]
 Quadrupole XX       :         -3.0809270            0.0000000           -3.0809270
 Quadrupole XY       :          0.0000000            0.0000000            0.0000000
 Quadrupole XZ       :          0.0000000            0.0000000            0.0000000
 Quadrupole YY       :         -3.0809270            0.0000000           -3.0809270
 Quadrupole YZ       :          0.0000000            0.0000000            0.0000000
 Quadrupole ZZ       :         -8.7469622            6.3226313           -2.4243309
 Traceless XX        :          1.8886784           -2.1075438           -0.2188654
 Traceless YY        :          1.8886784           -2.1075438           -0.2188654
 Traceless ZZ        :         -3.7773568            4.2150875            0.4377308

 ------------------------------------------------------------------------------------
  ==> Computing MBIS Charges <==

  Electron Count from Grid (Expected Number):  6.00000 ( 6.00000)
  Difference:  0.00000

  MBIS Charges: (a.u.)
   Center  Symbol  Z      Pop.       Charge
      1       C    6    5.230893    0.769107
      2       H    1    0.769107    0.230893

  MBIS Dipoles: [e a0]
   Center  Symbol  Z        X           Y           Z
      1       C    6   -0.000000   -0.000000    0.198293
      2       H    1    0.000000    0.000000    0.144141

  MBIS Quadrupoles: [e a0^2]
   Center  Symbol  Z      XX        XY        XZ        YY        YZ        ZZ
      1       C    6   -2.5991    0.0000    0.0000   -2.5991    0.0000   -3.9919
      2       H    1   -0.4818   -0.0000    0.0000   -0.4818    0.0000   -0.4939

  MBIS Octupoles: [e a0^3]
   Center  Symbol  Z      XXX       XXY       XXZ       XYY       XYZ       XZZ       YYY       YYZ       YZZ       ZZZ
      1       C    6    0.0000    0.0000    0.2184    0.0000   -0.0000   -0.0000   -0.0000    0.2184   -0.0000    0.5680
      2       H    1    0.0000    0.0000    0.0428    0.0000   -0.0000    0.0000    0.0000    0.0428    0.0000    0.1706

  MBIS Radial Moments:
   Center  Symbol  Z      [a0^2]      [a0^3]      [a0^4]
      1       C    6    9.190053   19.805625   50.800395
      2       H    1    1.457593    2.768720    6.269930

  MBIS Valence Widths: [a0]
   Center  Symbol  Z     Width
      1       C    6    0.468932
      2       H    1    0.406160

*** tstop() called on Mac.lan at Sun Aug 10 18:27:32 2025
Module time:
	user time   =       2.71 seconds =       0.05 minutes
	system time =       1.85 seconds =       0.03 minutes
	total time  =          0 seconds =       0.00 minutes
Total time:
	user time   =      10.83 seconds =       0.18 minutes
	system time =       4.01 seconds =       0.07 minutes
	total time  =          2 seconds =       0.03 minutes

    Psi4 stopped on: Sunday, 10 August 2025 06:27PM
    Psi4 wall time for execution: 0:00:01.45

*** Psi4 exiting successfully. Buy a developer a beer!
