                               Psi4 1.9.1 release

  ==> Input File <==

--------------------------------------------------------------------------
molecule {
1 2
O           0.000000           0.000000           0.000000
O           0.000000           0.000000           0.866989
}

set {
basis              cc-pvtz
reference          uks
maxiter            500
DAMPING_PERCENTAGE 1
E_CONVERGENCE      1.0E-8
D_CONVERGENCE      1.0E-8
DIIS_MAX_VECS      400
MBIS_MAXITER       8000
guess              read
}

E, wfn = energy('b3lyp', restart_file='last_wfn', return_wfn=True)
properties('b3lyp','MBIS_CHARGES', wfn=wfn)
wfn.to_file('last_wfn')
--------------------------------------------------------------------------

    Molecular point group: d2h
  Charge       = 1
  Multiplicity = 2
  Basis Set: CC-PVTZ
    Blend: CC-PVTZ
  Basis Set: (CC-PVTZ AUX)
    Blend: CC-PVTZ-JKFIT
  @DF-UKS Final Energy:  -149.66500610668126
    Total Energy =                       -149.6650061066812327
 Dipole X            :          0.0000000            0.0000000            0.0000000
 Dipole Y            :          0.0000000            0.0000000            0.0000000
 Dipole Z            :          0.0000000            0.0000000            0.0000000
 Magnitude           :                                                    0.0000000
    Molecular point group: d2h

    Geometry (in Angstrom), charge = 1, multiplicity = 2:

       Center              X                  Y                   Z               Mass
    ------------   -----------------  -----------------  -----------------  -----------------
         O            0.000000000000     0.000000000000    -0.433494500000    15.994914619570
         O            0.000000000000     0.000000000000     0.433494500000    15.994914619570

  Charge       = 1
  Multiplicity = 2
  Basis Set: CC-PVTZ
    Blend: CC-PVTZ
  Basis Set: (CC-PVTZ AUX)
    Blend: CC-PVTZ-JKFIT

    Orbital Energies [Eh]
    ---------------------

    Alpha Occupied:

       1Ag   -19.797201     1B1u  -19.791579     2Ag    -2.169888
       1B3u   -1.230736     1B2u   -1.203557     2B1u   -1.185122
       3Ag    -1.079651     1B2g   -0.602876

    Alpha Virtual:

       1B3g   -0.474610     3B1u    0.045341     2B2u    0.088012
       2B3u    0.090063     4Ag     0.162209     5Ag     0.254193
       2B2g    0.302466     2B3g    0.313994     4B1u    0.611561
       1B1g    0.690064     6Ag     0.691377     5B1u    0.872605
       3B3u    1.123823     3B2u    1.126104     1Au     1.346354
       6B1u    1.348245     7Ag     1.725126     3B2g    1.865212
       3B3g    1.871549     7B1u    2.277187     4B3u    2.904103
       4B2u    2.914796     8Ag     3.400719     4B2g    3.534465
       4B3g    3.544800     8B1u    3.937138     2B1g    4.108393
       9Ag     4.109649     5B3u    4.133992     5B2u    4.134206
       6B2u    4.458628     6B3u    4.461235     5B2g    4.952367
       5B3g    4.952657    10Ag     5.013191     6B2g    5.421595
       6B3g    5.426995     3B1g    5.503877    11Ag     5.507626
       2Au     5.676665     9B1u    5.680453    10B1u    5.960126
      12Ag     6.028441     3Au     6.260437    11B1u    6.262280
       7B2u    6.430294     7B3u    6.430936    12B1u    7.599363
       7B2g    8.570657     7B3g    8.571654    13Ag     9.035955
      13B1u   25.818328

    Beta Occupied:

       1Ag   -19.781333     1B1u  -19.775539     2Ag    -2.149760
       1B2u   -1.190737     1B3u   -1.144166     2B1u   -1.139135
       3Ag    -1.051580

    Beta Virtual:

       1B3g   -0.456845     1B2g   -0.409284     3B1u    0.052126
       2B2u    0.091014     2B3u    0.110086     4Ag     0.164202
       5Ag     0.267748     2B3g    0.319704     2B2g    0.339850
       4B1u    0.632443     1B1g    0.710702     6Ag     0.710953
       5B1u    0.892524     3B2u    1.130052     3B3u    1.162176
       1Au     1.382035     6B1u    1.382236     7Ag     1.735676
       3B3g    1.876781     3B2g    1.902444     7B1u    2.293233
       4B2u    2.925425     4B3u    2.964669     8Ag     3.413046
       4B3g    3.556738     4B2g    3.598120     8B1u    3.962486
       2B1g    4.126182     9Ag     4.126637     5B2u    4.165404
       5B3u    4.165434     6B2u    4.463555     6B3u    4.499520
       5B3g    4.993037     5B2g    4.993061    10Ag     5.028366
       6B3g    5.431669     6B2g    5.465400    11Ag     5.559953
       3B1g    5.560137     9B1u    5.732397     2Au     5.733451
      10B1u    5.980272    12Ag     6.051461     3Au     6.290977
      11B1u    6.291863     7B2u    6.435374     7B3u    6.473356
      12B1u    7.617718     7B3g    8.578379     7B2g    8.617233
      13Ag     9.058333    13B1u   25.838547

    Final Occupation by Irrep:
             Ag   B1g   B2g   B3g    Au   B1u   B2u   B3u
    DOCC [     3,    0,    0,    0,    0,    2,    1,    1 ]
    SOCC [     0,    0,    1,    0,    0,    0,    0,    0 ]
    NA   [     3,    0,    1,    0,    0,    2,    1,    1 ]
    NB   [     3,    0,    0,    0,    0,    2,    1,    1 ]

  @DF-UKS Final Energy:  -149.66500610849931

   => Energetics <=

    Nuclear Repulsion Energy =             39.0631732154387308
    One-Electron Energy =                -274.2887486069902252
    Two-Electron Energy =                  99.3235398094462312
    DFT Exchange-Correlation Energy =     -13.7629705263940423
    Empirical Dispersion Energy =           0.0000000000000000
    VV10 Nonlocal Energy =                  0.0000000000000000
    Total Energy =                       -149.6650061084993126

  UHF NO Occupations:
  HONO-2 :    2B1u 1.9997770
  HONO-1 :    1B3u 1.9995995
  HONO-0 :    1B2g 1.0000000
  LUNO+0 :    2B3u 0.0004005
  LUNO+1 :    3B1u 0.0002230
  LUNO+2 :    4 Ag 0.0001371
  LUNO+3 :    2B2u 0.0000183

Computation Completed

Properties will be evaluated at   0.000000,   0.000000,   0.000000 [a0]

Properties computed using the B3LYP density matrix

 Multipole Moments:

 ------------------------------------------------------------------------------------
     Multipole            Electronic (a.u.)      Nuclear  (a.u.)        Total (a.u.)
 ------------------------------------------------------------------------------------

 L = 1.  Multiply by 2.5417464519 to convert [e a0] to [Debye]
 Dipole X            :          0.0000000            0.0000000            0.0000000
 Dipole Y            :          0.0000000            0.0000000            0.0000000
 Dipole Z            :          0.0000000            0.0000000            0.0000000
 Magnitude           :                                                    0.0000000

 L = 2.  Multiply by 1.3450342976 to convert [e a0^2] to [Debye ang]
 Quadrupole XX       :         -5.7649624            0.0000000           -5.7649624
 Quadrupole XY       :          0.0000000            0.0000000            0.0000000
 Quadrupole XZ       :          0.0000000            0.0000000            0.0000000
 Quadrupole YY       :         -5.1651737            0.0000000           -5.1651737
 Quadrupole YZ       :          0.0000000            0.0000000            0.0000000
 Quadrupole ZZ       :        -16.2859780           10.7370481           -5.5489299
 Traceless XX        :          3.3070756           -3.5790160           -0.2719404
 Traceless YY        :          3.9068644           -3.5790160            0.3278483
 Traceless ZZ        :         -7.2139400            7.1580321           -0.0559079

 ------------------------------------------------------------------------------------
  ==> Computing MBIS Charges <==

  Electron Count from Grid (Expected Number): 15.00000 (15.00000)
  Difference: -0.00000

  MBIS Charges: (a.u.)
   Center  Symbol  Z      Pop.       Charge
      1       O    8    7.500000    0.500000
      2       O    8    7.500000    0.500000

  MBIS Dipoles: [e a0]
   Center  Symbol  Z        X           Y           Z
      1       O    8   -0.000000   -0.000000    0.077324
      2       O    8    0.000000    0.000000   -0.077324

  MBIS Quadrupoles: [e a0^2]
   Center  Symbol  Z      XX        XY        XZ        YY        YZ        ZZ
      1       O    8   -2.8825    0.0000    0.0000   -2.5826   -0.0000   -2.9833
      2       O    8   -2.8825    0.0000   -0.0000   -2.5826    0.0000   -2.9833

  MBIS Octupoles: [e a0^3]
   Center  Symbol  Z      XXX       XXY       XXZ       XYY       XYZ       XZZ       YYY       YYZ       YZZ       ZZZ
      1       O    8   -0.0000   -0.0000    0.1690   -0.0000    0.0000   -0.0000    0.0000    0.0574    0.0000    0.0515
      2       O    8   -0.0000   -0.0000   -0.1690   -0.0000    0.0000   -0.0000    0.0000   -0.0574    0.0000   -0.0515

  MBIS Radial Moments:
   Center  Symbol  Z      [a0^2]      [a0^3]      [a0^4]
      1       O    8    8.448381   14.088425   28.270585
      2       O    8    8.448381   14.088425   28.270585

  MBIS Valence Widths: [a0]
   Center  Symbol  Z     Width
      1       O    8    0.346548
      2       O    8    0.346548

*** tstop() called on Mac.lan at Sun Aug 10 18:12:56 2025
Module time:
	user time   =       3.94 seconds =       0.07 minutes
	system time =       2.16 seconds =       0.04 minutes
	total time  =          0 seconds =       0.00 minutes
Total time:
	user time   =      15.20 seconds =       0.25 minutes
	system time =       4.53 seconds =       0.08 minutes
	total time  =          2 seconds =       0.03 minutes

    Psi4 stopped on: Sunday, 10 August 2025 06:12PM
    Psi4 wall time for execution: 0:00:01.93

*** Psi4 exiting successfully. Buy a developer a beer!
