                               Psi4 1.9.1 release

  ==> Input File <==

--------------------------------------------------------------------------
molecule {
1 3
N           0.000000           0.000000           0.000000
C           0.000000           0.000000           1.756863
}

set {
basis              cc-pvtz
reference          uks
maxiter            500
DAMPING_PERCENTAGE 1
E_CONVERGENCE      1.0E-8
D_CONVERGENCE      1.0E-8
DIIS_MAX_VECS      400
MBIS_MAXITER       8000
guess              read
}

E, wfn = energy('b3lyp', restart_file='last_wfn', return_wfn=True)
properties('b3lyp','MBIS_CHARGES', wfn=wfn)
wfn.to_file('last_wfn')
--------------------------------------------------------------------------

    Molecular point group: c2v
  Charge       = 1
  Multiplicity = 3
  Basis Set: CC-PVTZ
    Blend: CC-PVTZ
  Basis Set: (CC-PVTZ AUX)
    Blend: CC-PVTZ-JKFIT
  @DF-UKS Final Energy:   -92.12182846755616
    Total Energy =                        -92.1218284675561563
 Dipole X            :          0.0000000            0.0000000            0.0000000
 Dipole Y            :          0.0000000            0.0000000            0.0000000
 Dipole Z            :          0.5369312            0.0023549            0.5392861
 Magnitude           :                                                    0.5392861
    Molecular point group: c2v

    Geometry (in Angstrom), charge = 1, multiplicity = 3:

       Center              X                  Y                   Z               Mass
    ------------   -----------------  -----------------  -----------------  -----------------
         N            0.000000000000     0.000000000000    -0.810763988766    14.003074004430
         C            0.000000000000     0.000000000000     0.946099011234    12.000000000000

  Charge       = 1
  Multiplicity = 3
  Basis Set: CC-PVTZ
    Blend: CC-PVTZ
  Basis Set: (CC-PVTZ AUX)
    Blend: CC-PVTZ-JKFIT

    Orbital Energies [Eh]
    ---------------------

    Alpha Occupied:

       1A1   -14.846922     2A1   -10.762333     3A1    -1.206203
       4A1    -0.917775     5A1    -0.734648     1B1    -0.721839
       1B2    -0.709564

    Alpha Virtual:

       2B1    -0.494629     2B2    -0.445772     6A1    -0.355751
       7A1     0.012934     3B1     0.033174     3B2     0.053297
       8A1     0.063570     9A1     0.163069     4B1     0.180875
       4B2     0.189533     5B1     0.345826    10A1     0.348573
       1A2     0.348726     5B2     0.368239    11A1     0.494996
      12A1     0.696100     2A2     0.696786    13A1     0.701231
       6B1     0.928438     6B2     0.944454    14A1     1.104385
       7B1     1.572823     7B2     1.613769    15A1     1.828678
      16A1     2.204223     8B1     2.212645     8B2     2.237019
       3A2     2.288724    17A1     2.292218     9B1     2.318496
       9B2     2.319001    10B1     2.501350    10B2     2.523117
      18A1     2.562798     4A2     2.566061    19A1     2.663600
      11B1     2.669359    11B2     2.705907    20A1     3.083073
      21A1     3.399810    12B1     3.458303    12B2     3.458307
       5A2     3.503765    22A1     3.503982    13B1     3.725018
      13B2     3.738019    23A1     3.982234     6A2     3.982305
      24A1     4.039304    14B1     4.270751    14B2     4.281614
      25A1     5.023307    26A1     5.715170

    Beta Occupied:

       1A1   -14.797504     2A1   -10.768061     3A1    -1.087643
       4A1    -0.868538     1B2    -0.647879

    Beta Virtual:

       5A1    -0.564002     1B1    -0.538640     2B2    -0.446795
       2B1    -0.421542     6A1    -0.280590     3B2     0.027113
       7A1     0.031254     3B1     0.039758     8A1     0.073253
       9A1     0.202029     4B2     0.237597     4B1     0.239067
       1A2     0.326366    10A1     0.331062     5B2     0.377892
       5B1     0.387224    11A1     0.542330    12A1     0.735513
       2A2     0.773808    13A1     0.774440     6B2     0.993357
       6B1     0.996124    14A1     1.166562     7B2     1.552236
       7B1     1.578825    15A1     1.869843    16A1     2.240419
       8B2     2.259689     8B1     2.269935     9B2     2.275786
       3A2     2.278180     9B1     2.278692    17A1     2.284715
       4A2     2.509658    18A1     2.520878    10B2     2.570595
      10B1     2.582606    11B2     2.715241    19A1     2.719862
      11B1     2.731891    20A1     3.119898    21A1     3.448306
      12B2     3.570388    12B1     3.570435     5A2     3.603902
      22A1     3.604446    13B2     3.825402    13B1     3.828353
       6A2     4.136076    23A1     4.136658    24A1     4.139593
      14B2     4.400239    14B1     4.402945    25A1     5.102916
      26A1     5.793589

    Final Occupation by Irrep:
             A1    A2    B1    B2
    DOCC [     4,    0,    0,    1 ]
    SOCC [     1,    0,    1,    0 ]
    NA   [     5,    0,    1,    1 ]
    NB   [     4,    0,    0,    1 ]

  @DF-UKS Final Energy:   -92.12182846778973

   => Energetics <=

    Nuclear Repulsion Energy =             12.6506408571072431
    One-Electron Energy =                -144.7066129752409722
    Two-Electron Energy =                  49.3210770739838935
    DFT Exchange-Correlation Energy =      -9.3869334236399009
    Empirical Dispersion Energy =           0.0000000000000000
    VV10 Nonlocal Energy =                  0.0000000000000000
    Total Energy =                        -92.1218284677897259

  UHF NO Occupations:
  HONO-2 :    1 B2 1.6069656
  HONO-1 :    1 B1 1.0000000
  HONO-0 :    5 A1 1.0000000
  LUNO+0 :    2 B2 0.3930344
  LUNO+1 :    6 A1 0.0086233
  LUNO+2 :    7 A1 0.0007392
  LUNO+3 :    8 A1 0.0000014

Computation Completed

Properties will be evaluated at   0.000000,   0.000000,   0.000000 [a0]

Properties computed using the B3LYP density matrix

 Multipole Moments:

 ------------------------------------------------------------------------------------
     Multipole            Electronic (a.u.)      Nuclear  (a.u.)        Total (a.u.)
 ------------------------------------------------------------------------------------

 L = 1.  Multiply by 2.5417464519 to convert [e a0] to [Debye]
 Dipole X            :          0.0000000            0.0000000            0.0000000
 Dipole Y            :          0.0000000            0.0000000            0.0000000
 Dipole Z            :          0.5369311            0.0023549            0.5392860
 Magnitude           :                                                    0.5392860

 L = 2.  Multiply by 1.3450342976 to convert [e a0^2] to [Debye ang]
 Quadrupole XX       :         -6.1917851            0.0000000           -6.1917851
 Quadrupole XY       :          0.0000000            0.0000000            0.0000000
 Quadrupole XZ       :          0.0000000            0.0000000            0.0000000
 Quadrupole YY       :         -7.3656697            0.0000000           -7.3656697
 Quadrupole YZ       :          0.0000000            0.0000000            0.0000000
 Quadrupole ZZ       :        -38.5319121           35.6106147           -2.9212974
 Traceless XX        :         11.1713372          -11.8702049           -0.6988677
 Traceless YY        :          9.9974527          -11.8702049           -1.8727523
 Traceless ZZ        :        -21.1687898           23.7404098            2.5716200

 ------------------------------------------------------------------------------------
  ==> Computing MBIS Charges <==

  Electron Count from Grid (Expected Number): 12.00000 (12.00000)
  Difference: -0.00000

  MBIS Charges: (a.u.)
   Center  Symbol  Z      Pop.       Charge
      1       N    7    6.664088    0.335912
      2       C    6    5.335912    0.664088

  MBIS Dipoles: [e a0]
   Center  Symbol  Z        X           Y           Z
      1       N    7   -0.000000   -0.000000   -0.233215
      2       C    6   -0.000000   -0.000000    0.099857

  MBIS Quadrupoles: [e a0^2]
   Center  Symbol  Z      XX        XY        XZ        YY        YZ        ZZ
      1       N    7   -3.3899    0.0000    0.0000   -3.6557    0.0000   -3.5140
      2       C    6   -2.8019    0.0000    0.0000   -3.7099    0.0000   -3.3903

  MBIS Octupoles: [e a0^3]
   Center  Symbol  Z      XXX       XXY       XXZ       XYY       XYZ       XZZ       YYY       YYZ       YZZ       ZZZ
      1       N    7   -0.0000   -0.0000   -0.1530   -0.0000    0.0000   -0.0000   -0.0000   -0.3257   -0.0000   -0.8867
      2       C    6   -0.0000   -0.0000    0.1752    0.0000   -0.0000    0.0000    0.0000    0.2358    0.0000    0.7041

  MBIS Radial Moments:
   Center  Symbol  Z      [a0^2]      [a0^3]      [a0^4]
      1       N    7   10.559574   21.121280   50.425090
      2       C    6    9.902127   22.050612   58.489326

  MBIS Valence Widths: [a0]
   Center  Symbol  Z     Width
      1       N    7    0.422221
      2       C    6    0.479471

*** tstop() called on Mac.lan at Sun Aug 10 18:35:06 2025
Module time:
	user time   =       5.27 seconds =       0.09 minutes
	system time =       2.76 seconds =       0.05 minutes
	total time  =          1 seconds =       0.02 minutes
Total time:
	user time   =      23.82 seconds =       0.40 minutes
	system time =       5.62 seconds =       0.09 minutes
	total time  =          3 seconds =       0.05 minutes

    Psi4 stopped on: Sunday, 10 August 2025 06:35PM
    Psi4 wall time for execution: 0:00:02.97

*** Psi4 exiting successfully. Buy a developer a beer!
