                               Psi4 1.9.1 release

  ==> Input File <==

--------------------------------------------------------------------------
molecule {
1 4
C           0.000000           0.000000           0.000000
C           0.000000           0.000000           0.860197
}

set {
basis              cc-pvtz
reference          uks
maxiter            500
DAMPING_PERCENTAGE 1
E_CONVERGENCE      1.0E-8
D_CONVERGENCE      1.0E-8
DIIS_MAX_VECS      400
MBIS_MAXITER       8000
guess              read
}

E, wfn = energy('b3lyp', restart_file='last_wfn', return_wfn=True)
properties('b3lyp','MBIS_CHARGES', wfn=wfn)
wfn.to_file('last_wfn')
--------------------------------------------------------------------------

    Molecular point group: d2h
  Charge       = 1
  Multiplicity = 4
  Basis Set: CC-PVTZ
    Blend: CC-PVTZ
  Basis Set: (CC-PVTZ AUX)
    Blend: CC-PVTZ-JKFIT
  @DF-UKS Final Energy:   -74.92018051490663
    Total Energy =                        -74.9201805149066331
 Dipole X            :          0.0000000            0.0000000            0.0000000
 Dipole Y            :          0.0000000            0.0000000            0.0000000
 Dipole Z            :          0.0000000            0.0000000            0.0000000
 Magnitude           :                                                    0.0000000
    Molecular point group: d2h

    Geometry (in Angstrom), charge = 1, multiplicity = 4:

       Center              X                  Y                   Z               Mass
    ------------   -----------------  -----------------  -----------------  -----------------
         C            0.000000000000     0.000000000000    -0.430098500000    12.000000000000
         C            0.000000000000     0.000000000000     0.430098500000    12.000000000000

  Charge       = 1
  Multiplicity = 4
  Basis Set: CC-PVTZ
    Blend: CC-PVTZ
  Basis Set: (CC-PVTZ AUX)
    Blend: CC-PVTZ-JKFIT

    Orbital Energies [Eh]
    ---------------------

    Alpha Occupied:

       1Ag   -10.680301     1B1u  -10.633057     2Ag    -1.306890
       1B2u   -0.897978     1B3u   -0.846689     2B1u   -0.781753
       3Ag    -0.775312

    Alpha Virtual:

       1B3g   -0.241781     1B2g   -0.214518     2B2u   -0.050389
       3B1u   -0.043452     2B3u   -0.038116     4Ag    -0.006133
       5Ag     0.041771     2B3g    0.144313     2B2g    0.157597
       1B1g    0.217266     6Ag     0.218150     4B1u    0.338899
       3B2u    0.535261     3B3u    0.555361     5B1u    0.586023
       1Au     0.615317     6B1u    0.618522     7Ag     0.746249
       3B3g    0.844304     3B2g    0.858950     4B2u    1.360276
       4B3u    1.396023     7B1u    1.746943     8Ag     1.856887
       4B3g    2.017306     5B2u    2.022281     5B3u    2.022576
       4B2g    2.044463     2B1g    2.067625     9Ag     2.069911
       8B1u    2.155891     6B2u    2.278347     6B3u    2.310439
      10Ag     2.464052     9B1u    2.521539     2Au     2.521662
       5B3g    2.632626     5B2g    2.658138     3B1g    2.670767
      11Ag     2.671264     6B3g    2.708127     6B2g    2.709089
      12Ag     3.079161    10B1u    3.243875     7B2u    3.618309
       7B3u    3.650447     3Au     3.830191    11B1u    3.830519
       7B3g    5.022530     7B2g    5.055128    12B1u    5.155149
      13Ag     5.714508    13B1u   18.716786

    Beta Occupied:

       1Ag   -10.643649     1B1u  -10.598333     2Ag    -1.209443
       1B3u   -0.803124

    Beta Virtual:

       1B2u   -0.677981     2B1u   -0.521702     3Ag    -0.508657
       1B2g   -0.157333     1B3g   -0.134475     2B3u   -0.031946
       2B2u   -0.023204     3B1u   -0.011390     4Ag     0.027459
       5Ag     0.107769     2B2g    0.182458     2B3g    0.201790
       1B1g    0.252546     6Ag     0.256721     4B1u    0.390532
       3B3u    0.606971     3B2u    0.618358     1Au     0.648352
       5B1u    0.653589     6B1u    0.668008     7Ag     0.821115
       3B2g    0.890302     3B3g    0.905489     4B3u    1.418394
       4B2u    1.432445     7B1u    1.888154     8Ag     1.922460
       5B3u    2.071496     5B2u    2.073990     4B2g    2.075748
       4B3g    2.087783     2B1g    2.122484     9Ag     2.128499
       8B1u    2.233228     6B3u    2.414322     6B2u    2.446285
       2Au     2.613673     9B1u    2.627031    10Ag     2.631519
       5B2g    2.758729     3B1g    2.764796     6B2g    2.764972
       5B3g    2.767746    11Ag     2.777885     6B3g    2.788496
      12Ag     3.165625    10B1u    3.380534     7B3u    3.722294
       7B2u    3.744344     3Au     3.898250    11B1u    3.908011
       7B2g    5.127849     7B3g    5.155413    12B1u    5.253338
      13Ag     5.794120    13B1u   18.779478

    Final Occupation by Irrep:
             Ag   B1g   B2g   B3g    Au   B1u   B2u   B3u
    DOCC [     2,    0,    0,    0,    0,    1,    0,    1 ]
    SOCC [     1,    0,    0,    0,    0,    1,    1,    0 ]
    NA   [     3,    0,    0,    0,    0,    2,    1,    1 ]
    NB   [     2,    0,    0,    0,    0,    1,    0,    1 ]

  @DF-UKS Final Energy:   -74.92018051605545

   => Energetics <=

    Nuclear Repulsion Energy =             22.1465310668602662
    One-Electron Energy =                -138.6667412932177967
    Two-Electron Energy =                  50.3399133962726921
    DFT Exchange-Correlation Energy =      -8.7398836859706144
    Empirical Dispersion Energy =           0.0000000000000000
    VV10 Nonlocal Energy =                  0.0000000000000000
    Total Energy =                        -74.9201805160554528

  UHF NO Occupations:
  HONO-2 :    1B2u 1.0000000
  HONO-1 :    2B1u 1.0000000
  HONO-0 :    3 Ag 1.0000000
  LUNO+0 :    4 Ag 0.0005439
  LUNO+1 :    2B3u 0.0003654
  LUNO+2 :    3B1u 0.0000014
  LUNO+3 :    5 Ag 0.0000011

Computation Completed

Properties will be evaluated at   0.000000,   0.000000,   0.000000 [a0]

Properties computed using the B3LYP density matrix

 Multipole Moments:

 ------------------------------------------------------------------------------------
     Multipole            Electronic (a.u.)      Nuclear  (a.u.)        Total (a.u.)
 ------------------------------------------------------------------------------------

 L = 1.  Multiply by 2.5417464519 to convert [e a0] to [Debye]
 Dipole X            :          0.0000000            0.0000000            0.0000000
 Dipole Y            :          0.0000000            0.0000000            0.0000000
 Dipole Z            :          0.0000000            0.0000000            0.0000000
 Magnitude           :                                                    0.0000000

 L = 2.  Multiply by 1.3450342976 to convert [e a0^2] to [Debye ang]
 Quadrupole XX       :         -6.0135971            0.0000000           -6.0135971
 Quadrupole XY       :          0.0000000            0.0000000            0.0000000
 Quadrupole XZ       :          0.0000000            0.0000000            0.0000000
 Quadrupole YY       :         -5.1084920            0.0000000           -5.1084920
 Quadrupole YZ       :          0.0000000            0.0000000            0.0000000
 Quadrupole ZZ       :        -12.3723299            7.9271091           -4.4452208
 Traceless XX        :          1.8178759           -2.6423697           -0.8244938
 Traceless YY        :          2.7229810           -2.6423697            0.0806113
 Traceless ZZ        :         -4.5408569            5.2847394            0.7438825

 ------------------------------------------------------------------------------------
  ==> Computing MBIS Charges <==

  Electron Count from Grid (Expected Number): 11.00000 (11.00000)
  Difference:  0.00000

  MBIS Charges: (a.u.)
   Center  Symbol  Z      Pop.       Charge
      1       C    6    5.500000    0.500000
      2       C    6    5.500000    0.500000

  MBIS Dipoles: [e a0]
   Center  Symbol  Z        X           Y           Z
      1       C    6   -0.000000    0.000000   -0.251102
      2       C    6   -0.000000   -0.000000    0.251102

  MBIS Quadrupoles: [e a0^2]
   Center  Symbol  Z      XX        XY        XZ        YY        YZ        ZZ
      1       C    6   -3.0068    0.0000   -0.0000   -2.5542   -0.0000   -2.9611
      2       C    6   -3.0068    0.0000    0.0000   -2.5542    0.0000   -2.9611

  MBIS Octupoles: [e a0^3]
   Center  Symbol  Z      XXX       XXY       XXZ       XYY       XYZ       XZZ       YYY       YYZ       YZZ       ZZZ
      1       C    6   -0.0000   -0.0000   -0.2016   -0.0000    0.0000   -0.0000    0.0000   -0.0819    0.0000   -0.0292
      2       C    6   -0.0000   -0.0000    0.2016   -0.0000   -0.0000   -0.0000    0.0000    0.0819    0.0000    0.0292

  MBIS Radial Moments:
   Center  Symbol  Z      [a0^2]      [a0^3]      [a0^4]
      1       C    6    8.522126   17.282973   42.019134
      2       C    6    8.522126   17.282973   42.019134

  MBIS Valence Widths: [a0]
   Center  Symbol  Z     Width
      1       C    6    0.428871
      2       C    6    0.428871

*** tstop() called on Mac.lan at Sun Aug 10 18:15:54 2025
Module time:
	user time   =       4.21 seconds =       0.07 minutes
	system time =       2.02 seconds =       0.03 minutes
	total time  =          1 seconds =       0.02 minutes
Total time:
	user time   =      15.51 seconds =       0.26 minutes
	system time =       4.21 seconds =       0.07 minutes
	total time  =          2 seconds =       0.03 minutes

    Psi4 stopped on: Sunday, 10 August 2025 06:15PM
    Psi4 wall time for execution: 0:00:01.93

*** Psi4 exiting successfully. Buy a developer a beer!
