                               Psi4 1.9.1 release

  ==> Input File <==

--------------------------------------------------------------------------
molecule {
1 1
O           0.000000           0.000000           0.000000
N           0.000000           0.000000           0.750870
}

set {
basis              cc-pvtz
reference          uks
maxiter            500
DAMPING_PERCENTAGE 1
E_CONVERGENCE      1.0E-8
D_CONVERGENCE      1.0E-8
DIIS_MAX_VECS      400
MBIS_MAXITER       8000
guess              read
}

E, wfn = energy('b3lyp', restart_file='last_wfn', return_wfn=True)
properties('b3lyp','MBIS_CHARGES', wfn=wfn)
wfn.to_file('last_wfn')
--------------------------------------------------------------------------

    Molecular point group: c2v
  Charge       = 1
  Multiplicity = 1
  Basis Set: CC-PVTZ
    Blend: CC-PVTZ
  Basis Set: (CC-PVTZ AUX)
    Blend: CC-PVTZ-JKFIT
  @DF-UKS Final Energy:  -128.88894941083711
    Total Energy =                       -128.8889494108371139
 Dipole X            :          0.0000000            0.0000000            0.0000000
 Dipole Y            :          0.0000000            0.0000000            0.0000000
 Dipole Z            :         -0.0906310           -0.0028470           -0.0934781
 Magnitude           :                                                    0.0934781
    Molecular point group: c2v

    Geometry (in Angstrom), charge = 1, multiplicity = 1:

       Center              X                  Y                   Z               Mass
    ------------   -----------------  -----------------  -----------------  -----------------
         O            0.000000000000     0.000000000000    -0.350506439265    15.994914619570
         N            0.000000000000     0.000000000000     0.400363560735    14.003074004430

  Charge       = 1
  Multiplicity = 1
  Basis Set: CC-PVTZ
    Blend: CC-PVTZ
  Basis Set: (CC-PVTZ AUX)
    Blend: CC-PVTZ-JKFIT

    Orbital Energies [Eh]
    ---------------------

    Alpha Occupied:

       1A1   -19.751486     2A1   -14.880016     3A1    -2.041916
       1B1    -1.215991     1B2    -1.215991     4A1    -1.081829
       5A1    -0.916024

    Alpha Virtual:

       2B2    -0.281833     2B1    -0.281833     6A1    -0.065218
       3B1     0.025658     3B2     0.025658     7A1     0.098529
       8A1     0.204154     4B2     0.319434     4B1     0.319434
       9A1     0.494550     1A2     0.494550    10A1     0.843473
      11A1     0.938868     5B2     0.989471     5B1     0.989471
      12A1     1.281045     2A2     1.281045    13A1     1.630513
       6B2     1.685974     6B1     1.685974     7B1     2.228686
       7B2     2.228686    14A1     2.561838    15A1     2.848450
       8B2     3.256944     8B1     3.256944    16A1     3.454740
      17A1     3.522694     3A2     3.522694     9B1     3.573844
       9B2     3.573844    10B1     3.872369    10B2     3.872369
       4A2     3.933241    18A1     3.933241    19A1     4.282476
      11B1     4.638018    11B2     4.638018    12B1     4.822873
      12B2     4.822873    20A1     5.643536     5A2     5.643537
      21A1     5.696137    13B2     6.240429    13B1     6.240429
      22A1     6.312033     6A2     6.312033    23A1     6.680996
      24A1     7.766738    14B1     8.232206    14B2     8.232206
      25A1    10.008207    26A1    24.829685

    Beta Occupied:

       1A1   -19.751486     2A1   -14.880016     3A1    -2.041916
       1B1    -1.215991     1B2    -1.215991     4A1    -1.081829
       5A1    -0.916024

    Beta Virtual:

       2B2    -0.281833     2B1    -0.281833     6A1    -0.065218
       3B1     0.025658     3B2     0.025658     7A1     0.098529
       8A1     0.204154     4B2     0.319434     4B1     0.319434
       9A1     0.494550     1A2     0.494550    10A1     0.843473
      11A1     0.938868     5B2     0.989471     5B1     0.989471
      12A1     1.281045     2A2     1.281045    13A1     1.630513
       6B2     1.685974     6B1     1.685974     7B1     2.228686
       7B2     2.228686    14A1     2.561838    15A1     2.848450
       8B2     3.256944     8B1     3.256944    16A1     3.454740
      17A1     3.522694     3A2     3.522694     9B1     3.573844
       9B2     3.573844    10B1     3.872369    10B2     3.872369
       4A2     3.933241    18A1     3.933241    19A1     4.282476
      11B1     4.638018    11B2     4.638018    12B1     4.822873
      12B2     4.822873    20A1     5.643536     5A2     5.643537
      21A1     5.696137    13B2     6.240429    13B1     6.240429
      22A1     6.312033     6A2     6.312033    23A1     6.680996
      24A1     7.766738    14B1     8.232206    14B2     8.232206
      25A1    10.008207    26A1    24.829685

    Final Occupation by Irrep:
             A1    A2    B1    B2
    DOCC [     5,    0,    1,    1 ]
    SOCC [     0,    0,    0,    0 ]
    NA   [     5,    0,    1,    1 ]
    NB   [     5,    0,    1,    1 ]

  @DF-UKS Final Energy:  -128.88894941073525

   => Energetics <=

    Nuclear Repulsion Energy =             39.4661177001611492
    One-Electron Energy =                -245.4314994611875989
    Two-Electron Energy =                  89.7191502592257564
    DFT Exchange-Correlation Energy =     -12.6427179089345696
    Empirical Dispersion Energy =           0.0000000000000000
    VV10 Nonlocal Energy =                  0.0000000000000000
    Total Energy =                       -128.8889494107352505

  UHF NO Occupations:
  HONO-2 :    5 A1 2.0000000
  HONO-1 :    1 B2 2.0000000
  HONO-0 :    1 B1 2.0000000
  LUNO+0 :    6 A1 0.0000000
  LUNO+1 :    7 A1 0.0000000
  LUNO+2 :    8 A1 0.0000000
  LUNO+3 :    9 A1 0.0000000

Computation Completed

Properties will be evaluated at   0.000000,   0.000000,   0.000000 [a0]

Properties computed using the B3LYP density matrix

 Multipole Moments:

 ------------------------------------------------------------------------------------
     Multipole            Electronic (a.u.)      Nuclear  (a.u.)        Total (a.u.)
 ------------------------------------------------------------------------------------

 L = 1.  Multiply by 2.5417464519 to convert [e a0] to [Debye]
 Dipole X            :          0.0000000            0.0000000            0.0000000
 Dipole Y            :          0.0000000            0.0000000            0.0000000
 Dipole Z            :         -0.0906310           -0.0028470           -0.0934781
 Magnitude           :                                                    0.0934781

 L = 2.  Multiply by 1.3450342976 to convert [e a0^2] to [Debye ang]
 Quadrupole XX       :         -5.1421936            0.0000000           -5.1421936
 Quadrupole XY       :          0.0000000            0.0000000            0.0000000
 Quadrupole XZ       :          0.0000000            0.0000000            0.0000000
 Quadrupole YY       :         -5.1421936            0.0000000           -5.1421936
 Quadrupole YZ       :          0.0000000            0.0000000            0.0000000
 Quadrupole ZZ       :        -13.2027535            7.5166450           -5.6861085
 Traceless XX        :          2.6868533           -2.5055483            0.1813050
 Traceless YY        :          2.6868533           -2.5055483            0.1813050
 Traceless ZZ        :         -5.3737066            5.0110967           -0.3626099

 ------------------------------------------------------------------------------------
  ==> Computing MBIS Charges <==

  Electron Count from Grid (Expected Number): 14.00000 (14.00000)
  Difference:  0.00000

  MBIS Charges: (a.u.)
   Center  Symbol  Z      Pop.       Charge
      1       O    8    7.495611    0.504389
      2       N    7    6.504390    0.495610

  MBIS Dipoles: [e a0]
   Center  Symbol  Z        X           Y           Z
      1       O    8    0.000000    0.000000   -0.006116
      2       N    7    0.000000    0.000000   -0.128241

  MBIS Quadrupoles: [e a0^2]
   Center  Symbol  Z      XX        XY        XZ        YY        YZ        ZZ
      1       O    8   -2.4968   -0.0000   -0.0000   -2.4968   -0.0000   -2.8399
      2       N    7   -2.6454   -0.0000   -0.0000   -2.6454   -0.0000   -3.1653

  MBIS Octupoles: [e a0^3]
   Center  Symbol  Z      XXX       XXY       XXZ       XYY       XYZ       XZZ       YYY       YYZ       YZZ       ZZZ
      1       O    8   -0.0000   -0.0000    0.0342    0.0000   -0.0000    0.0000   -0.0000    0.0342    0.0000    0.1436
      2       N    7   -0.0000   -0.0000   -0.1524   -0.0000   -0.0000   -0.0000   -0.0000   -0.1524    0.0000   -0.4590

  MBIS Radial Moments:
   Center  Symbol  Z      [a0^2]      [a0^3]      [a0^4]
      1       O    8    7.833361   12.509589   23.986177
      2       N    7    8.456167   15.400062   33.617768

  MBIS Valence Widths: [a0]
   Center  Symbol  Z     Width
      1       O    8    0.332925
      2       N    7    0.379875

*** tstop() called on Mac.lan at Sun Aug 10 18:41:35 2025
Module time:
	user time   =      18.75 seconds =       0.31 minutes
	system time =       2.08 seconds =       0.03 minutes
	total time  =          3 seconds =       0.05 minutes
Total time:
	user time   =      72.49 seconds =       1.21 minutes
	system time =       5.30 seconds =       0.09 minutes
	total time  =          9 seconds =       0.15 minutes

    Psi4 stopped on: Sunday, 10 August 2025 06:41PM
    Psi4 wall time for execution: 0:00:08.24

*** Psi4 exiting successfully. Buy a developer a beer!
