                               Psi4 1.9.1 release

  ==> Input File <==

--------------------------------------------------------------------------
molecule {
1 1
O           0.000000           0.000000           0.000000
N           0.000000           0.000000           0.847965
}

set {
basis              cc-pvtz
reference          uks
maxiter            500
DAMPING_PERCENTAGE 1
E_CONVERGENCE      1.0E-8
D_CONVERGENCE      1.0E-8
DIIS_MAX_VECS      400
MBIS_MAXITER       8000
guess              read
}

E, wfn = energy('b3lyp', restart_file='last_wfn', return_wfn=True)
properties('b3lyp','MBIS_CHARGES', wfn=wfn)
wfn.to_file('last_wfn')
--------------------------------------------------------------------------

    Molecular point group: c2v
  Charge       = 1
  Multiplicity = 1
  Basis Set: CC-PVTZ
    Blend: CC-PVTZ
  Basis Set: (CC-PVTZ AUX)
    Blend: CC-PVTZ-JKFIT
  @DF-UKS Final Energy:  -129.34441872931279
    Total Energy =                       -129.3444187293127925
 Dipole X            :          0.0000000            0.0000000            0.0000000
 Dipole Y            :          0.0000000            0.0000000            0.0000000
 Dipole Z            :         -0.0210240           -0.0032152           -0.0242392
 Magnitude           :                                                    0.0242392
    Molecular point group: c2v

    Geometry (in Angstrom), charge = 1, multiplicity = 1:

       Center              X                  Y                   Z               Mass
    ------------   -----------------  -----------------  -----------------  -----------------
         O            0.000000000000     0.000000000000    -0.395830427066    15.994914619570
         N            0.000000000000     0.000000000000     0.452134572934    14.003074004430

  Charge       = 1
  Multiplicity = 1
  Basis Set: CC-PVTZ
    Blend: CC-PVTZ
  Basis Set: (CC-PVTZ AUX)
    Blend: CC-PVTZ-JKFIT

    Orbital Energies [Eh]
    ---------------------

    Alpha Occupied:

       1A1   -19.754481     2A1   -14.897052     3A1    -1.978548
       1B2    -1.128765     1B1    -1.128765     4A1    -1.081424
       5A1    -0.922537

    Alpha Virtual:

       2B1    -0.362199     2B2    -0.362199     6A1    -0.062499
       3B2     0.046110     3B1     0.046110     7A1     0.110097
       8A1     0.197773     4B2     0.299900     4B1     0.299900
       9A1     0.501908     1A2     0.501908    10A1     0.715697
      11A1     0.860540     5B1     0.923573     5B2     0.923573
      12A1     1.239124     2A2     1.239124    13A1     1.598541
       6B1     1.706972     6B2     1.706972    14A1     2.180025
       7B2     2.284494     7B1     2.284494    15A1     2.800721
       8B2     3.281448     8B1     3.281448    16A1     3.296640
       9B2     3.443462     9B1     3.443462    17A1     3.469125
       3A2     3.469125    10B1     3.764477    10B2     3.764477
      18A1     3.935067     4A2     3.935068    19A1     4.240484
      11B2     4.472103    11B1     4.472103    12B1     4.735226
      12B2     4.735226    20A1     5.416106     5A2     5.679853
      21A1     5.679854    22A1     5.902092     6A2     5.902092
      13B1     6.140199    13B2     6.140199    23A1     6.465589
      24A1     7.123828    14B2     7.797523    14B1     7.797523
      25A1     9.034822    26A1    22.104291

    Beta Occupied:

       1A1   -19.754481     2A1   -14.897052     3A1    -1.978548
       1B2    -1.128765     1B1    -1.128765     4A1    -1.081424
       5A1    -0.922537

    Beta Virtual:

       2B1    -0.362199     2B2    -0.362199     6A1    -0.062499
       3B2     0.046110     3B1     0.046110     7A1     0.110097
       8A1     0.197773     4B2     0.299900     4B1     0.299900
       9A1     0.501908     1A2     0.501908    10A1     0.715697
      11A1     0.860540     5B1     0.923573     5B2     0.923573
      12A1     1.239124     2A2     1.239124    13A1     1.598541
       6B1     1.706972     6B2     1.706972    14A1     2.180025
       7B2     2.284494     7B1     2.284494    15A1     2.800721
       8B2     3.281448     8B1     3.281448    16A1     3.296640
       9B2     3.443462     9B1     3.443462    17A1     3.469125
       3A2     3.469125    10B1     3.764477    10B2     3.764477
      18A1     3.935067     4A2     3.935068    19A1     4.240484
      11B2     4.472103    11B1     4.472103    12B1     4.735226
      12B2     4.735226    20A1     5.416106     5A2     5.679853
      21A1     5.679854    22A1     5.902092     6A2     5.902092
      13B1     6.140199    13B2     6.140199    23A1     6.465589
      24A1     7.123828    14B2     7.797523    14B1     7.797523
      25A1     9.034822    26A1    22.104291

    Final Occupation by Irrep:
             A1    A2    B1    B2
    DOCC [     5,    0,    1,    1 ]
    SOCC [     0,    0,    0,    0 ]
    NA   [     5,    0,    1,    1 ]
    NB   [     5,    0,    1,    1 ]

  @DF-UKS Final Energy:  -129.34441872671775

   => Energetics <=

    Nuclear Repulsion Energy =             34.9471072479642473
    One-Electron Energy =                -237.8718387645764665
    Two-Electron Energy =                  86.0134533620119299
    DFT Exchange-Correlation Energy =     -12.4331405721174537
    Empirical Dispersion Energy =           0.0000000000000000
    VV10 Nonlocal Energy =                  0.0000000000000000
    Total Energy =                       -129.3444187267177483

  UHF NO Occupations:
  HONO-2 :    1 B2 2.0000000
  HONO-1 :    4 A1 2.0000000
  HONO-0 :    5 A1 2.0000000
  LUNO+0 :    6 A1 0.0000000
  LUNO+1 :    7 A1 0.0000000
  LUNO+2 :    8 A1 0.0000000
  LUNO+3 :    9 A1 0.0000000

Computation Completed

Properties will be evaluated at   0.000000,   0.000000,   0.000000 [a0]

Properties computed using the B3LYP density matrix

 Multipole Moments:

 ------------------------------------------------------------------------------------
     Multipole            Electronic (a.u.)      Nuclear  (a.u.)        Total (a.u.)
 ------------------------------------------------------------------------------------

 L = 1.  Multiply by 2.5417464519 to convert [e a0] to [Debye]
 Dipole X            :          0.0000000            0.0000000            0.0000000
 Dipole Y            :          0.0000000            0.0000000            0.0000000
 Dipole Z            :         -0.0210240           -0.0032152           -0.0242392
 Magnitude           :                                                    0.0242392

 L = 2.  Multiply by 1.3450342976 to convert [e a0^2] to [Debye ang]
 Quadrupole XX       :         -5.3828165            0.0000000           -5.3828165
 Quadrupole XY       :          0.0000000            0.0000000            0.0000000
 Quadrupole XZ       :          0.0000000            0.0000000            0.0000000
 Quadrupole YY       :         -5.3828165            0.0000000           -5.3828165
 Quadrupole YZ       :          0.0000000            0.0000000            0.0000000
 Quadrupole ZZ       :        -15.2473824            9.5862861           -5.6610963
 Traceless XX        :          3.2881886           -3.1954287            0.0927599
 Traceless YY        :          3.2881886           -3.1954287            0.0927599
 Traceless ZZ        :         -6.5763773            6.3908574           -0.1855199

 ------------------------------------------------------------------------------------
  ==> Computing MBIS Charges <==

  Electron Count from Grid (Expected Number): 14.00000 (14.00000)
  Difference: -0.00000

  MBIS Charges: (a.u.)
   Center  Symbol  Z      Pop.       Charge
      1       O    8    7.541849    0.458151
      2       N    7    6.458150    0.541850

  MBIS Dipoles: [e a0]
   Center  Symbol  Z        X           Y           Z
      1       O    8    0.000000    0.000000   -0.031968
      2       N    7   -0.000000   -0.000000   -0.112532

  MBIS Quadrupoles: [e a0^2]
   Center  Symbol  Z      XX        XY        XZ        YY        YZ        ZZ
      1       O    8   -2.6571    0.0000    0.0000   -2.6571    0.0000   -2.9567
      2       N    7   -2.7257    0.0000   -0.0000   -2.7257   -0.0000   -3.2118

  MBIS Octupoles: [e a0^3]
   Center  Symbol  Z      XXX       XXY       XXZ       XYY       XYZ       XZZ       YYY       YYZ       YZZ       ZZZ
      1       O    8    0.0000    0.0000    0.0089    0.0000   -0.0000    0.0000   -0.0000    0.0089   -0.0000    0.0421
      2       N    7    0.0000    0.0000   -0.1047    0.0000   -0.0000    0.0000   -0.0000   -0.1047   -0.0000   -0.3416

  MBIS Radial Moments:
   Center  Symbol  Z      [a0^2]      [a0^3]      [a0^4]
      1       O    8    8.270950   13.498674   26.418227
      2       N    7    8.663213   15.963638   35.177373

  MBIS Valence Widths: [a0]
   Center  Symbol  Z     Width
      1       O    8    0.341727
      2       N    7    0.387598

*** tstop() called on Mac.lan at Sun Aug 10 18:40:46 2025
Module time:
	user time   =       4.33 seconds =       0.07 minutes
	system time =       1.89 seconds =       0.03 minutes
	total time  =          0 seconds =       0.00 minutes
Total time:
	user time   =      19.62 seconds =       0.33 minutes
	system time =       4.19 seconds =       0.07 minutes
	total time  =          2 seconds =       0.03 minutes

    Psi4 stopped on: Sunday, 10 August 2025 06:40PM
    Psi4 wall time for execution: 0:00:02.35

*** Psi4 exiting successfully. Buy a developer a beer!
