                               Psi4 1.9.1 release

  ==> Input File <==

--------------------------------------------------------------------------
molecule {
1 2
O           0.000000           0.000000           0.000000
C           0.000000           0.000000           1.664986
}

set {
basis              cc-pvtz
reference          uks
maxiter            500
DAMPING_PERCENTAGE 1
E_CONVERGENCE      1.0E-8
D_CONVERGENCE      1.0E-8
DIIS_MAX_VECS      400
MBIS_MAXITER       8000
guess              read
}

E, wfn = energy('b3lyp', restart_file='last_wfn', return_wfn=True)
properties('b3lyp','MBIS_CHARGES', wfn=wfn)
wfn.to_file('last_wfn')
--------------------------------------------------------------------------

    Molecular point group: c2v
  Charge       = 1
  Multiplicity = 2
  Basis Set: CC-PVTZ
    Blend: CC-PVTZ
  Basis Set: (CC-PVTZ AUX)
    Blend: CC-PVTZ-JKFIT
  @DF-UKS Final Energy:  -112.62276329372261
    Total Energy =                       -112.6227632937226133
 Dipole X            :          0.0000000            0.0000000            0.0000000
 Dipole Y            :          0.0000000            0.0000000            0.0000000
 Dipole Z            :          1.1448650           -0.0034293            1.1414357
 Magnitude           :                                                    1.1414357
    Molecular point group: c2v

    Geometry (in Angstrom), charge = 1, multiplicity = 2:

       Center              X                  Y                   Z               Mass
    ------------   -----------------  -----------------  -----------------  -----------------
         O            0.000000000000     0.000000000000    -0.713695050387    15.994914619570
         C            0.000000000000     0.000000000000     0.951290949613    12.000000000000

  Charge       = 1
  Multiplicity = 2
  Basis Set: CC-PVTZ
    Blend: CC-PVTZ
  Basis Set: (CC-PVTZ AUX)
    Blend: CC-PVTZ-JKFIT

    Orbital Energies [Eh]
    ---------------------

    Alpha Occupied:

       1A1   -19.673928     2A1   -10.843549     3A1    -1.391615
       4A1    -0.984907     5A1    -0.815523     1B1    -0.770493
       1B2    -0.770493

    Alpha Virtual:

       2B2    -0.513972     2B1    -0.513972     6A1    -0.397264
       7A1    -0.005844     3B2     0.023159     3B1     0.023159
       8A1     0.034386     9A1     0.247620     4B2     0.267648
       4B1     0.267648     1A2     0.333423    10A1     0.333423
       5B2     0.415450     5B1     0.415450    11A1     0.590980
      12A1     0.875448     2A2     1.098418    13A1     1.098418
       6B1     1.221082     6B2     1.221082    14A1     1.338910
       7B2     1.574209     7B1     1.574209    15A1     1.918907
       3A2     2.274341    16A1     2.274341     8B1     2.277322
       8B2     2.277322    17A1     2.380231     9B2     2.385040
       9B1     2.385040    18A1     2.514099     4A2     2.514102
      10B2     2.645945    10B1     2.645945    19A1     2.730035
      11B1     3.227330    11B2     3.227330    20A1     3.287499
      21A1     4.126430    12B2     4.699776    12B1     4.699776
      22A1     4.705091     5A2     4.705093    13B1     4.876582
      13B2     4.876582    23A1     5.162935     6A2     5.732354
      24A1     5.732388    14B1     5.967848    14B2     5.967848
      25A1     6.450229    26A1     7.728328

    Beta Occupied:

       1A1   -19.637664     2A1   -10.847635     3A1    -1.300429
       4A1    -0.958797     1B2    -0.704348     1B1    -0.704348

    Beta Virtual:

       5A1    -0.637413     2B1    -0.533117     2B2    -0.533117
       6A1    -0.334166     7A1     0.005628     3B1     0.010968
       3B2     0.010968     8A1     0.042437     9A1     0.279126
       4B2     0.291306     4B1     0.291306     1A2     0.307116
      10A1     0.307116     5B2     0.429598     5B1     0.429598
      11A1     0.619773    12A1     0.914110     2A2     1.135633
      13A1     1.135634     6B1     1.260810     6B2     1.260810
      14A1     1.385300     7B1     1.551250     7B2     1.551250
      15A1     1.943802     8B1     2.235864     8B2     2.235864
      16A1     2.259546     3A2     2.259546     9B1     2.378341
       9B2     2.378341    17A1     2.418719    18A1     2.465927
       4A2     2.465931    10B1     2.675387    10B2     2.675387
      19A1     2.779836    11B2     3.285582    11B1     3.285582
      20A1     3.314279    21A1     4.179097    12B1     4.749201
      12B2     4.749201    22A1     4.767131     5A2     4.767132
      13B1     4.947416    13B2     4.947416    23A1     5.245394
       6A2     5.810282    24A1     5.810316    14B2     6.070171
      14B1     6.070171    25A1     6.553655    26A1     7.782926

    Final Occupation by Irrep:
             A1    A2    B1    B2
    DOCC [     4,    0,    1,    1 ]
    SOCC [     1,    0,    0,    0 ]
    NA   [     5,    0,    1,    1 ]
    NB   [     4,    0,    1,    1 ]

  @DF-UKS Final Energy:  -112.62276328876241

   => Energetics <=

    Nuclear Repulsion Energy =             15.2556875025735952
    One-Electron Energy =                -178.6442602236900825
    Two-Electron Energy =                  61.4657899473401059
    DFT Exchange-Correlation Energy =     -10.6999805149860396
    Empirical Dispersion Energy =           0.0000000000000000
    VV10 Nonlocal Energy =                  0.0000000000000000
    Total Energy =                       -112.6227632887623997

  UHF NO Occupations:
  HONO-2 :    1 B2 1.9138630
  HONO-1 :    1 B1 1.9138630
  HONO-0 :    5 A1 1.0000000
  LUNO+0 :    2 B1 0.0861370
  LUNO+1 :    2 B2 0.0861370
  LUNO+2 :    6 A1 0.0128049
  LUNO+3 :    7 A1 0.0002968

Computation Completed

Properties will be evaluated at   0.000000,   0.000000,   0.000000 [a0]

Properties computed using the B3LYP density matrix

 Multipole Moments:

 ------------------------------------------------------------------------------------
     Multipole            Electronic (a.u.)      Nuclear  (a.u.)        Total (a.u.)
 ------------------------------------------------------------------------------------

 L = 1.  Multiply by 2.5417464519 to convert [e a0] to [Debye]
 Dipole X            :          0.0000000            0.0000000            0.0000000
 Dipole Y            :          0.0000000            0.0000000            0.0000000
 Dipole Z            :          1.1448652           -0.0034293            1.1414359
 Magnitude           :                                                    1.1414359

 L = 2.  Multiply by 1.3450342976 to convert [e a0^2] to [Debye ang]
 Quadrupole XX       :         -6.7042395            0.0000000           -6.7042395
 Quadrupole XY       :          0.0000000            0.0000000            0.0000000
 Quadrupole XZ       :          0.0000000            0.0000000            0.0000000
 Quadrupole YY       :         -6.7042395            0.0000000           -6.7042395
 Quadrupole YZ       :          0.0000000            0.0000000            0.0000000
 Quadrupole ZZ       :        -36.0691525           33.9415850           -2.1275675
 Traceless XX        :          9.7883043          -11.3138617           -1.5255573
 Traceless YY        :          9.7883043          -11.3138617           -1.5255573
 Traceless ZZ        :        -19.5766087           22.6277233            3.0511147

 ------------------------------------------------------------------------------------
  ==> Computing MBIS Charges <==

  Electron Count from Grid (Expected Number): 13.00000 (13.00000)
  Difference: -0.00000

  MBIS Charges: (a.u.)
   Center  Symbol  Z      Pop.       Charge
      1       O    8    7.847611    0.152389
      2       C    6    5.152388    0.847612

  MBIS Dipoles: [e a0]
   Center  Symbol  Z        X           Y           Z
      1       O    8    0.000000    0.000000   -0.321222
      2       C    6    0.000000    0.000000    0.144446

  MBIS Quadrupoles: [e a0^2]
   Center  Symbol  Z      XX        XY        XZ        YY        YZ        ZZ
      1       O    8   -3.6514   -0.0000   -0.0000   -3.6514    0.0000   -3.3993
      2       C    6   -3.0529    0.0000    0.0000   -3.0529    0.0000   -3.1304

  MBIS Octupoles: [e a0^3]
   Center  Symbol  Z      XXX       XXY       XXZ       XYY       XYZ       XZZ       YYY       YYZ       YZZ       ZZZ
      1       O    8    0.0000   -0.0000   -0.3040    0.0000    0.0000   -0.0000   -0.0000   -0.3040   -0.0000   -0.9798
      2       C    6   -0.0000   -0.0000    0.3547    0.0000    0.0000    0.0000    0.0000    0.3547    0.0000    0.7817

  MBIS Radial Moments:
   Center  Symbol  Z      [a0^2]      [a0^3]      [a0^4]
      1       O    8   10.701995   19.732305   43.562855
      2       C    6    9.236218   20.370967   53.510322

  MBIS Valence Widths: [a0]
   Center  Symbol  Z     Width
      1       O    8    0.380622
      2       C    6    0.475170

*** tstop() called on Mac.lan at Sun Aug 10 18:39:20 2025
Module time:
	user time   =       3.60 seconds =       0.06 minutes
	system time =       2.22 seconds =       0.04 minutes
	total time  =          1 seconds =       0.02 minutes
Total time:
	user time   =      18.43 seconds =       0.31 minutes
	system time =       4.52 seconds =       0.08 minutes
	total time  =          3 seconds =       0.05 minutes

    Psi4 stopped on: Sunday, 10 August 2025 06:39PM
    Psi4 wall time for execution: 0:00:02.22

*** Psi4 exiting successfully. Buy a developer a beer!
