                               Psi4 1.9.1 release

  ==> Input File <==

--------------------------------------------------------------------------
molecule {
1 2
H           0.000000           0.000000           0.000000
H           0.000000           0.000000           1.159231
}

set {
basis              cc-pvtz
reference          uks
maxiter            500
DAMPING_PERCENTAGE 1
E_CONVERGENCE      1.0E-8
D_CONVERGENCE      1.0E-8
DIIS_MAX_VECS      400
MBIS_MAXITER       8000
guess              SAP
}

E, wfn = energy('b3lyp', return_wfn=True)
properties('b3lyp','MBIS_CHARGES', wfn=wfn)
wfn.to_file('last_wfn')
--------------------------------------------------------------------------

    Molecular point group: d2h
  Charge       = 1
  Multiplicity = 2
  Basis Set: CC-PVTZ
    Blend: CC-PVTZ
  Basis Set: (CC-PVTZ AUX)
    Blend: CC-PVTZ-JKFIT
  @DF-UKS Final Energy:    -0.60999551390038
    Total Energy =                         -0.6099955139003793
 Dipole X            :          0.0000000            0.0000000            0.0000000
 Dipole Y            :          0.0000000            0.0000000            0.0000000
 Dipole Z            :          0.0000000            0.0000000            0.0000000
 Magnitude           :                                                    0.0000000
    Molecular point group: d2h

    Geometry (in Angstrom), charge = 1, multiplicity = 2:

       Center              X                  Y                   Z               Mass
    ------------   -----------------  -----------------  -----------------  -----------------
         H            0.000000000000     0.000000000000    -0.579615500000     1.007825032230
         H            0.000000000000     0.000000000000     0.579615500000     1.007825032230

  Charge       = 1
  Multiplicity = 2
  Basis Set: CC-PVTZ
    Blend: CC-PVTZ
  Basis Set: (CC-PVTZ AUX)
    Blend: CC-PVTZ-JKFIT

    Orbital Energies [Eh]
    ---------------------

    Alpha Occupied:

       1Ag    -0.883776

    Alpha Virtual:

       1B1u   -0.449174     2Ag    -0.083082     2B1u    0.028135
       1B2u    0.067485     1B3u    0.067485     3Ag     0.344299
       1B3g    0.445229     1B2g    0.445229     3B1u    0.871934
       4Ag     1.741596     4B1u    1.889895     2B2u    2.337271
       2B3u    2.337271     5Ag     2.405434     6Ag     2.509007
       1B1g    2.509007     5B1u    2.933962     1Au     2.933962
       3B3u    3.074578     3B2u    3.074578     2B3g    3.151509
       2B2g    3.151509     6B1u    3.288436     3B3g    3.765100
       3B2g    3.765100     7Ag     3.871262     7B1u    5.036154

    Beta Occupied:

    Beta Virtual:

       1Ag    -0.544705     1B1u   -0.255398     2Ag     0.008509
       2B1u    0.143546     1B2u    0.207130     1B3u    0.207130
       3Ag     0.484723     1B3g    0.561295     1B2g    0.561295
       3B1u    0.992774     4Ag     2.039371     4B1u    2.180617
       2B2u    2.544879     2B3u    2.544879     5Ag     2.672822
       1B1g    2.695620     6Ag     2.695621     1Au     3.118141
       5B1u    3.118142     3B2u    3.321365     3B3u    3.321365
       2B3g    3.405773     2B2g    3.405773     6B1u    3.514815
       3B3g    3.959155     3B2g    3.959155     7Ag     4.097499
       7B1u    5.276919

    Final Occupation by Irrep:
             Ag   B1g   B2g   B3g    Au   B1u   B2u   B3u
    DOCC [     0,    0,    0,    0,    0,    0,    0,    0 ]
    SOCC [     1,    0,    0,    0,    0,    0,    0,    0 ]
    NA   [     1,    0,    0,    0,    0,    0,    0,    0 ]
    NB   [     0,    0,    0,    0,    0,    0,    0,    0 ]

  @DF-UKS Final Energy:    -0.60999551390038

   => Energetics <=

    Nuclear Repulsion Energy =              0.4564898718805830
    One-Electron Energy =                  -1.0559699917495564
    Two-Electron Energy =                   0.2531668271069772
    DFT Exchange-Correlation Energy =      -0.2636822211383831
    Empirical Dispersion Energy =           0.0000000000000000
    VV10 Nonlocal Energy =                  0.0000000000000000
    Total Energy =                         -0.6099955139003793

  UHF NO Occupations:
  HONO-0 :    1 Ag 1.0000000
  LUNO+0 :    2 Ag 0.0000000
  LUNO+1 :    3 Ag 0.0000000
  LUNO+2 :    4 Ag 0.0000000
  LUNO+3 :    5 Ag 0.0000000

Computation Completed

Properties will be evaluated at   0.000000,   0.000000,   0.000000 [a0]

Properties computed using the B3LYP density matrix

 Multipole Moments:

 ------------------------------------------------------------------------------------
     Multipole            Electronic (a.u.)      Nuclear  (a.u.)        Total (a.u.)
 ------------------------------------------------------------------------------------

 L = 1.  Multiply by 2.5417464519 to convert [e a0] to [Debye]
 Dipole X            :          0.0000000            0.0000000            0.0000000
 Dipole Y            :          0.0000000            0.0000000            0.0000000
 Dipole Z            :          0.0000000            0.0000000            0.0000000
 Magnitude           :                                                    0.0000000

 L = 2.  Multiply by 1.3450342976 to convert [e a0^2] to [Debye ang]
 Quadrupole XX       :         -0.6600327            0.0000000           -0.6600327
 Quadrupole XY       :          0.0000000            0.0000000            0.0000000
 Quadrupole XZ       :          0.0000000            0.0000000            0.0000000
 Quadrupole YY       :         -0.6600327            0.0000000           -0.6600327
 Quadrupole YZ       :          0.0000000            0.0000000            0.0000000
 Quadrupole ZZ       :         -1.3313117            2.3994279            1.0681162
 Traceless XX        :          0.2237597           -0.7998093           -0.5760496
 Traceless YY        :          0.2237597           -0.7998093           -0.5760496
 Traceless ZZ        :         -0.4475194            1.5996186            1.1520993

 ------------------------------------------------------------------------------------
  ==> Computing MBIS Charges <==

  Electron Count from Grid (Expected Number):  1.00000 ( 1.00000)
  Difference: -0.00000

  MBIS Charges: (a.u.)
   Center  Symbol  Z      Pop.       Charge
      1       H    1    0.500000    0.500000
      2       H    1    0.500000    0.500000

  MBIS Dipoles: [e a0]
   Center  Symbol  Z        X           Y           Z
      1       H    1    0.000000    0.000000   -0.115972
      2       H    1    0.000000    0.000000    0.115972

  MBIS Quadrupoles: [e a0^2]
   Center  Symbol  Z      XX        XY        XZ        YY        YZ        ZZ
      1       H    1   -0.3300    0.0000   -0.0000   -0.3300   -0.0000   -0.3199
      2       H    1   -0.3300    0.0000    0.0000   -0.3300    0.0000   -0.3199

  MBIS Octupoles: [e a0^3]
   Center  Symbol  Z      XXX       XXY       XXZ       XYY       XYZ       XZZ       YYY       YYZ       YZZ       ZZZ
      1       H    1    0.0000    0.0000   -0.0817    0.0000   -0.0000    0.0000    0.0000   -0.0817    0.0000   -0.1698
      2       H    1    0.0000    0.0000    0.0817    0.0000    0.0000    0.0000    0.0000    0.0817    0.0000    0.1698

  MBIS Radial Moments:
   Center  Symbol  Z      [a0^2]      [a0^3]      [a0^4]
      1       H    1    0.979883    1.898851    4.366674
      2       H    1    0.979883    1.898851    4.366674

  MBIS Valence Widths: [a0]
   Center  Symbol  Z     Width
      1       H    1    0.411597
      2       H    1    0.411597

*** tstop() called on Mac.lan at Sun Aug 10 18:11:34 2025
Module time:
	user time   =       0.74 seconds =       0.01 minutes
	system time =       2.19 seconds =       0.04 minutes
	total time  =          0 seconds =       0.00 minutes
Total time:
	user time   =       1.79 seconds =       0.03 minutes
	system time =       4.17 seconds =       0.07 minutes
	total time  =          1 seconds =       0.02 minutes

    Psi4 stopped on: Sunday, 10 August 2025 06:11PM
    Psi4 wall time for execution: 0:00:00.88

*** Psi4 exiting successfully. Buy a developer a beer!
