                               Psi4 1.9.1 release

  ==> Input File <==

--------------------------------------------------------------------------
molecule {
1 2
O           0.000000           0.000000           0.000000
C           0.000000           0.000000           1.094134
}

set {
basis              cc-pvtz
reference          uks
maxiter            500
DAMPING_PERCENTAGE 1
E_CONVERGENCE      1.0E-8
D_CONVERGENCE      1.0E-8
DIIS_MAX_VECS      400
MBIS_MAXITER       8000
guess              read
}

E, wfn = energy('b3lyp', restart_file='last_wfn', return_wfn=True)
properties('b3lyp','MBIS_CHARGES', wfn=wfn)
wfn.to_file('last_wfn')
--------------------------------------------------------------------------

    Molecular point group: c2v
  Charge       = 1
  Multiplicity = 2
  Basis Set: CC-PVTZ
    Blend: CC-PVTZ
  Basis Set: (CC-PVTZ AUX)
    Blend: CC-PVTZ-JKFIT
  @DF-UKS Final Energy:  -112.83662117204435
    Total Energy =                       -112.8366211720443459
 Dipole X            :          0.0000000            0.0000000            0.0000000
 Dipole Y            :          0.0000000            0.0000000            0.0000000
 Dipole Z            :          1.0679018           -0.0022535            1.0656482
 Magnitude           :                                                    1.0656482
    Molecular point group: c2v

    Geometry (in Angstrom), charge = 1, multiplicity = 2:

       Center              X                  Y                   Z               Mass
    ------------   -----------------  -----------------  -----------------  -----------------
         O            0.000000000000     0.000000000000    -0.468999751506    15.994914619570
         C            0.000000000000     0.000000000000     0.625134248494    12.000000000000

  Charge       = 1
  Multiplicity = 2
  Basis Set: CC-PVTZ
    Blend: CC-PVTZ
  Basis Set: (CC-PVTZ AUX)
    Blend: CC-PVTZ-JKFIT

    Orbital Energies [Eh]
    ---------------------

    Alpha Occupied:

       1A1   -19.651780     2A1   -10.791557     3A1    -1.585993
       4A1    -0.965753     1B2    -0.874294     1B1    -0.874294
       5A1    -0.866553

    Alpha Virtual:

       2B1    -0.424649     2B2    -0.424649     6A1    -0.116735
       7A1    -0.022091     3B1    -0.011759     3B2    -0.011759
       8A1     0.214191     9A1     0.276935    10A1     0.277357
       1A2     0.277357     4B1     0.329705     4B2     0.329705
       5B2     0.495320     5B1     0.495320    11A1     0.797273
      12A1     0.961960     2A2     1.162217    13A1     1.162217
       6B2     1.486054     6B1     1.486054    14A1     1.506468
       7B1     1.609551     7B2     1.609551    15A1     2.065906
       8B1     2.217634     8B2     2.217634    16A1     2.419855
       3A2     2.419856    17A1     2.467665     4A2     2.467665
       9B2     2.485210     9B1     2.485210    18A1     2.647040
      10B1     2.851069    10B2     2.851069    19A1     2.961661
      11B2     3.705472    11B1     3.705472    20A1     4.127841
      12B1     4.714814    12B2     4.714814     5A2     5.143416
      21A1     5.143417    22A1     5.736067    23A1     5.853891
       6A2     5.853896    13B2     5.913580    13B1     5.913580
      14B2     6.347998    14B1     6.347998    24A1     6.405483
      25A1     6.718686    26A1    12.285495

    Beta Occupied:

       1A1   -19.652469     2A1   -10.766556     3A1    -1.578160
       4A1    -0.934237     1B2    -0.869714     1B1    -0.869714

    Beta Virtual:

       5A1    -0.647464     2B1    -0.382479     2B2    -0.382479
       6A1    -0.101464     3B1    -0.001004     3B2    -0.001004
       7A1     0.018120     8A1     0.253996     9A1     0.294900
      10A1     0.297899     1A2     0.297899     4B1     0.327312
       4B2     0.327312     5B2     0.532531     5B1     0.532531
      11A1     0.806041    12A1     0.996085     2A2     1.162150
      13A1     1.162150     6B2     1.513439     6B1     1.513439
      14A1     1.563304     7B1     1.620064     7B2     1.620064
      15A1     2.111026     8B1     2.253354     8B2     2.253354
      16A1     2.439107     3A2     2.439107    17A1     2.545674
       4A2     2.545675     9B2     2.587874     9B1     2.587874
      18A1     2.726011    10B1     2.875494    10B2     2.875494
      19A1     3.031073    11B2     3.717336    11B1     3.717336
      20A1     4.152904    12B1     4.705111    12B2     4.705111
       5A2     5.144971    21A1     5.144972    22A1     5.756622
      23A1     5.841529     6A2     5.841534    13B2     5.927191
      13B1     5.927191    14B2     6.356348    14B1     6.356348
      24A1     6.414238    25A1     6.732731    26A1    12.308335

    Final Occupation by Irrep:
             A1    A2    B1    B2
    DOCC [     4,    0,    1,    1 ]
    SOCC [     1,    0,    0,    0 ]
    NA   [     5,    0,    1,    1 ]
    NB   [     4,    0,    1,    1 ]

  @DF-UKS Final Energy:  -112.83662117363730

   => Energetics <=

    Nuclear Repulsion Energy =             23.2151693596579598
    One-Electron Energy =                -193.9355905745729274
    Two-Electron Energy =                  68.8487504241551989
    DFT Exchange-Correlation Energy =     -10.9649503828775252
    Empirical Dispersion Energy =           0.0000000000000000
    VV10 Nonlocal Energy =                  0.0000000000000000
    Total Energy =                       -112.8366211736372975

  UHF NO Occupations:
  HONO-2 :    1 B2 1.9967525
  HONO-1 :    1 B1 1.9967525
  HONO-0 :    5 A1 1.0000000
  LUNO+0 :    2 B1 0.0032475
  LUNO+1 :    2 B2 0.0032475
  LUNO+2 :    6 A1 0.0002225
  LUNO+3 :    7 A1 0.0000192

Computation Completed

Properties will be evaluated at   0.000000,   0.000000,   0.000000 [a0]

Properties computed using the B3LYP density matrix

 Multipole Moments:

 ------------------------------------------------------------------------------------
     Multipole            Electronic (a.u.)      Nuclear  (a.u.)        Total (a.u.)
 ------------------------------------------------------------------------------------

 L = 1.  Multiply by 2.5417464519 to convert [e a0] to [Debye]
 Dipole X            :          0.0000000            0.0000000            0.0000000
 Dipole Y            :          0.0000000            0.0000000            0.0000000
 Dipole Z            :          1.0679017           -0.0022535            1.0656482
 Magnitude           :                                                    1.0656482

 L = 2.  Multiply by 1.3450342976 to convert [e a0^2] to [Debye ang]
 Quadrupole XX       :         -5.8812137            0.0000000           -5.8812137
 Quadrupole XY       :          0.0000000            0.0000000            0.0000000
 Quadrupole XZ       :          0.0000000            0.0000000            0.0000000
 Quadrupole YY       :         -5.8812137            0.0000000           -5.8812137
 Quadrupole YZ       :          0.0000000            0.0000000            0.0000000
 Quadrupole ZZ       :        -18.7298407           14.6572324           -4.0726083
 Traceless XX        :          4.2828757           -4.8857441           -0.6028685
 Traceless YY        :          4.2828757           -4.8857441           -0.6028685
 Traceless ZZ        :         -8.5657513            9.7714883            1.2057370

 ------------------------------------------------------------------------------------
  ==> Computing MBIS Charges <==

  Electron Count from Grid (Expected Number): 13.00000 (13.00000)
  Difference:  0.00000

  MBIS Charges: (a.u.)
   Center  Symbol  Z      Pop.       Charge
      1       O    8    8.018539   -0.018539
      2       C    6    4.981462    1.018538

  MBIS Dipoles: [e a0]
   Center  Symbol  Z        X           Y           Z
      1       O    8   -0.000000   -0.000000   -0.277821
      2       C    6    0.000000    0.000000    0.123806

  MBIS Quadrupoles: [e a0^2]
   Center  Symbol  Z      XX        XY        XZ        YY        YZ        ZZ
      1       O    8   -3.4010   -0.0000    0.0000   -3.4010    0.0000   -3.5966
      2       C    6   -2.4803   -0.0000    0.0000   -2.4803    0.0000   -2.6678

  MBIS Octupoles: [e a0^3]
   Center  Symbol  Z      XXX       XXY       XXZ       XYY       XYZ       XZZ       YYY       YYZ       YZZ       ZZZ
      1       O    8    0.0000   -0.0000   -0.2362   -0.0000   -0.0000   -0.0000   -0.0000   -0.2362   -0.0000   -0.5215
      2       C    6    0.0000   -0.0000    0.1297    0.0000    0.0000    0.0000    0.0000    0.1297    0.0000    0.1274

  MBIS Radial Moments:
   Center  Symbol  Z      [a0^2]      [a0^3]      [a0^4]
      1       O    8   10.398506   18.362876   38.732370
      2       C    6    7.628352   15.605509   38.048479

  MBIS Valence Widths: [a0]
   Center  Symbol  Z     Width
      1       O    8    0.370601
      2       C    6    0.439727

*** tstop() called on Mac.lan at Sun Aug 10 18:36:14 2025
Module time:
	user time   =       4.68 seconds =       0.08 minutes
	system time =       2.37 seconds =       0.04 minutes
	total time  =          0 seconds =       0.00 minutes
Total time:
	user time   =      24.16 seconds =       0.40 minutes
	system time =       4.79 seconds =       0.08 minutes
	total time  =          3 seconds =       0.05 minutes

    Psi4 stopped on: Sunday, 10 August 2025 06:36PM
    Psi4 wall time for execution: 0:00:02.85

*** Psi4 exiting successfully. Buy a developer a beer!
