                               Psi4 1.9.1 release

  ==> Input File <==

--------------------------------------------------------------------------
molecule {
1 1
O           0.000000           0.000000           0.000000
N           0.000000           0.000000           1.178089
}

set {
basis              cc-pvtz
reference          uks
maxiter            500
DAMPING_PERCENTAGE 1
E_CONVERGENCE      1.0E-8
D_CONVERGENCE      1.0E-8
DIIS_MAX_VECS      400
MBIS_MAXITER       8000
guess              read
}

E, wfn = energy('b3lyp', restart_file='last_wfn', return_wfn=True)
properties('b3lyp','MBIS_CHARGES', wfn=wfn)
wfn.to_file('last_wfn')
--------------------------------------------------------------------------

    Molecular point group: c2v
  Charge       = 1
  Multiplicity = 1
  Basis Set: CC-PVTZ
    Blend: CC-PVTZ
  Basis Set: (CC-PVTZ AUX)
    Blend: CC-PVTZ-JKFIT
  @DF-UKS Final Energy:  -129.55288418879860
    Total Energy =                       -129.5528841887986005
 Dipole X            :          0.0000000            0.0000000            0.0000000
 Dipole Y            :          0.0000000            0.0000000            0.0000000
 Dipole Z            :          0.2652766           -0.0044669            0.2608096
 Magnitude           :                                                    0.2608096
    Molecular point group: c2v

    Geometry (in Angstrom), charge = 1, multiplicity = 1:

       Center              X                  Y                   Z               Mass
    ------------   -----------------  -----------------  -----------------  -----------------
         O            0.000000000000     0.000000000000    -0.549932452391    15.994914619570
         N            0.000000000000     0.000000000000     0.628156547609    14.003074004430

  Charge       = 1
  Multiplicity = 1
  Basis Set: CC-PVTZ
    Blend: CC-PVTZ
  Basis Set: (CC-PVTZ AUX)
    Blend: CC-PVTZ-JKFIT

    Orbital Energies [Eh]
    ---------------------

    Alpha Occupied:

       1A1   -19.769504     2A1   -14.988406     3A1    -1.679698
       4A1    -1.112187     1B1    -0.931022     1B2    -0.931022
       5A1    -0.910611

    Alpha Virtual:

       2B1    -0.541583     2B2    -0.541583     6A1    -0.110931
       7A1     0.082553     3B2     0.095042     3B1     0.095042
       8A1     0.145471     9A1     0.223428     4B2     0.281903
       4B1     0.281903     1A2     0.545921    10A1     0.545921
       5B2     0.718010     5B1     0.718010    11A1     0.831818
       2A2     1.128744    12A1     1.128744    13A1     1.226832
       6B2     1.603133     6B1     1.603133    14A1     1.803806
       7B2     2.386285     7B1     2.386285    15A1     2.614361
       8B1     3.082925     8B2     3.082925     3A2     3.323892
      16A1     3.323893     9B2     3.363414     9B1     3.363414
      17A1     3.519824    10B2     3.599203    10B1     3.599203
      18A1     3.767778     4A2     3.916634    19A1     3.916638
      20A1     4.278081    11B1     4.280223    11B2     4.280223
      12B1     4.623224    12B2     4.623224     5A2     5.052728
      21A1     5.052729    22A1     5.699019    23A1     5.710482
       6A2     5.710497    13B2     5.872768    13B1     5.872768
      24A1     6.402249    14B2     6.417373    14B1     6.417373
      25A1     6.724405    26A1    12.139938

    Beta Occupied:

       1A1   -19.769504     2A1   -14.988406     3A1    -1.679698
       4A1    -1.112187     1B1    -0.931022     1B2    -0.931022
       5A1    -0.910611

    Beta Virtual:

       2B1    -0.541583     2B2    -0.541583     6A1    -0.110931
       7A1     0.082553     3B2     0.095042     3B1     0.095042
       8A1     0.145471     9A1     0.223428     4B2     0.281903
       4B1     0.281903     1A2     0.545921    10A1     0.545921
       5B2     0.718010     5B1     0.718010    11A1     0.831818
       2A2     1.128744    12A1     1.128744    13A1     1.226832
       6B2     1.603133     6B1     1.603133    14A1     1.803806
       7B2     2.386285     7B1     2.386285    15A1     2.614361
       8B1     3.082925     8B2     3.082925     3A2     3.323892
      16A1     3.323893     9B2     3.363414     9B1     3.363414
      17A1     3.519824    10B2     3.599203    10B1     3.599203
      18A1     3.767778     4A2     3.916634    19A1     3.916638
      20A1     4.278081    11B1     4.280223    11B2     4.280223
      12B1     4.623224    12B2     4.623224     5A2     5.052728
      21A1     5.052729    22A1     5.699019    23A1     5.710482
       6A2     5.710497    13B2     5.872768    13B1     5.872768
      24A1     6.402249    14B2     6.417373    14B1     6.417373
      25A1     6.724405    26A1    12.139938

    Final Occupation by Irrep:
             A1    A2    B1    B2
    DOCC [     5,    0,    1,    1 ]
    SOCC [     0,    0,    0,    0 ]
    NA   [     5,    0,    1,    1 ]
    NB   [     5,    0,    1,    1 ]

  @DF-UKS Final Energy:  -129.55288418673203

   => Energetics <=

    Nuclear Repulsion Energy =             25.1542318089040862
    One-Electron Energy =                -220.1279736150352733
    Two-Electron Energy =                  77.4348971806644215
    DFT Exchange-Correlation Energy =     -12.0140395612652746
    Empirical Dispersion Energy =           0.0000000000000000
    VV10 Nonlocal Energy =                  0.0000000000000000
    Total Energy =                       -129.5528841867320295

  UHF NO Occupations:
  HONO-2 :    1 B2 2.0000000
  HONO-1 :    1 B1 2.0000000
  HONO-0 :    5 A1 2.0000000
  LUNO+0 :    6 A1 0.0000000
  LUNO+1 :    7 A1 0.0000000
  LUNO+2 :    8 A1 0.0000000
  LUNO+3 :    2 B2 0.0000000

Computation Completed

Properties will be evaluated at   0.000000,   0.000000,   0.000000 [a0]

Properties computed using the B3LYP density matrix

 Multipole Moments:

 ------------------------------------------------------------------------------------
     Multipole            Electronic (a.u.)      Nuclear  (a.u.)        Total (a.u.)
 ------------------------------------------------------------------------------------

 L = 1.  Multiply by 2.5417464519 to convert [e a0] to [Debye]
 Dipole X            :          0.0000000            0.0000000            0.0000000
 Dipole Y            :          0.0000000            0.0000000            0.0000000
 Dipole Z            :          0.2652766           -0.0044669            0.2608097
 Magnitude           :                                                    0.2608097

 L = 2.  Multiply by 1.3450342976 to convert [e a0^2] to [Debye ang]
 Quadrupole XX       :         -6.0042248            0.0000000           -6.0042248
 Quadrupole XY       :          0.0000000            0.0000000            0.0000000
 Quadrupole XZ       :          0.0000000            0.0000000            0.0000000
 Quadrupole YY       :         -6.0042248            0.0000000           -6.0042248
 Quadrupole YZ       :          0.0000000            0.0000000            0.0000000
 Quadrupole ZZ       :        -23.6187130           18.5033658           -5.1153471
 Traceless XX        :          5.8714961           -6.1677886           -0.2962925
 Traceless YY        :          5.8714961           -6.1677886           -0.2962925
 Traceless ZZ        :        -11.7429921           12.3355772            0.5925851

 ------------------------------------------------------------------------------------
  ==> Computing MBIS Charges <==

  Electron Count from Grid (Expected Number): 14.00000 (14.00000)
  Difference:  0.00000

  MBIS Charges: (a.u.)
   Center  Symbol  Z      Pop.       Charge
      1       O    8    7.658770    0.341230
      2       N    7    6.341230    0.658770

  MBIS Dipoles: [e a0]
   Center  Symbol  Z        X           Y           Z
      1       O    8    0.000000   -0.000000   -0.120063
      2       N    7   -0.000000    0.000000   -0.046503

  MBIS Quadrupoles: [e a0^2]
   Center  Symbol  Z      XX        XY        XZ        YY        YZ        ZZ
      1       O    8   -3.0884    0.0000   -0.0000   -3.0884   -0.0000   -3.2631
      2       N    7   -2.9159   -0.0000    0.0000   -2.9159    0.0000   -3.2882

  MBIS Octupoles: [e a0^3]
   Center  Symbol  Z      XXX       XXY       XXZ       XYY       XYZ       XZZ       YYY       YYZ       YZZ       ZZZ
      1       O    8   -0.0000   -0.0000   -0.1015    0.0000   -0.0000   -0.0000   -0.0000   -0.1015    0.0000   -0.2994
      2       N    7   -0.0000    0.0000    0.0585   -0.0000   -0.0000    0.0000   -0.0000    0.0585    0.0000    0.0868

  MBIS Radial Moments:
   Center  Symbol  Z      [a0^2]      [a0^3]      [a0^4]
      1       O    8    9.439794   16.349689   33.904397
      2       N    7    9.119922   17.365170   39.424376

  MBIS Valence Widths: [a0]
   Center  Symbol  Z     Width
      1       O    8    0.363285
      2       N    7    0.405260

*** tstop() called on Mac.lan at Sun Aug 10 18:42:06 2025
Module time:
	user time   =       3.88 seconds =       0.06 minutes
	system time =       1.92 seconds =       0.03 minutes
	total time  =          1 seconds =       0.02 minutes
Total time:
	user time   =      15.79 seconds =       0.26 minutes
	system time =       3.97 seconds =       0.07 minutes
	total time  =          2 seconds =       0.03 minutes

    Psi4 stopped on: Sunday, 10 August 2025 06:42PM
    Psi4 wall time for execution: 0:00:01.92

*** Psi4 exiting successfully. Buy a developer a beer!
