                               Psi4 1.9.1 release

  ==> Input File <==

--------------------------------------------------------------------------
molecule {
1 2
O           0.000000           0.000000           0.000000
C           0.000000           0.000000           1.501886
}

set {
basis              cc-pvtz
reference          uks
maxiter            500
DAMPING_PERCENTAGE 1
E_CONVERGENCE      1.0E-8
D_CONVERGENCE      1.0E-8
DIIS_MAX_VECS      400
MBIS_MAXITER       8000
guess              read
}

E, wfn = energy('b3lyp', restart_file='last_wfn', return_wfn=True)
properties('b3lyp','MBIS_CHARGES', wfn=wfn)
wfn.to_file('last_wfn')
--------------------------------------------------------------------------

    Molecular point group: c2v
  Charge       = 1
  Multiplicity = 2
  Basis Set: CC-PVTZ
    Blend: CC-PVTZ
  Basis Set: (CC-PVTZ AUX)
    Blend: CC-PVTZ-JKFIT
  @DF-UKS Final Energy:  -112.68530383677280
    Total Energy =                       -112.6853038367727891
 Dipole X            :          0.0000000            0.0000000            0.0000000
 Dipole Y            :          0.0000000            0.0000000            0.0000000
 Dipole Z            :          1.2095597           -0.0030934            1.2064664
 Magnitude           :                                                    1.2064664
    Molecular point group: c2v

    Geometry (in Angstrom), charge = 1, multiplicity = 2:

       Center              X                  Y                   Z               Mass
    ------------   -----------------  -----------------  -----------------  -----------------
         O            0.000000000000     0.000000000000    -0.643782352792    15.994914619570
         C            0.000000000000     0.000000000000     0.858103647208    12.000000000000

  Charge       = 1
  Multiplicity = 2
  Basis Set: CC-PVTZ
    Blend: CC-PVTZ
  Basis Set: (CC-PVTZ AUX)
    Blend: CC-PVTZ-JKFIT

    Orbital Energies [Eh]
    ---------------------

    Alpha Occupied:

       1A1   -19.667478     2A1   -10.861706     3A1    -1.399661
       4A1    -1.005602     5A1    -0.834149     1B1    -0.758654
       1B2    -0.758654

    Alpha Virtual:

       2B1    -0.529526     2B2    -0.529526     6A1    -0.310620
       7A1    -0.013125     8A1     0.004725     3B2     0.006543
       3B1     0.006543     9A1     0.245152     4B2     0.296635
       4B1     0.296635     1A2     0.301836    10A1     0.301836
       5B1     0.416561     5B2     0.416561    11A1     0.643752
      12A1     0.879726    13A1     1.121022     2A2     1.121022
       6B2     1.280733     6B1     1.280733    14A1     1.502493
       7B1     1.578744     7B2     1.578744    15A1     1.826559
       8B2     2.236224     8B1     2.236224     3A2     2.267101
      16A1     2.267101     9B2     2.409162     9B1     2.409162
      17A1     2.458205     4A2     2.468386    18A1     2.468387
      10B1     2.668273    10B2     2.668273    19A1     2.736676
      20A1     3.290021    11B2     3.331963    11B1     3.331963
      21A1     4.549177    12B1     4.723236    12B2     4.723236
      22A1     4.776385     5A2     4.776386    13B2     5.062400
      13B1     5.062400    23A1     5.504589     6A2     5.788762
      24A1     5.788811    14B1     6.116560    14B2     6.116560
      25A1     6.759973    26A1     8.021911

    Beta Occupied:

       1A1   -19.659343     2A1   -10.846709     3A1    -1.373813
       4A1    -0.937624     1B1    -0.755542     1B2    -0.755542

    Beta Virtual:

       5A1    -0.656699     2B1    -0.502809     2B2    -0.502809
       6A1    -0.254507     7A1    -0.001759     3B2     0.013201
       3B1     0.013201     8A1     0.039282     9A1     0.264732
       4B2     0.303844     4B1     0.303844    10A1     0.314274
       1A2     0.314274     5B1     0.439247     5B2     0.439247
      11A1     0.679731    12A1     0.895550    13A1     1.119486
       2A2     1.119486     6B2     1.307869     6B1     1.307869
      14A1     1.540646     7B1     1.594724     7B2     1.594724
      15A1     1.871566     8B2     2.254775     8B1     2.254775
       3A2     2.294144    16A1     2.294145     9B2     2.439388
       9B1     2.439388     4A2     2.498444    17A1     2.498446
      18A1     2.505899    10B1     2.731005    10B2     2.731005
      19A1     2.813216    20A1     3.331777    11B2     3.335088
      11B1     3.335088    21A1     4.577217    12B1     4.715043
      12B2     4.715043    22A1     4.791057     5A2     4.791058
      13B2     5.093247    13B1     5.093247    23A1     5.559531
       6A2     5.781271    24A1     5.781322    14B1     6.155752
      14B2     6.155752    25A1     6.811514    26A1     8.032444

    Final Occupation by Irrep:
             A1    A2    B1    B2
    DOCC [     4,    0,    1,    1 ]
    SOCC [     1,    0,    0,    0 ]
    NA   [     5,    0,    1,    1 ]
    NB   [     4,    0,    1,    1 ]

  @DF-UKS Final Energy:  -112.68530383762493

   => Energetics <=

    Nuclear Repulsion Energy =             16.9124062093661003
    One-Electron Energy =                -181.8610700858361611
    Two-Electron Energy =                  62.9806115675657665
    DFT Exchange-Correlation Energy =     -10.7172515287206433
    Empirical Dispersion Energy =           0.0000000000000000
    VV10 Nonlocal Energy =                  0.0000000000000000
    Total Energy =                       -112.6853038376249145

  UHF NO Occupations:
  HONO-2 :    1 B1 1.9968967
  HONO-1 :    4 A1 1.9951309
  HONO-0 :    5 A1 1.0000000
  LUNO+0 :    6 A1 0.0048691
  LUNO+1 :    2 B2 0.0031033
  LUNO+2 :    2 B1 0.0031033
  LUNO+3 :    7 A1 0.0001343

Computation Completed

Properties will be evaluated at   0.000000,   0.000000,   0.000000 [a0]

Properties computed using the B3LYP density matrix

 Multipole Moments:

 ------------------------------------------------------------------------------------
     Multipole            Electronic (a.u.)      Nuclear  (a.u.)        Total (a.u.)
 ------------------------------------------------------------------------------------

 L = 1.  Multiply by 2.5417464519 to convert [e a0] to [Debye]
 Dipole X            :          0.0000000            0.0000000            0.0000000
 Dipole Y            :          0.0000000            0.0000000            0.0000000
 Dipole Z            :          1.2095598           -0.0030934            1.2064664
 Magnitude           :                                                    1.2064664

 L = 2.  Multiply by 1.3450342976 to convert [e a0^2] to [Debye ang]
 Quadrupole XX       :         -6.5469744            0.0000000           -6.5469744
 Quadrupole XY       :          0.0000000            0.0000000            0.0000000
 Quadrupole XZ       :          0.0000000            0.0000000            0.0000000
 Quadrupole YY       :         -6.5469744            0.0000000           -6.5469744
 Quadrupole YZ       :          0.0000000            0.0000000            0.0000000
 Quadrupole ZZ       :        -30.2746204           27.6175332           -2.6570872
 Traceless XX        :          7.9092153           -9.2058444           -1.2966291
 Traceless YY        :          7.9092153           -9.2058444           -1.2966291
 Traceless ZZ        :        -15.8184307           18.4116888            2.5932582

 ------------------------------------------------------------------------------------
  ==> Computing MBIS Charges <==

  Electron Count from Grid (Expected Number): 13.00000 (13.00000)
  Difference: -0.00000

  MBIS Charges: (a.u.)
   Center  Symbol  Z      Pop.       Charge
      1       O    8    7.922662    0.077338
      2       C    6    5.077337    0.922663

  MBIS Dipoles: [e a0]
   Center  Symbol  Z        X           Y           Z
      1       O    8    0.000000    0.000000   -0.351692
      2       C    6   -0.000000    0.000000    0.156071

  MBIS Quadrupoles: [e a0^2]
   Center  Symbol  Z      XX        XY        XZ        YY        YZ        ZZ
      1       O    8   -3.6764   -0.0000   -0.0000   -3.6764   -0.0000   -3.5284
      2       C    6   -2.8706    0.0000    0.0000   -2.8706    0.0000   -3.0312

  MBIS Octupoles: [e a0^3]
   Center  Symbol  Z      XXX       XXY       XXZ       XYY       XYZ       XZZ       YYY       YYZ       YZZ       ZZZ
      1       O    8   -0.0000   -0.0000   -0.3339   -0.0000    0.0000   -0.0000   -0.0000   -0.3339   -0.0000   -1.0171
      2       C    6   -0.0000   -0.0000    0.3332   -0.0000    0.0000   -0.0000    0.0000    0.3332    0.0000    0.6419

  MBIS Radial Moments:
   Center  Symbol  Z      [a0^2]      [a0^3]      [a0^4]
      1       O    8   10.881196   20.012662   43.977449
      2       C    6    8.772351   18.997710   48.939925

  MBIS Valence Widths: [a0]
   Center  Symbol  Z     Width
      1       O    8    0.381981
      2       C    6    0.467956

*** tstop() called on Mac.lan at Sun Aug 10 18:38:37 2025
Module time:
	user time   =       5.12 seconds =       0.09 minutes
	system time =       2.36 seconds =       0.04 minutes
	total time  =          1 seconds =       0.02 minutes
Total time:
	user time   =      24.67 seconds =       0.41 minutes
	system time =       4.78 seconds =       0.08 minutes
	total time  =          3 seconds =       0.05 minutes

    Psi4 stopped on: Sunday, 10 August 2025 06:38PM
    Psi4 wall time for execution: 0:00:02.86

*** Psi4 exiting successfully. Buy a developer a beer!
