                               Psi4 1.9.1 release

  ==> Input File <==

--------------------------------------------------------------------------
molecule {
1 2
O           0.000000           0.000000           0.000000
C           0.000000           0.000000           0.747545
}

set {
basis              cc-pvtz
reference          uks
maxiter            500
DAMPING_PERCENTAGE 1
E_CONVERGENCE      1.0E-8
D_CONVERGENCE      1.0E-8
DIIS_MAX_VECS      400
MBIS_MAXITER       8000
guess              read
}

E, wfn = energy('b3lyp', restart_file='last_wfn', return_wfn=True)
properties('b3lyp','MBIS_CHARGES', wfn=wfn)
wfn.to_file('last_wfn')
--------------------------------------------------------------------------

    Molecular point group: c2v
  Charge       = 1
  Multiplicity = 2
  Basis Set: CC-PVTZ
    Blend: CC-PVTZ
  Basis Set: (CC-PVTZ AUX)
    Blend: CC-PVTZ-JKFIT
  @DF-UKS Final Energy:  -111.98660320777287
    Total Energy =                       -111.9866032077728732
 Dipole X            :          0.0000000            0.0000000            0.0000000
 Dipole Y            :          0.0000000            0.0000000            0.0000000
 Dipole Z            :          0.7668965           -0.0015397            0.7653568
 Magnitude           :                                                    0.7653568
    Molecular point group: c2v

    Geometry (in Angstrom), charge = 1, multiplicity = 2:

       Center              X                  Y                   Z               Mass
    ------------   -----------------  -----------------  -----------------  -----------------
         O            0.000000000000     0.000000000000    -0.320434626142    15.994914619570
         C            0.000000000000     0.000000000000     0.427110373858    12.000000000000

  Charge       = 1
  Multiplicity = 2
  Basis Set: CC-PVTZ
    Blend: CC-PVTZ
  Basis Set: (CC-PVTZ AUX)
    Blend: CC-PVTZ-JKFIT

    Orbital Energies [Eh]
    ---------------------

    Alpha Occupied:

       1A1   -19.608847     2A1   -10.726343     3A1    -1.733566
       1B1    -1.077501     1B2    -1.077501     4A1    -0.929409
       5A1    -0.863601

    Alpha Virtual:

       2B1    -0.236319     2B2    -0.236319     6A1    -0.097261
       7A1    -0.027062     3B2    -0.021516     3B1    -0.021516
       8A1     0.243930     1A2     0.264532     9A1     0.264532
       4B1     0.324545     4B2     0.324545    10A1     0.508666
       5B1     0.671749     5B2     0.671749    11A1     0.962897
       6B1     1.257050     6B2     1.257050    12A1     1.267578
       2A2     1.267578    13A1     1.369795    14A1     1.839583
       7B1     1.880846     7B2     1.880846     8B1     2.201047
       8B2     2.201047    15A1     2.327788     3A2     2.395570
      16A1     2.395570     9B1     2.573169     9B2     2.573169
      17A1     2.720286     4A2     2.723587    18A1     2.723587
      10B2     3.500280    10B1     3.500280    11B1     3.831499
      11B2     3.831499    19A1     3.873026    12B1     4.856924
      12B2     4.856924    20A1     5.383228    21A1     5.819367
       5A2     5.819369    22A1     5.988788     6A2     5.988788
      23A1     6.172050    13B2     6.183631    13B1     6.183631
      24A1     6.937766    14B2     7.201468    14B1     7.201468
      25A1     9.593153    26A1    16.775597

    Beta Occupied:

       1A1   -19.608569     2A1   -10.702065     3A1    -1.727854
       1B1    -1.066506     1B2    -1.066506     4A1    -0.926566

    Beta Virtual:

       5A1    -0.621380     2B1    -0.196667     2B2    -0.196667
       6A1    -0.086095     3B2    -0.005685     3B1    -0.005685
       7A1     0.012440     8A1     0.263504     1A2     0.283307
       9A1     0.283308     4B1     0.332268     4B2     0.332268
      10A1     0.553800     5B1     0.701042     5B2     0.701042
      11A1     0.976784     2A2     1.270316    12A1     1.270317
       6B1     1.277244     6B2     1.277244    13A1     1.428997
      14A1     1.878345     7B1     1.908514     7B2     1.908514
       8B1     2.234098     8B2     2.234098    15A1     2.394204
       3A2     2.464709    16A1     2.464710     9B1     2.674627
       9B2     2.674627     4A2     2.761588    17A1     2.761590
      18A1     2.811558    10B1     3.515614    10B2     3.515614
      11B1     3.861848    11B2     3.861848    19A1     3.900142
      12B1     4.856125    12B2     4.856125    20A1     5.400687
      21A1     5.816259     5A2     5.816260     6A2     5.996688
      22A1     5.996688    23A1     6.184392    13B2     6.188846
      13B1     6.188846    24A1     6.957298    14B2     7.223470
      14B1     7.223470    25A1     9.610392    26A1    16.806736

    Final Occupation by Irrep:
             A1    A2    B1    B2
    DOCC [     4,    0,    1,    1 ]
    SOCC [     1,    0,    0,    0 ]
    NA   [     5,    0,    1,    1 ]
    NB   [     4,    0,    1,    1 ]

  @DF-UKS Final Energy:  -111.98660319190724

   => Energetics <=

    Nuclear Repulsion Energy =             33.9785646511715029
    One-Electron Energy =                -212.5656944286544672
    Two-Electron Energy =                  78.0929741595176665
    DFT Exchange-Correlation Energy =     -11.4924475739419272
    Empirical Dispersion Energy =           0.0000000000000000
    VV10 Nonlocal Energy =                  0.0000000000000000
    Total Energy =                       -111.9866031919072356

  UHF NO Occupations:
  HONO-2 :    1 B1 1.9992566
  HONO-1 :    1 B2 1.9992566
  HONO-0 :    5 A1 1.0000000
  LUNO+0 :    2 B1 0.0007434
  LUNO+1 :    2 B2 0.0007434
  LUNO+2 :    6 A1 0.0000286
  LUNO+3 :    7 A1 0.0000050

Computation Completed

Properties will be evaluated at   0.000000,   0.000000,   0.000000 [a0]

Properties computed using the B3LYP density matrix

 Multipole Moments:

 ------------------------------------------------------------------------------------
     Multipole            Electronic (a.u.)      Nuclear  (a.u.)        Total (a.u.)
 ------------------------------------------------------------------------------------

 L = 1.  Multiply by 2.5417464519 to convert [e a0] to [Debye]
 Dipole X            :          0.0000000            0.0000000            0.0000000
 Dipole Y            :          0.0000000            0.0000000            0.0000000
 Dipole Z            :          0.7668965           -0.0015397            0.7653568
 Magnitude           :                                                    0.7653568

 L = 2.  Multiply by 1.3450342976 to convert [e a0^2] to [Debye ang]
 Quadrupole XX       :         -5.0518448            0.0000000           -5.0518448
 Quadrupole XY       :          0.0000000            0.0000000            0.0000000
 Quadrupole XZ       :          0.0000000            0.0000000            0.0000000
 Quadrupole YY       :         -5.0518448            0.0000000           -5.0518448
 Quadrupole YZ       :          0.0000000            0.0000000            0.0000000
 Quadrupole ZZ       :        -11.5483068            6.8420403           -4.7062665
 Traceless XX        :          2.1654873           -2.2806801           -0.1151928
 Traceless YY        :          2.1654873           -2.2806801           -0.1151928
 Traceless ZZ        :         -4.3309747            4.5613602            0.2303855

 ------------------------------------------------------------------------------------
  ==> Computing MBIS Charges <==

  Electron Count from Grid (Expected Number): 13.00000 (13.00000)
  Difference:  0.00000

  MBIS Charges: (a.u.)
   Center  Symbol  Z      Pop.       Charge
      1       O    8    8.071571   -0.071571
      2       C    6    4.928431    1.071569

  MBIS Dipoles: [e a0]
   Center  Symbol  Z        X           Y           Z
      1       O    8   -0.000000   -0.000000   -0.175932
      2       C    6   -0.000000    0.000000    0.033065

  MBIS Quadrupoles: [e a0^2]
   Center  Symbol  Z      XX        XY        XZ        YY        YZ        ZZ
      1       O    8   -2.9871    0.0000    0.0000   -2.9871    0.0000   -3.3034
      2       C    6   -2.0647    0.0000    0.0000   -2.0647    0.0000   -2.3411

  MBIS Octupoles: [e a0^3]
   Center  Symbol  Z      XXX       XXY       XXZ       XYY       XYZ       XZZ       YYY       YYZ       YZZ       ZZZ
      1       O    8   -0.0000    0.0000   -0.0786   -0.0000    0.0000   -0.0000   -0.0000   -0.0786    0.0000    0.0220
      2       C    6   -0.0000    0.0000   -0.0631   -0.0000    0.0000   -0.0000    0.0000   -0.0631    0.0000   -0.3530

  MBIS Radial Moments:
   Center  Symbol  Z      [a0^2]      [a0^3]      [a0^4]
      1       O    8    9.277639   15.429211   30.781246
      2       C    6    6.470583   12.468447   28.925041

  MBIS Valence Widths: [a0]
   Center  Symbol  Z     Width
      1       O    8    0.346383
      2       C    6    0.403138

*** tstop() called on Mac.lan at Sun Aug 10 18:37:09 2025
Module time:
	user time   =       4.06 seconds =       0.07 minutes
	system time =       1.87 seconds =       0.03 minutes
	total time  =          0 seconds =       0.00 minutes
Total time:
	user time   =      17.85 seconds =       0.30 minutes
	system time =       3.75 seconds =       0.06 minutes
	total time  =          2 seconds =       0.03 minutes

    Psi4 stopped on: Sunday, 10 August 2025 06:37PM
    Psi4 wall time for execution: 0:00:02.14

*** Psi4 exiting successfully. Buy a developer a beer!
