                               Psi4 1.9.1 release

  ==> Input File <==

--------------------------------------------------------------------------
molecule {
1 3
N           0.000000           0.000000           0.000000
C           0.000000           0.000000           1.168728
}

set {
basis              cc-pvtz
reference          uks
maxiter            500
DAMPING_PERCENTAGE 1
E_CONVERGENCE      1.0E-8
D_CONVERGENCE      1.0E-8
DIIS_MAX_VECS      400
MBIS_MAXITER       8000
guess              read
}

E, wfn = energy('b3lyp', restart_file='last_wfn', return_wfn=True)
properties('b3lyp','MBIS_CHARGES', wfn=wfn)
wfn.to_file('last_wfn')
--------------------------------------------------------------------------

    Molecular point group: c2v
  Charge       = 1
  Multiplicity = 3
  Basis Set: CC-PVTZ
    Blend: CC-PVTZ
  Basis Set: (CC-PVTZ AUX)
    Blend: CC-PVTZ-JKFIT
  @DF-UKS Final Energy:   -92.22394419927505
    Total Energy =                        -92.2239441992750528
 Dipole X            :          0.0000000            0.0000000            0.0000000
 Dipole Y            :          0.0000000            0.0000000            0.0000000
 Dipole Z            :          0.7571427            0.0015665            0.7587093
 Magnitude           :                                                    0.7587093
    Molecular point group: c2v

    Geometry (in Angstrom), charge = 1, multiplicity = 3:

       Center              X                  Y                   Z               Mass
    ------------   -----------------  -----------------  -----------------  -----------------
         N            0.000000000000     0.000000000000    -0.539349155320    14.003074004430
         C            0.000000000000     0.000000000000     0.629378844680    12.000000000000

  Charge       = 1
  Multiplicity = 3
  Basis Set: CC-PVTZ
    Blend: CC-PVTZ
  Basis Set: (CC-PVTZ AUX)
    Blend: CC-PVTZ-JKFIT

    Orbital Energies [Eh]
    ---------------------

    Alpha Occupied:

       1A1   -14.840682     2A1   -10.758459     3A1    -1.420757
       4A1    -0.895398     1B1    -0.843191     5A1    -0.799538
       1B2    -0.799259

    Alpha Virtual:

       2B1    -0.430077     2B2    -0.396653     6A1    -0.101260
       3B1    -0.013015     7A1    -0.003974     3B2    -0.002514
       8A1     0.147221     4B1     0.204126     9A1     0.206247
       4B2     0.221413     1A2     0.261341    10A1     0.261948
       5B1     0.458112     5B2     0.480484    11A1     0.563697
       2A2     0.788269    12A1     0.789000    13A1     0.903398
       6B1     1.148321     6B2     1.170948    14A1     1.394019
       7B1     1.551696     7B2     1.574223    15A1     1.800151
       8B1     2.211856     8B2     2.212022    16A1     2.287377
       3A2     2.288791     9B1     2.348215    17A1     2.352678
       9B2     2.377891    10B1     2.481492    18A1     2.496757
       4A2     2.496921    10B2     2.514344    19A1     2.688525
      11B1     2.985117    11B2     3.013616    20A1     3.466949
      12B1     3.498722    12B2     3.498875    21A1     3.942308
       5A2     3.942455     6A2     4.125451    22A1     4.125824
      13B1     4.362394    13B2     4.398632    23A1     4.530575
      24A1     4.938219    14B1     5.084925    14B2     5.118008
      25A1     5.493599    26A1    12.028305

    Beta Occupied:

       1A1   -14.824613     2A1   -10.732278     3A1    -1.353058
       4A1    -0.806898     1B2    -0.776469

    Beta Virtual:

       1B1    -0.659510     5A1    -0.610143     2B2    -0.359106
       2B1    -0.325557     6A1    -0.082783     3B2     0.006101
       3B1     0.012968     7A1     0.035667     8A1     0.161385
       4B2     0.225358     4B1     0.234640     9A1     0.274087
       1A2     0.295062    10A1     0.297712     5B2     0.515748
       5B1     0.520980    11A1     0.585455     2A2     0.818607
      12A1     0.821344    13A1     0.956282     6B2     1.188505
       6B1     1.193107    14A1     1.431130     7B2     1.596151
       7B1     1.605115    15A1     1.864698     8B2     2.260703
       8B1     2.262049     3A2     2.333508    16A1     2.336664
      17A1     2.408629     9B2     2.417915     9B1     2.435351
      10B2     2.562238     4A2     2.575420    10B1     2.577763
      18A1     2.581178    19A1     2.787158    11B2     3.058529
      11B1     3.067813    20A1     3.521900    12B2     3.538733
      12B1     3.540040     5A2     3.992500    21A1     3.999139
       6A2     4.166129    22A1     4.169987    13B2     4.419854
      13B1     4.433212    23A1     4.579983    24A1     4.975973
      14B2     5.146050    14B1     5.155664    25A1     5.527989
      26A1    12.066428

    Final Occupation by Irrep:
             A1    A2    B1    B2
    DOCC [     4,    0,    0,    1 ]
    SOCC [     1,    0,    1,    0 ]
    NA   [     5,    0,    1,    1 ]
    NB   [     4,    0,    0,    1 ]

  @DF-UKS Final Energy:   -92.22394419752629

   => Energetics <=

    Nuclear Repulsion Energy =             19.0167796511592115
    One-Electron Energy =                -156.7397438592586525
    Two-Electron Energy =                  55.0645450830659584
    DFT Exchange-Correlation Energy =      -9.5655250724928251
    Empirical Dispersion Energy =           0.0000000000000000
    VV10 Nonlocal Energy =                  0.0000000000000000
    Total Energy =                        -92.2239441975262935

  UHF NO Occupations:
  HONO-2 :    1 B2 1.9984179
  HONO-1 :    5 A1 1.0000000
  HONO-0 :    1 B1 1.0000000
  LUNO+0 :    2 B2 0.0015821
  LUNO+1 :    6 A1 0.0006801
  LUNO+2 :    7 A1 0.0002775
  LUNO+3 :    8 A1 0.0000005

Computation Completed

Properties will be evaluated at   0.000000,   0.000000,   0.000000 [a0]

Properties computed using the B3LYP density matrix

 Multipole Moments:

 ------------------------------------------------------------------------------------
     Multipole            Electronic (a.u.)      Nuclear  (a.u.)        Total (a.u.)
 ------------------------------------------------------------------------------------

 L = 1.  Multiply by 2.5417464519 to convert [e a0] to [Debye]
 Dipole X            :          0.0000000            0.0000000            0.0000000
 Dipole Y            :          0.0000000            0.0000000            0.0000000
 Dipole Z            :          0.7571429            0.0015665            0.7587094
 Magnitude           :                                                    0.7587094

 L = 2.  Multiply by 1.3450342976 to convert [e a0^2] to [Debye ang]
 Quadrupole XX       :         -5.6036713            0.0000000           -5.6036713
 Quadrupole XY       :          0.0000000            0.0000000            0.0000000
 Quadrupole XZ       :          0.0000000            0.0000000            0.0000000
 Quadrupole YY       :         -6.5756410            0.0000000           -6.5756410
 Quadrupole YZ       :          0.0000000            0.0000000            0.0000000
 Quadrupole ZZ       :        -20.5910896           15.7590697           -4.8320200
 Traceless XX        :          5.3197960           -5.2530232            0.0667728
 Traceless YY        :          4.3478263           -5.2530232           -0.9051969
 Traceless ZZ        :         -9.6676223           10.5060464            0.8384241

 ------------------------------------------------------------------------------------
  ==> Computing MBIS Charges <==

  Electron Count from Grid (Expected Number): 12.00000 (12.00000)
  Difference:  0.00000

  MBIS Charges: (a.u.)
   Center  Symbol  Z      Pop.       Charge
      1       N    7    6.806187    0.193813
      2       C    6    5.193813    0.806187

  MBIS Dipoles: [e a0]
   Center  Symbol  Z        X           Y           Z
      1       N    7   -0.000000    0.000000   -0.133101
      2       C    6    0.000000    0.000000    0.130507

  MBIS Quadrupoles: [e a0^2]
   Center  Symbol  Z      XX        XY        XZ        YY        YZ        ZZ
      1       N    7   -3.0963   -0.0000   -0.0000   -3.6342    0.0000   -3.7924
      2       C    6   -2.5074    0.0000   -0.0000   -2.9415    0.0000   -2.9631

  MBIS Octupoles: [e a0^3]
   Center  Symbol  Z      XXX       XXY       XXZ       XYY       XYZ       XZZ       YYY       YYZ       YZZ       ZZZ
      1       N    7   -0.0000   -0.0000   -0.0732   -0.0000    0.0000    0.0000    0.0000   -0.2267    0.0000   -0.2979
      2       C    6   -0.0000   -0.0000    0.0194   -0.0000    0.0000    0.0000    0.0000    0.1600    0.0000    0.1697

  MBIS Radial Moments:
   Center  Symbol  Z      [a0^2]      [a0^3]      [a0^4]
      1       N    7   10.522838   20.583489   48.023066
      2       C    6    8.411988   17.543864   43.674370

  MBIS Valence Widths: [a0]
   Center  Symbol  Z     Width
      1       N    7    0.415291
      2       C    6    0.447821

*** tstop() called on Mac.lan at Sun Aug 10 18:32:38 2025
Module time:
	user time   =       4.72 seconds =       0.08 minutes
	system time =       2.38 seconds =       0.04 minutes
	total time  =          1 seconds =       0.02 minutes
Total time:
	user time   =      22.95 seconds =       0.38 minutes
	system time =       5.27 seconds =       0.09 minutes
	total time  =          3 seconds =       0.05 minutes

    Psi4 stopped on: Sunday, 10 August 2025 06:32PM
    Psi4 wall time for execution: 0:00:02.82

*** Psi4 exiting successfully. Buy a developer a beer!
