                               Psi4 1.9.1 release

  ==> Input File <==

--------------------------------------------------------------------------
molecule {
1 2
O           0.000000           0.000000           0.000000
O           0.000000           0.000000           1.517230
}

set {
basis              cc-pvtz
reference          uks
maxiter            500
DAMPING_PERCENTAGE 1
E_CONVERGENCE      1.0E-8
D_CONVERGENCE      1.0E-8
DIIS_MAX_VECS      400
MBIS_MAXITER       8000
guess              read
}

E, wfn = energy('b3lyp', restart_file='last_wfn', return_wfn=True)
properties('b3lyp','MBIS_CHARGES', wfn=wfn)
wfn.to_file('last_wfn')
--------------------------------------------------------------------------

    Molecular point group: d2h
  Charge       = 1
  Multiplicity = 2
  Basis Set: CC-PVTZ
    Blend: CC-PVTZ
  Basis Set: (CC-PVTZ AUX)
    Blend: CC-PVTZ-JKFIT
  @DF-UKS Final Energy:  -149.76877697240067
    Total Energy =                       -149.7687769724006444
 Dipole X            :          0.0000000            0.0000000            0.0000000
 Dipole Y            :          0.0000000            0.0000000            0.0000000
 Dipole Z            :          0.0000000            0.0000000            0.0000000
 Magnitude           :                                                    0.0000000
    Molecular point group: d2h

    Geometry (in Angstrom), charge = 1, multiplicity = 2:

       Center              X                  Y                   Z               Mass
    ------------   -----------------  -----------------  -----------------  -----------------
         O            0.000000000000     0.000000000000    -0.758615000000    15.994914619570
         O            0.000000000000     0.000000000000     0.758615000000    15.994914619570

  Charge       = 1
  Multiplicity = 2
  Basis Set: CC-PVTZ
    Blend: CC-PVTZ
  Basis Set: (CC-PVTZ AUX)
    Blend: CC-PVTZ-JKFIT

    Orbital Energies [Eh]
    ---------------------

    Alpha Occupied:

       1Ag   -19.819655     1B1u  -19.819566     2Ag    -1.568570
       2B1u   -1.342014     3Ag    -0.937359     1B3u   -0.924264
       1B2u   -0.876288     1B2g   -0.814496

    Alpha Virtual:

       1B3g   -0.695905     3B1u   -0.524114     2B3u    0.161862
       4B1u    0.168286     2B2u    0.168504     4Ag     0.262020
       2B2g    0.286370     2B3g    0.292750     5Ag     0.316598
       5B1u    0.771539     3B2u    0.789957     3B3u    0.792591
       1B1g    0.899250     6Ag     0.900548     1Au     1.115057
       6B1u    1.116552     7Ag     1.237345     3B2g    1.534101
       3B3g    1.535150     7B1u    1.875977     8Ag     2.919561
       4B3u    2.955912     4B2u    2.972562     4B2g    3.117967
       4B3g    3.133908     8B1u    3.707866     5B2u    4.228365
       5B3u    4.231159     9Ag     4.304051     2B1g    4.401673
      10Ag     4.403138     6B3u    4.567643     6B2u    4.567912
       5B2g    4.611547     5B3g    4.611821     2Au     4.770768
       9B1u    4.772326     6B2g    5.148822     6B3g    5.150832
      10B1u    5.426909     3B1g    5.541691    11Ag     5.545608
       7B3u    5.618520     7B2u    5.629060     3Au     5.682497
      11B1u    5.686364    12Ag     5.977469     7B2g    6.206002
       7B3g    6.212341    12B1u    6.737243    13Ag     6.871762
      13B1u    7.781782

    Beta Occupied:

       1Ag   -19.803743     1B1u  -19.803617     2Ag    -1.533390
       2B1u   -1.295191     3Ag    -0.921093     1B2u   -0.862161
       1B3u   -0.818934

    Beta Virtual:

       1B3g   -0.679182     1B2g   -0.631836     3B1u   -0.504479
       2B2u    0.173393     4B1u    0.173967     2B3u    0.194862
       4Ag     0.268615     2B3g    0.297307     2B2g    0.315580
       5Ag     0.326227     5B1u    0.786318     3B2u    0.791417
       3B3u    0.814134     6Ag     0.923533     1B1g    0.923802
       1Au     1.144967     6B1u    1.145187     7Ag     1.252816
       3B3g    1.538963     3B2g    1.564872     7B1u    1.887106
       8Ag     2.928542     4B2u    2.983202     4B3u    3.020167
       4B3g    3.145618     4B2g    3.184911     8B1u    3.723972
       5B2u    4.232508     5B3u    4.263192     9Ag     4.318939
       2B1g    4.426621    10Ag     4.429854     6B2u    4.605651
       6B3u    4.605696     5B3g    4.649526     5B2g    4.649551
       9B1u    4.797641     2Au     4.797710     6B3g    5.156368
       6B2g    5.188603    10B1u    5.443179    11Ag     5.599763
       3B1g    5.600216     7B2u    5.636334     7B3u    5.674611
       3Au     5.739866    11B1u    5.740099    12Ag     5.990470
       7B3g    6.217935     7B2g    6.253441    12B1u    6.757352
      13Ag     6.904802    13B1u    7.803703

    Final Occupation by Irrep:
             Ag   B1g   B2g   B3g    Au   B1u   B2u   B3u
    DOCC [     3,    0,    0,    0,    0,    2,    1,    1 ]
    SOCC [     0,    0,    1,    0,    0,    0,    0,    0 ]
    NA   [     3,    0,    1,    0,    0,    2,    1,    1 ]
    NB   [     3,    0,    0,    0,    0,    2,    1,    1 ]

  @DF-UKS Final Energy:  -149.76877697264959

   => Energetics <=

    Nuclear Repulsion Energy =             22.3218243001259005
    One-Electron Energy =                -243.5375154423028334
    Two-Electron Energy =                  84.6571179602159418
    DFT Exchange-Correlation Energy =     -13.2102037906886096
    Empirical Dispersion Energy =           0.0000000000000000
    VV10 Nonlocal Energy =                  0.0000000000000000
    Total Energy =                       -149.7687769726495901

  UHF NO Occupations:
  HONO-2 :    2B1u 1.9997683
  HONO-1 :    1B3u 1.9985948
  HONO-0 :    1B2g 1.0000000
  LUNO+0 :    2B3u 0.0014052
  LUNO+1 :    3B1u 0.0002317
  LUNO+2 :    4 Ag 0.0001506
  LUNO+3 :    2B2u 0.0000415

Computation Completed

Properties will be evaluated at   0.000000,   0.000000,   0.000000 [a0]

Properties computed using the B3LYP density matrix

 Multipole Moments:

 ------------------------------------------------------------------------------------
     Multipole            Electronic (a.u.)      Nuclear  (a.u.)        Total (a.u.)
 ------------------------------------------------------------------------------------

 L = 1.  Multiply by 2.5417464519 to convert [e a0] to [Debye]
 Dipole X            :          0.0000000            0.0000000            0.0000000
 Dipole Y            :          0.0000000            0.0000000            0.0000000
 Dipole Z            :          0.0000000            0.0000000            0.0000000
 Magnitude           :                                                    0.0000000

 L = 2.  Multiply by 1.3450342976 to convert [e a0^2] to [Debye ang]
 Quadrupole XX       :         -6.5716965            0.0000000           -6.5716965
 Quadrupole XY       :          0.0000000            0.0000000            0.0000000
 Quadrupole XZ       :          0.0000000            0.0000000            0.0000000
 Quadrupole YY       :         -6.0167419            0.0000000           -6.0167419
 Quadrupole YZ       :          0.0000000            0.0000000            0.0000000
 Quadrupole ZZ       :        -36.4339233           32.8821774           -3.5517459
 Traceless XX        :          9.7690908          -10.9607258           -1.1916350
 Traceless YY        :         10.3240453          -10.9607258           -0.6366805
 Traceless ZZ        :        -20.0931361           21.9214516            1.8283155

 ------------------------------------------------------------------------------------
  ==> Computing MBIS Charges <==

  Electron Count from Grid (Expected Number): 15.00000 (15.00000)
  Difference: -0.00000

  MBIS Charges: (a.u.)
   Center  Symbol  Z      Pop.       Charge
      1       O    8    7.499999    0.500001
      2       O    8    7.499999    0.500001

  MBIS Dipoles: [e a0]
   Center  Symbol  Z        X           Y           Z
      1       O    8   -0.000000   -0.000000   -0.116286
      2       O    8   -0.000000    0.000000    0.116286

  MBIS Quadrupoles: [e a0^2]
   Center  Symbol  Z      XX        XY        XZ        YY        YZ        ZZ
      1       O    8   -3.2858    0.0000   -0.0000   -3.0084    0.0000   -3.1368
      2       O    8   -3.2858   -0.0000   -0.0000   -3.0084   -0.0000   -3.1368

  MBIS Octupoles: [e a0^3]
   Center  Symbol  Z      XXX       XXY       XXZ       XYY       XYZ       XZZ       YYY       YYZ       YZZ       ZZZ
      1       O    8   -0.0000   -0.0000   -0.1201    0.0000    0.0000   -0.0000    0.0000   -0.1700    0.0000   -0.4826
      2       O    8   -0.0000    0.0000    0.1201    0.0000    0.0000   -0.0000    0.0000    0.1700    0.0000    0.4826

  MBIS Radial Moments:
   Center  Symbol  Z      [a0^2]      [a0^3]      [a0^4]
      1       O    8    9.431069   16.713042   35.572446
      2       O    8    9.431069   16.713042   35.572446

  MBIS Valence Widths: [a0]
   Center  Symbol  Z     Width
      1       O    8    0.367674
      2       O    8    0.367674

*** tstop() called on Mac.lan at Sun Aug 10 18:14:08 2025
Module time:
	user time   =       3.65 seconds =       0.06 minutes
	system time =       2.27 seconds =       0.04 minutes
	total time  =          1 seconds =       0.02 minutes
Total time:
	user time   =      14.61 seconds =       0.24 minutes
	system time =       4.28 seconds =       0.07 minutes
	total time  =          2 seconds =       0.03 minutes

    Psi4 stopped on: Sunday, 10 August 2025 06:14PM
    Psi4 wall time for execution: 0:00:01.85

*** Psi4 exiting successfully. Buy a developer a beer!
