                               Psi4 1.9.1 release

  ==> Input File <==

--------------------------------------------------------------------------
molecule {
1 2
O           0.000000           0.000000           0.000000
O           0.000000           0.000000           1.435950
}

set {
basis              cc-pvtz
reference          uks
maxiter            500
DAMPING_PERCENTAGE 1
E_CONVERGENCE      1.0E-8
D_CONVERGENCE      1.0E-8
DIIS_MAX_VECS      400
MBIS_MAXITER       8000
guess              read
}

E, wfn = energy('b3lyp', restart_file='last_wfn', return_wfn=True)
properties('b3lyp','MBIS_CHARGES', wfn=wfn)
wfn.to_file('last_wfn')
--------------------------------------------------------------------------

    Molecular point group: d2h
  Charge       = 1
  Multiplicity = 2
  Basis Set: CC-PVTZ
    Blend: CC-PVTZ
  Basis Set: (CC-PVTZ AUX)
    Blend: CC-PVTZ-JKFIT
  @DF-UKS Final Energy:  -149.80675503671844
    Total Energy =                       -149.8067550367184140
 Dipole X            :          0.0000000            0.0000000            0.0000000
 Dipole Y            :          0.0000000            0.0000000            0.0000000
 Dipole Z            :          0.0000000            0.0000000            0.0000000
 Magnitude           :                                                    0.0000000
    Molecular point group: d2h

    Geometry (in Angstrom), charge = 1, multiplicity = 2:

       Center              X                  Y                   Z               Mass
    ------------   -----------------  -----------------  -----------------  -----------------
         O            0.000000000000     0.000000000000    -0.717975000000    15.994914619570
         O            0.000000000000     0.000000000000     0.717975000000    15.994914619570

  Charge       = 1
  Multiplicity = 2
  Basis Set: CC-PVTZ
    Blend: CC-PVTZ
  Basis Set: (CC-PVTZ AUX)
    Blend: CC-PVTZ-JKFIT

    Orbital Energies [Eh]
    ---------------------

    Alpha Occupied:

       1Ag   -19.822527     1B1u  -19.822415     2Ag    -1.609899
       2B1u   -1.328906     3Ag    -0.954406     1B3u   -0.943628
       1B2u   -0.897477     1B2g   -0.807218

    Alpha Virtual:

       1B3g   -0.686806     3B1u   -0.475020     4B1u    0.161390
       2B3u    0.161564     2B2u    0.167664     4Ag     0.253859
       2B2g    0.285424     2B3g    0.291957     5Ag     0.304977
       3B2u    0.795058     5B1u    0.795746     3B3u    0.797801
       1B1g    0.872894     6Ag     0.874186     1Au     1.132820
       6B1u    1.134348     7Ag     1.354307     3B2g    1.594719
       3B3g    1.595723     7B1u    1.840243     4B3u    2.937327
       8Ag     2.950046     4B2u    2.954122     4B2g    3.132936
       4B3g    3.148674     8B1u    3.864125     5B2u    4.187900
       5B3u    4.191355     9Ag     4.282868     2B1g    4.325217
      10Ag     4.326694     6B3u    4.546447     6B2u    4.546721
       5B2g    4.618922     5B3g    4.619203     2Au     4.849826
       9B1u    4.851435     6B2g    5.314942     6B3g    5.318571
       3B1g    5.536182    11Ag     5.540160    10B1u    5.587633
       7B3u    5.667144     7B2u    5.677237     3Au     5.697700
      11B1u    5.701599    12Ag     6.072559     7B2g    6.309925
       7B3g    6.314215    12B1u    6.447418    13Ag     6.966201
      13B1u    8.360505

    Beta Occupied:

       1Ag   -19.806451     1B1u  -19.806294     2Ag    -1.575990
       2B1u   -1.281864     3Ag    -0.937240     1B2u   -0.883398
       1B3u   -0.839939

    Beta Virtual:

       1B3g   -0.669815     1B2g   -0.622038     3B1u   -0.454451
       4B1u    0.166955     2B2u    0.172487     2B3u    0.193813
       4Ag     0.259553     2B3g    0.296547     2B2g    0.314842
       5Ag     0.314979     3B2u    0.796489     5B1u    0.810870
       3B3u    0.820262     6Ag     0.896737     1B1g    0.896849
       1Au     1.163169     6B1u    1.163382     7Ag     1.370460
       3B3g    1.599566     3B2g    1.625688     7B1u    1.850646
       8Ag     2.959228     4B2u    2.964727     4B3u    3.001813
       4B3g    3.160553     4B2g    3.200388     8B1u    3.880718
       5B2u    4.192050     5B3u    4.222891     9Ag     4.295139
       2B1g    4.349555    10Ag     4.355446     6B2u    4.584486
       6B3u    4.584529     5B3g    4.657196     5B2g    4.657218
       2Au     4.877327     9B1u    4.877359     6B3g    5.324600
       6B2g    5.358344    11Ag     5.594909     3B1g    5.595179
      10B1u    5.603489     7B2u    5.684396     7B3u    5.722980
       3Au     5.755026    11B1u    5.755674    12Ag     6.085421
       7B3g    6.319228     7B2g    6.353975    12B1u    6.469161
      13Ag     6.998521    13B1u    8.381059

    Final Occupation by Irrep:
             Ag   B1g   B2g   B3g    Au   B1u   B2u   B3u
    DOCC [     3,    0,    0,    0,    0,    2,    1,    1 ]
    SOCC [     0,    0,    1,    0,    0,    0,    0,    0 ]
    NA   [     3,    0,    1,    0,    0,    2,    1,    1 ]
    NB   [     3,    0,    0,    0,    0,    2,    1,    1 ]

  @DF-UKS Final Energy:  -149.80675503682735

   => Energetics <=

    Nuclear Repulsion Energy =             23.5853208557958212
    One-Electron Energy =                -245.9452574709214900
    Two-Electron Energy =                  85.7909052987981084
    DFT Exchange-Correlation Energy =     -13.2377237204998242
    Empirical Dispersion Energy =           0.0000000000000000
    VV10 Nonlocal Energy =                  0.0000000000000000
    Total Energy =                       -149.8067550368273544

  UHF NO Occupations:
  HONO-2 :    2B1u 1.9997482
  HONO-1 :    1B3u 1.9986734
  HONO-0 :    1B2g 1.0000000
  LUNO+0 :    2B3u 0.0013266
  LUNO+1 :    3B1u 0.0002518
  LUNO+2 :    4 Ag 0.0001489
  LUNO+3 :    2B2u 0.0000402

Computation Completed

Properties will be evaluated at   0.000000,   0.000000,   0.000000 [a0]

Properties computed using the B3LYP density matrix

 Multipole Moments:

 ------------------------------------------------------------------------------------
     Multipole            Electronic (a.u.)      Nuclear  (a.u.)        Total (a.u.)
 ------------------------------------------------------------------------------------

 L = 1.  Multiply by 2.5417464519 to convert [e a0] to [Debye]
 Dipole X            :          0.0000000            0.0000000            0.0000000
 Dipole Y            :          0.0000000            0.0000000            0.0000000
 Dipole Z            :          0.0000000            0.0000000            0.0000000
 Magnitude           :                                                    0.0000000

 L = 2.  Multiply by 1.3450342976 to convert [e a0^2] to [Debye ang]
 Quadrupole XX       :         -6.5109774            0.0000000           -6.5109774
 Quadrupole XY       :          0.0000000            0.0000000            0.0000000
 Quadrupole XZ       :          0.0000000            0.0000000            0.0000000
 Quadrupole YY       :         -5.9609648            0.0000000           -5.9609648
 Quadrupole YZ       :          0.0000000            0.0000000            0.0000000
 Quadrupole ZZ       :        -33.3277681           29.4534628           -3.8743053
 Traceless XX        :          8.7555927           -9.8178209           -1.0622282
 Traceless YY        :          9.3056053           -9.8178209           -0.5122156
 Traceless ZZ        :        -18.0611980           19.6356419            1.5744438

 ------------------------------------------------------------------------------------
  ==> Computing MBIS Charges <==

  Electron Count from Grid (Expected Number): 15.00000 (15.00000)
  Difference: -0.00000

  MBIS Charges: (a.u.)
   Center  Symbol  Z      Pop.       Charge
      1       O    8    7.499999    0.500001
      2       O    8    7.499999    0.500001

  MBIS Dipoles: [e a0]
   Center  Symbol  Z        X           Y           Z
      1       O    8   -0.000000    0.000000   -0.098325
      2       O    8    0.000000    0.000000    0.098325

  MBIS Quadrupoles: [e a0^2]
   Center  Symbol  Z      XX        XY        XZ        YY        YZ        ZZ
      1       O    8   -3.2555   -0.0000   -0.0000   -2.9805   -0.0000   -3.1244
      2       O    8   -3.2555   -0.0000    0.0000   -2.9805    0.0000   -3.1244

  MBIS Octupoles: [e a0^3]
   Center  Symbol  Z      XXX       XXY       XXZ       XYY       XYZ       XZZ       YYY       YYZ       YZZ       ZZZ
      1       O    8   -0.0000   -0.0000   -0.0976   -0.0000   -0.0000   -0.0000    0.0000   -0.1515    0.0000   -0.4394
      2       O    8   -0.0000   -0.0000    0.0976   -0.0000    0.0000   -0.0000    0.0000    0.1515    0.0000    0.4394

  MBIS Radial Moments:
   Center  Symbol  Z      [a0^2]      [a0^3]      [a0^4]
      1       O    8    9.360355   16.496076   34.906536
      2       O    8    9.360355   16.496076   34.906536

  MBIS Valence Widths: [a0]
   Center  Symbol  Z     Width
      1       O    8    0.366344
      2       O    8    0.366344

*** tstop() called on Mac.lan at Sun Aug 10 18:13:58 2025
Module time:
	user time   =       4.16 seconds =       0.07 minutes
	system time =       1.40 seconds =       0.02 minutes
	total time  =          0 seconds =       0.00 minutes
Total time:
	user time   =      15.79 seconds =       0.26 minutes
	system time =       3.54 seconds =       0.06 minutes
	total time  =          1 seconds =       0.02 minutes

    Psi4 stopped on: Sunday, 10 August 2025 06:13PM
    Psi4 wall time for execution: 0:00:01.89

*** Psi4 exiting successfully. Buy a developer a beer!
