                               Psi4 1.9.1 release

  ==> Input File <==

--------------------------------------------------------------------------
molecule {
1 3
O           0.000000           0.000000           0.000000
H           0.000000           0.000000           1.061635
}

set {
basis              cc-pvtz
reference          uks
maxiter            500
DAMPING_PERCENTAGE 1
E_CONVERGENCE      1.0E-8
D_CONVERGENCE      1.0E-8
DIIS_MAX_VECS      400
MBIS_MAXITER       8000
guess              read
}

E, wfn = energy('b3lyp', restart_file='last_wfn', return_wfn=True)
properties('b3lyp','MBIS_CHARGES', wfn=wfn)
wfn.to_file('last_wfn')
--------------------------------------------------------------------------

    Molecular point group: c2v
  Charge       = 1
  Multiplicity = 3
  Basis Set: CC-PVTZ
    Blend: CC-PVTZ
  Basis Set: (CC-PVTZ AUX)
    Blend: CC-PVTZ-JKFIT
  @DF-UKS Final Energy:   -75.28087491224356
    Total Energy =                        -75.2808749122435756
 Dipole X            :          0.0000000            0.0000000            0.0000000
 Dipole Y            :          0.0000000            0.0000000            0.0000000
 Dipole Z            :         -0.0094862            0.9359553            0.9264691
 Magnitude           :                                                    0.9264691
    Molecular point group: c2v

    Geometry (in Angstrom), charge = 1, multiplicity = 3:

       Center              X                  Y                   Z               Mass
    ------------   -----------------  -----------------  -----------------  -----------------
         O            0.000000000000     0.000000000000    -0.062927642839    15.994914619570
         H            0.000000000000     0.000000000000     0.998707357161     1.007825032230

  Charge       = 1
  Multiplicity = 3
  Basis Set: CC-PVTZ
    Blend: CC-PVTZ
  Basis Set: (CC-PVTZ AUX)
    Blend: CC-PVTZ-JKFIT

    Orbital Energies [Eh]
    ---------------------

    Alpha Occupied:

       1A1   -19.815047     2A1    -1.555720     3A1    -0.971176
       1B1    -0.943282     1B2    -0.943282

    Alpha Virtual:

       4A1    -0.334320     5A1    -0.012675     2B2     0.133600
       2B1     0.133600     6A1     0.176229     3B1     0.322881
       3B2     0.322881     7A1     0.485022     8A1     0.786691
       1A2     0.927521     9A1     0.927521     4B1     1.247227
       4B2     1.247227    10A1     1.543585    11A1     1.932896
      12A1     2.748674     2A2     2.748675     5B1     2.785206
       5B2     2.785206    13A1     3.108170     6B1     3.172747
       6B2     3.172747     7B1     3.494433     7B2     3.494433
      14A1     3.618961    15A1     4.251353     8B1     4.506915
       8B2     4.506915     3A2     4.714316    16A1     4.714316
       9B2     5.510431     9B1     5.510431     4A2     5.532347
      17A1     5.532348    18A1     5.669436    10B2     5.962949
      10B1     5.962949    19A1     6.316878    20A1     8.858448

    Beta Occupied:

       1A1   -19.758693     2A1    -1.400808     3A1    -0.918328

    Beta Virtual:

       1B1    -0.640604     1B2    -0.640604     4A1    -0.317765
       5A1    -0.007804     6A1     0.190904     2B1     0.198704
       2B2     0.198704     3B1     0.337936     3B2     0.337936
       7A1     0.541149     8A1     0.800661     9A1     1.039374
       1A2     1.039374     4B1     1.301147     4B2     1.301147
      10A1     1.573470    11A1     1.935737    12A1     2.753080
       2A2     2.753081     5B1     2.858056     5B2     2.858056
      13A1     3.120857     6B1     3.214603     6B2     3.214603
       7B1     3.538203     7B2     3.538203    14A1     3.649769
      15A1     4.306052     8B1     4.658967     8B2     4.658967
      16A1     4.811558     3A2     4.811559     9B2     5.600802
       9B1     5.600802    17A1     5.721526     4A2     5.745488
      18A1     5.745489    10B2     6.046224    10B1     6.046224
      19A1     6.387219    20A1     8.932122

    Final Occupation by Irrep:
             A1    A2    B1    B2
    DOCC [     3,    0,    0,    0 ]
    SOCC [     0,    0,    1,    1 ]
    NA   [     3,    0,    1,    1 ]
    NB   [     3,    0,    0,    0 ]

  @DF-UKS Final Energy:   -75.28087491211271

   => Energetics <=

    Nuclear Repulsion Energy =              3.9876395233389998
    One-Electron Energy =                -107.3001008742781437
    Two-Electron Energy =                  34.8911410312716939
    DFT Exchange-Correlation Energy =      -6.8595545924452486
    Empirical Dispersion Energy =           0.0000000000000000
    VV10 Nonlocal Energy =                  0.0000000000000000
    Total Energy =                        -75.2808749121126937

  UHF NO Occupations:
  HONO-2 :    3 A1 1.9980175
  HONO-1 :    1 B2 1.0000000
  HONO-0 :    1 B1 1.0000000
  LUNO+0 :    4 A1 0.0019825
  LUNO+1 :    5 A1 0.0006954
  LUNO+2 :    6 A1 0.0000014
  LUNO+3 :    7 A1 0.0000000

Computation Completed

Properties will be evaluated at   0.000000,   0.000000,   0.000000 [a0]

Properties computed using the B3LYP density matrix

 Multipole Moments:

 ------------------------------------------------------------------------------------
     Multipole            Electronic (a.u.)      Nuclear  (a.u.)        Total (a.u.)
 ------------------------------------------------------------------------------------

 L = 1.  Multiply by 2.5417464519 to convert [e a0] to [Debye]
 Dipole X            :          0.0000000            0.0000000            0.0000000
 Dipole Y            :          0.0000000            0.0000000            0.0000000
 Dipole Z            :         -0.0094862            0.9359553            0.9264691
 Magnitude           :                                                    0.9264691

 L = 2.  Multiply by 1.3450342976 to convert [e a0^2] to [Debye ang]
 Quadrupole XX       :         -3.0578235            0.0000000           -3.0578235
 Quadrupole XY       :          0.0000000            0.0000000            0.0000000
 Quadrupole XZ       :          0.0000000            0.0000000            0.0000000
 Quadrupole YY       :         -3.0578235            0.0000000           -3.0578235
 Quadrupole YZ       :          0.0000000            0.0000000            0.0000000
 Quadrupole ZZ       :         -5.0880035            3.6749667           -1.4130368
 Traceless XX        :          0.6767267           -1.2249889           -0.5482622
 Traceless YY        :          0.6767267           -1.2249889           -0.5482622
 Traceless ZZ        :         -1.3534534            2.4499778            1.0965244

 ------------------------------------------------------------------------------------
  ==> Computing MBIS Charges <==

  Electron Count from Grid (Expected Number):  8.00000 ( 8.00000)
  Difference:  0.00000

  MBIS Charges: (a.u.)
   Center  Symbol  Z      Pop.       Charge
      1       O    8    7.525489    0.474511
      2       H    1    0.474511    0.525489

  MBIS Dipoles: [e a0]
   Center  Symbol  Z        X           Y           Z
      1       O    8   -0.000000    0.000000   -0.062812
      2       H    1    0.000000    0.000000    0.053962

  MBIS Quadrupoles: [e a0^2]
   Center  Symbol  Z      XX        XY        XZ        YY        YZ        ZZ
      1       O    8   -2.8478    0.0000    0.0000   -2.8478   -0.0000   -3.3125
      2       H    1   -0.2100   -0.0000    0.0000   -0.2100   -0.0000   -0.1975

  MBIS Octupoles: [e a0^3]
   Center  Symbol  Z      XXX       XXY       XXZ       XYY       XYZ       XZZ       YYY       YYZ       YZZ       ZZZ
      1       O    8   -0.0000   -0.0000   -0.0391    0.0000   -0.0000    0.0000   -0.0000   -0.0391   -0.0000   -0.1777
      2       H    1    0.0000   -0.0000    0.0109    0.0000   -0.0000    0.0000   -0.0000    0.0109   -0.0000    0.0468

  MBIS Radial Moments:
   Center  Symbol  Z      [a0^2]      [a0^3]      [a0^4]
      1       O    8    9.008152   15.380985   31.423151
      2       H    1    0.617570    0.991172    1.899410

  MBIS Valence Widths: [a0]
   Center  Symbol  Z     Width
      1       O    8    0.358954
      2       H    1    0.333842

*** tstop() called on Mac.lan at Sun Aug 10 18:28:19 2025
Module time:
	user time   =       3.06 seconds =       0.05 minutes
	system time =       1.38 seconds =       0.02 minutes
	total time  =          1 seconds =       0.02 minutes
Total time:
	user time   =      12.96 seconds =       0.22 minutes
	system time =       3.24 seconds =       0.05 minutes
	total time  =          2 seconds =       0.03 minutes

    Psi4 stopped on: Sunday, 10 August 2025 06:28PM
    Psi4 wall time for execution: 0:00:01.58

*** Psi4 exiting successfully. Buy a developer a beer!
