                               Psi4 1.9.1 release

  ==> Input File <==

--------------------------------------------------------------------------
molecule {
1 2
O           0.000000           0.000000           0.000000
C           0.000000           0.000000           0.890258
}

set {
basis              cc-pvtz
reference          uks
maxiter            500
DAMPING_PERCENTAGE 1
E_CONVERGENCE      1.0E-8
D_CONVERGENCE      1.0E-8
DIIS_MAX_VECS      400
MBIS_MAXITER       8000
guess              read
}

E, wfn = energy('b3lyp', restart_file='last_wfn', return_wfn=True)
properties('b3lyp','MBIS_CHARGES', wfn=wfn)
wfn.to_file('last_wfn')
--------------------------------------------------------------------------

    Molecular point group: c2v
  Charge       = 1
  Multiplicity = 2
  Basis Set: CC-PVTZ
    Blend: CC-PVTZ
  Basis Set: (CC-PVTZ AUX)
    Blend: CC-PVTZ-JKFIT
  @DF-UKS Final Energy:  -112.62975162210134
    Total Energy =                       -112.6297516221013382
 Dipole X            :          0.0000000            0.0000000            0.0000000
 Dipole Y            :          0.0000000            0.0000000            0.0000000
 Dipole Z            :          0.9140031           -0.0018336            0.9121695
 Magnitude           :                                                    0.9121695
    Molecular point group: c2v

    Geometry (in Angstrom), charge = 1, multiplicity = 2:

       Center              X                  Y                   Z               Mass
    ------------   -----------------  -----------------  -----------------  -----------------
         O            0.000000000000     0.000000000000    -0.381608450862    15.994914619570
         C            0.000000000000     0.000000000000     0.508649549138    12.000000000000

  Charge       = 1
  Multiplicity = 2
  Basis Set: CC-PVTZ
    Blend: CC-PVTZ
  Basis Set: (CC-PVTZ AUX)
    Blend: CC-PVTZ-JKFIT

    Orbital Energies [Eh]
    ---------------------

    Alpha Occupied:

       1A1   -19.620696     2A1   -10.734924     3A1    -1.701539
       1B2    -0.975458     1B1    -0.975458     4A1    -0.936361
       5A1    -0.876220

    Alpha Virtual:

       2B1    -0.322659     2B2    -0.322659     6A1    -0.104439
       7A1    -0.024953     3B1    -0.021446     3B2    -0.021446
       8A1     0.239430     1A2     0.268559     9A1     0.268559
       4B2     0.326122     4B1     0.326122    10A1     0.447047
       5B2     0.584777     5B1     0.584777    11A1     0.880988
      12A1     1.218605     2A2     1.218605    13A1     1.296506
       6B2     1.406414     6B1     1.406414    14A1     1.540404
       7B2     1.709459     7B1     1.709459     8B2     2.207440
       8B1     2.207440    15A1     2.275283    16A1     2.425587
       3A2     2.425587     9B1     2.526269     9B2     2.526269
      17A1     2.592691     4A2     2.592691    18A1     2.646454
      10B1     3.140499    10B2     3.140499    19A1     3.365369
      11B1     3.859594    11B2     3.859594    12B1     4.768915
      12B2     4.768915    20A1     4.928431     5A2     5.521989
      21A1     5.521989     6A2     5.895606    22A1     5.895609
      23A1     5.899882    13B2     6.162318    13B1     6.162318
      24A1     6.608952    14B1     6.655821    14B2     6.655821
      25A1     8.364053    26A1    15.085194

    Beta Occupied:

       1A1   -19.621385     2A1   -10.709699     3A1    -1.694891
       1B2    -0.966755     1B1    -0.966755     4A1    -0.932749

    Beta Virtual:

       5A1    -0.631400     2B1    -0.278800     2B2    -0.278800
       6A1    -0.091249     3B1    -0.009720     3B2    -0.009720
       7A1     0.017162     8A1     0.257671     1A2     0.288376
       9A1     0.288376     4B2     0.327839     4B1     0.327839
      10A1     0.495356     5B2     0.618708     5B1     0.618708
      11A1     0.884955     2A2     1.220919    12A1     1.220919
      13A1     1.362868     6B2     1.427178     6B1     1.427178
      14A1     1.576689     7B2     1.730788     7B1     1.730788
       8B2     2.242075     8B1     2.242075    15A1     2.326782
       3A2     2.481397    16A1     2.481397     9B1     2.634638
       9B2     2.634638     4A2     2.640707    17A1     2.640710
      18A1     2.737157    10B1     3.161125    10B2     3.161125
      19A1     3.421015    11B1     3.879051    11B2     3.879051
      12B1     4.764314    12B2     4.764314    20A1     4.949293
       5A2     5.525321    21A1     5.525322     6A2     5.889120
      22A1     5.889123    23A1     5.916885    13B2     6.163272
      13B1     6.163272    24A1     6.617742    14B1     6.678809
      14B2     6.678809    25A1     8.376961    26A1    15.117053

    Final Occupation by Irrep:
             A1    A2    B1    B2
    DOCC [     4,    0,    1,    1 ]
    SOCC [     1,    0,    0,    0 ]
    NA   [     5,    0,    1,    1 ]
    NB   [     4,    0,    1,    1 ]

  @DF-UKS Final Energy:  -112.62975162202542

   => Energetics <=

    Nuclear Repulsion Energy =             28.5316235430178651
    One-Electron Energy =                -203.5446966935513160
    Two-Electron Energy =                  73.6075956575563595
    DFT Exchange-Correlation Energy =     -11.2242741290483465
    Empirical Dispersion Energy =           0.0000000000000000
    VV10 Nonlocal Energy =                  0.0000000000000000
    Total Energy =                       -112.6297516220254238

  UHF NO Occupations:
  HONO-2 :    1 B2 1.9985933
  HONO-1 :    1 B1 1.9985933
  HONO-0 :    5 A1 1.0000000
  LUNO+0 :    2 B1 0.0014067
  LUNO+1 :    2 B2 0.0014067
  LUNO+2 :    6 A1 0.0000173
  LUNO+3 :    7 A1 0.0000091

Computation Completed

Properties will be evaluated at   0.000000,   0.000000,   0.000000 [a0]

Properties computed using the B3LYP density matrix

 Multipole Moments:

 ------------------------------------------------------------------------------------
     Multipole            Electronic (a.u.)      Nuclear  (a.u.)        Total (a.u.)
 ------------------------------------------------------------------------------------

 L = 1.  Multiply by 2.5417464519 to convert [e a0] to [Debye]
 Dipole X            :          0.0000000            0.0000000            0.0000000
 Dipole Y            :          0.0000000            0.0000000            0.0000000
 Dipole Z            :          0.9140031           -0.0018336            0.9121695
 Magnitude           :                                                    0.9121695

 L = 2.  Multiply by 1.3450342976 to convert [e a0^2] to [Debye ang]
 Quadrupole XX       :         -5.4220743            0.0000000           -5.4220743
 Quadrupole XY       :          0.0000000            0.0000000            0.0000000
 Quadrupole XZ       :          0.0000000            0.0000000            0.0000000
 Quadrupole YY       :         -5.4220743            0.0000000           -5.4220743
 Quadrupole YZ       :          0.0000000            0.0000000            0.0000000
 Quadrupole ZZ       :        -14.2294071            9.7038197           -4.5255875
 Traceless XX        :          2.9357776           -3.2346066           -0.2988289
 Traceless YY        :          2.9357776           -3.2346066           -0.2988289
 Traceless ZZ        :         -5.8715553            6.4692131            0.5976579

 ------------------------------------------------------------------------------------
  ==> Computing MBIS Charges <==

  Electron Count from Grid (Expected Number): 13.00000 (13.00000)
  Difference: -0.00000

  MBIS Charges: (a.u.)
   Center  Symbol  Z      Pop.       Charge
      1       O    8    8.059732   -0.059732
      2       C    6    4.940268    1.059732

  MBIS Dipoles: [e a0]
   Center  Symbol  Z        X           Y           Z
      1       O    8   -0.000000   -0.000000   -0.223068
      2       C    6   -0.000000    0.000000    0.073538

  MBIS Quadrupoles: [e a0^2]
   Center  Symbol  Z      XX        XY        XZ        YY        YZ        ZZ
      1       O    8   -3.1876    0.0000    0.0000   -3.1876   -0.0000   -3.4678
      2       C    6   -2.2345   -0.0000    0.0000   -2.2345    0.0000   -2.4689

  MBIS Octupoles: [e a0^3]
   Center  Symbol  Z      XXX       XXY       XXZ       XYY       XYZ       XZZ       YYY       YYZ       YZZ       ZZZ
      1       O    8   -0.0000    0.0000   -0.1444   -0.0000   -0.0000    0.0000    0.0000   -0.1444    0.0000   -0.1977
      2       C    6   -0.0000    0.0000    0.0077   -0.0000   -0.0000   -0.0000    0.0000    0.0077    0.0000   -0.1718

  MBIS Radial Moments:
   Center  Symbol  Z      [a0^2]      [a0^3]      [a0^4]
      1       O    8    9.842946   16.838051   34.466170
      2       C    6    6.937933   13.697950   32.376554

  MBIS Valence Widths: [a0]
   Center  Symbol  Z     Width
      1       O    8    0.358399
      2       C    6    0.419088

*** tstop() called on Mac.lan at Sun Aug 10 18:36:51 2025
Module time:
	user time   =       3.55 seconds =       0.06 minutes
	system time =       2.49 seconds =       0.04 minutes
	total time  =          1 seconds =       0.02 minutes
Total time:
	user time   =      16.30 seconds =       0.27 minutes
	system time =       4.75 seconds =       0.08 minutes
	total time  =          2 seconds =       0.03 minutes

    Psi4 stopped on: Sunday, 10 August 2025 06:36PM
    Psi4 wall time for execution: 0:00:02.06

*** Psi4 exiting successfully. Buy a developer a beer!
