                               Psi4 1.9.1 release

  ==> Input File <==

--------------------------------------------------------------------------
molecule {
1 3
O           0.000000           0.000000           0.000000
H           0.000000           0.000000           1.290490
}

set {
basis              cc-pvtz
reference          uks
maxiter            500
DAMPING_PERCENTAGE 1
E_CONVERGENCE      1.0E-8
D_CONVERGENCE      1.0E-8
DIIS_MAX_VECS      400
MBIS_MAXITER       8000
guess              read
}

E, wfn = energy('b3lyp', restart_file='last_wfn', return_wfn=True)
properties('b3lyp','MBIS_CHARGES', wfn=wfn)
wfn.to_file('last_wfn')
--------------------------------------------------------------------------

    Molecular point group: c2v
  Charge       = 1
  Multiplicity = 3
  Basis Set: CC-PVTZ
    Blend: CC-PVTZ
  Basis Set: (CC-PVTZ AUX)
    Blend: CC-PVTZ-JKFIT
  @DF-UKS Final Energy:   -75.25898377305347
    Total Energy =                        -75.2589837730534725
 Dipole X            :          0.0000000            0.0000000            0.0000000
 Dipole Y            :          0.0000000            0.0000000            0.0000000
 Dipole Z            :          0.0377995            1.1377177            1.1755173
 Magnitude           :                                                    1.1755173
    Molecular point group: c2v

    Geometry (in Angstrom), charge = 1, multiplicity = 3:

       Center              X                  Y                   Z               Mass
    ------------   -----------------  -----------------  -----------------  -----------------
         O            0.000000000000     0.000000000000    -0.076492856591    15.994914619570
         H            0.000000000000     0.000000000000     1.213997143409     1.007825032230

  Charge       = 1
  Multiplicity = 3
  Basis Set: CC-PVTZ
    Blend: CC-PVTZ
  Basis Set: (CC-PVTZ AUX)
    Blend: CC-PVTZ-JKFIT

    Orbital Energies [Eh]
    ---------------------

    Alpha Occupied:

       1A1   -19.788813     2A1    -1.499219     1B2    -0.911642
       1B1    -0.911642     3A1    -0.910154

    Alpha Virtual:

       4A1    -0.415015     5A1    -0.031035     2B1     0.131739
       2B2     0.131739     6A1     0.211521     3B2     0.330285
       3B1     0.330285     7A1     0.457963     8A1     0.695599
       9A1     0.956788     1A2     0.956788     4B1     1.150756
       4B2     1.150756    10A1     1.620567    11A1     1.941026
       2A2     2.767840    12A1     2.767843    13A1     2.771260
       5B1     2.774517     5B2     2.774517     6B1     3.167404
       6B2     3.167404     7B2     3.299832     7B1     3.299832
      14A1     3.411201    15A1     4.278963     8B1     4.536809
       8B2     4.536809    16A1     4.606246     3A2     4.606246
       9B1     5.016065     9B2     5.016065    17A1     5.437789
      18A1     5.548555     4A2     5.548558    10B1     5.854019
      10B2     5.854019    19A1     6.391123    20A1     7.375741

    Beta Occupied:

       1A1   -19.731468     2A1    -1.335435     3A1    -0.859873

    Beta Virtual:

       1B2    -0.609555     1B1    -0.609555     4A1    -0.406393
       5A1    -0.034380     2B1     0.184632     2B2     0.184632
       6A1     0.231389     3B2     0.348923     3B1     0.348923
       7A1     0.503905     8A1     0.716082     1A2     1.069471
       9A1     1.069471     4B1     1.205557     4B2     1.205557
      10A1     1.658825    11A1     1.918725     2A2     2.754305
      12A1     2.754307    13A1     2.787161     5B1     2.817503
       5B2     2.817503     6B2     3.224395     6B1     3.224395
       7B1     3.327006     7B2     3.327006    14A1     3.416661
      15A1     4.316068     8B1     4.688363     8B2     4.688363
      16A1     4.706211     3A2     4.706211     9B1     5.092107
       9B2     5.092107    17A1     5.490442    18A1     5.763064
       4A2     5.763067    10B1     5.962208    10B2     5.962208
      19A1     6.480925    20A1     7.456964

    Final Occupation by Irrep:
             A1    A2    B1    B2
    DOCC [     3,    0,    0,    0 ]
    SOCC [     0,    0,    1,    1 ]
    NA   [     3,    0,    1,    1 ]
    NB   [     3,    0,    0,    0 ]

  @DF-UKS Final Energy:   -75.25898377298745

   => Energetics <=

    Nuclear Repulsion Energy =              3.2804730647738456
    One-Electron Energy =                -106.2300715184574074
    Two-Electron Energy =                  34.5068502262262626
    DFT Exchange-Correlation Energy =      -6.8162355455301515
    Empirical Dispersion Energy =           0.0000000000000000
    VV10 Nonlocal Energy =                  0.0000000000000000
    Total Energy =                        -75.2589837729874489

  UHF NO Occupations:
  HONO-2 :    3 A1 1.9950553
  HONO-1 :    1 B2 1.0000000
  HONO-0 :    1 B1 1.0000000
  LUNO+0 :    4 A1 0.0049447
  LUNO+1 :    5 A1 0.0008689
  LUNO+2 :    6 A1 0.0000014
  LUNO+3 :    7 A1 0.0000000

Computation Completed

Properties will be evaluated at   0.000000,   0.000000,   0.000000 [a0]

Properties computed using the B3LYP density matrix

 Multipole Moments:

 ------------------------------------------------------------------------------------
     Multipole            Electronic (a.u.)      Nuclear  (a.u.)        Total (a.u.)
 ------------------------------------------------------------------------------------

 L = 1.  Multiply by 2.5417464519 to convert [e a0] to [Debye]
 Dipole X            :          0.0000000            0.0000000            0.0000000
 Dipole Y            :          0.0000000            0.0000000            0.0000000
 Dipole Z            :          0.0377995            1.1377177            1.1755173
 Magnitude           :                                                    1.1755173

 L = 2.  Multiply by 1.3450342976 to convert [e a0^2] to [Debye ang]
 Quadrupole XX       :         -3.1686176            0.0000000           -3.1686176
 Quadrupole XY       :          0.0000000            0.0000000            0.0000000
 Quadrupole XZ       :          0.0000000            0.0000000            0.0000000
 Quadrupole YY       :         -3.1686176            0.0000000           -3.1686176
 Quadrupole YZ       :          0.0000000            0.0000000            0.0000000
 Quadrupole ZZ       :         -5.7826972            5.4301552           -0.3525420
 Traceless XX        :          0.8713599           -1.8100517           -0.9386919
 Traceless YY        :          0.8713599           -1.8100517           -0.9386919
 Traceless ZZ        :         -1.7427197            3.6201035            1.8773837

 ------------------------------------------------------------------------------------
  ==> Computing MBIS Charges <==

  Electron Count from Grid (Expected Number):  8.00000 ( 8.00000)
  Difference:  0.00000

  MBIS Charges: (a.u.)
   Center  Symbol  Z      Pop.       Charge
      1       O    8    7.565937    0.434063
      2       H    1    0.434063    0.565937

  MBIS Dipoles: [e a0]
   Center  Symbol  Z        X           Y           Z
      1       O    8   -0.000000   -0.000000   -0.130368
      2       H    1    0.000000    0.000000    0.070302

  MBIS Quadrupoles: [e a0^2]
   Center  Symbol  Z      XX        XY        XZ        YY        YZ        ZZ
      1       O    8   -2.9262    0.0000   -0.0000   -2.9262   -0.0000   -3.4792
      2       H    1   -0.2424   -0.0000    0.0000   -0.2424    0.0000   -0.2212

  MBIS Octupoles: [e a0^3]
   Center  Symbol  Z      XXX       XXY       XXZ       XYY       XYZ       XZZ       YYY       YYZ       YZZ       ZZZ
      1       O    8   -0.0000   -0.0000   -0.1037    0.0000   -0.0000    0.0000   -0.0000   -0.1037    0.0000   -0.4074
      2       H    1    0.0000    0.0000    0.0271    0.0000   -0.0000    0.0000    0.0000    0.0271    0.0000    0.0879

  MBIS Radial Moments:
   Center  Symbol  Z      [a0^2]      [a0^3]      [a0^4]
      1       O    8    9.331591   16.217174   33.690184
      2       H    1    0.706031    1.255150    2.654403

  MBIS Valence Widths: [a0]
   Center  Symbol  Z     Width
      1       O    8    0.364143
      2       H    1    0.374356

*** tstop() called on Mac.lan at Sun Aug 10 18:30:04 2025
Module time:
	user time   =      10.95 seconds =       0.18 minutes
	system time =       2.48 seconds =       0.04 minutes
	total time  =          2 seconds =       0.03 minutes
Total time:
	user time   =      55.16 seconds =       0.92 minutes
	system time =       5.18 seconds =       0.09 minutes
	total time  =          6 seconds =       0.10 minutes

    Psi4 stopped on: Sunday, 10 August 2025 06:30PM
    Psi4 wall time for execution: 0:00:06.09

*** Psi4 exiting successfully. Buy a developer a beer!
