                               Psi4 1.9.1 release

  ==> Input File <==

--------------------------------------------------------------------------
molecule {
1 3
O           0.000000           0.000000           0.000000
H           0.000000           0.000000           1.328633
}

set {
basis              cc-pvtz
reference          uks
maxiter            500
DAMPING_PERCENTAGE 1
E_CONVERGENCE      1.0E-8
D_CONVERGENCE      1.0E-8
DIIS_MAX_VECS      400
MBIS_MAXITER       8000
guess              read
}

E, wfn = energy('b3lyp', restart_file='last_wfn', return_wfn=True)
properties('b3lyp','MBIS_CHARGES', wfn=wfn)
wfn.to_file('last_wfn')
--------------------------------------------------------------------------

    Molecular point group: c2v
  Charge       = 1
  Multiplicity = 3
  Basis Set: CC-PVTZ
    Blend: CC-PVTZ
  Basis Set: (CC-PVTZ AUX)
    Blend: CC-PVTZ-JKFIT
  @DF-UKS Final Energy:   -75.25382805293096
    Total Energy =                        -75.2538280529309560
 Dipole X            :          0.0000000            0.0000000            0.0000000
 Dipole Y            :          0.0000000            0.0000000            0.0000000
 Dipole Z            :          0.0493834            1.1713452            1.2207286
 Magnitude           :                                                    1.2207286
    Molecular point group: c2v

    Geometry (in Angstrom), charge = 1, multiplicity = 3:

       Center              X                  Y                   Z               Mass
    ------------   -----------------  -----------------  -----------------  -----------------
         O            0.000000000000     0.000000000000    -0.078753755187    15.994914619570
         H            0.000000000000     0.000000000000     1.249879244813     1.007825032230

  Charge       = 1
  Multiplicity = 3
  Basis Set: CC-PVTZ
    Blend: CC-PVTZ
  Basis Set: (CC-PVTZ AUX)
    Blend: CC-PVTZ-JKFIT

    Orbital Energies [Eh]
    ---------------------

    Alpha Occupied:

       1A1   -19.784039     2A1    -1.491888     1B2    -0.906683
       1B1    -0.906683     3A1    -0.901019

    Alpha Virtual:

       4A1    -0.425770     5A1    -0.031222     2B1     0.132070
       2B2     0.132070     6A1     0.217216     3B1     0.331893
       3B2     0.331893     7A1     0.445643     8A1     0.689177
       9A1     0.961646     1A2     0.961647     4B2     1.137261
       4B1     1.137261    10A1     1.601376    11A1     1.956821
      12A1     2.734822     2A2     2.772610    13A1     2.772613
       5B1     2.781089     5B2     2.781089     6B1     3.154926
       6B2     3.154926     7B2     3.281977     7B1     3.281977
      14A1     3.400011    15A1     4.241645     8B1     4.541539
       8B2     4.541539     3A2     4.599605    16A1     4.599605
       9B1     4.957069     9B2     4.957069    17A1     5.384527
      18A1     5.551372     4A2     5.551374    10B2     5.835901
      10B1     5.835901    19A1     6.425853    20A1     7.219480

    Beta Occupied:

       1A1   -19.726453     2A1    -1.326723     3A1    -0.850468

    Beta Virtual:

       1B2    -0.604587     1B1    -0.604587     4A1    -0.419505
       5A1    -0.035813     2B1     0.182801     2B2     0.182801
       6A1     0.238072     3B1     0.350971     3B2     0.350971
       7A1     0.487800     8A1     0.712479     1A2     1.074512
       9A1     1.074512     4B2     1.192388     4B1     1.192388
      10A1     1.636819    11A1     1.933528    12A1     2.750400
       2A2     2.755871    13A1     2.755874     5B1     2.817442
       5B2     2.817442     6B1     3.221349     6B2     3.221349
       7B1     3.299560     7B2     3.299560    14A1     3.402259
      15A1     4.276366     8B1     4.693021     8B2     4.693021
      16A1     4.700189     3A2     4.700189     9B1     5.032999
       9B2     5.032999    17A1     5.438681    18A1     5.766011
       4A2     5.766013    10B2     5.946612    10B1     5.946612
      19A1     6.511989    20A1     7.306723

    Final Occupation by Irrep:
             A1    A2    B1    B2
    DOCC [     3,    0,    0,    0 ]
    SOCC [     0,    0,    1,    1 ]
    NA   [     3,    0,    1,    1 ]
    NB   [     3,    0,    0,    0 ]

  @DF-UKS Final Energy:   -75.25382805286377

   => Energetics <=

    Nuclear Repulsion Energy =              3.1862957531236993
    One-Electron Energy =                -106.0891000371254904
    Two-Electron Energy =                  34.4602963545682286
    DFT Exchange-Correlation Energy =      -6.8113201234301890
    Empirical Dispersion Energy =           0.0000000000000000
    VV10 Nonlocal Energy =                  0.0000000000000000
    Total Energy =                        -75.2538280528637529

  UHF NO Occupations:
  HONO-2 :    3 A1 1.9939779
  HONO-1 :    1 B1 1.0000000
  HONO-0 :    1 B2 1.0000000
  LUNO+0 :    4 A1 0.0060221
  LUNO+1 :    5 A1 0.0008796
  LUNO+2 :    6 A1 0.0000014
  LUNO+3 :    7 A1 0.0000000

Computation Completed

Properties will be evaluated at   0.000000,   0.000000,   0.000000 [a0]

Properties computed using the B3LYP density matrix

 Multipole Moments:

 ------------------------------------------------------------------------------------
     Multipole            Electronic (a.u.)      Nuclear  (a.u.)        Total (a.u.)
 ------------------------------------------------------------------------------------

 L = 1.  Multiply by 2.5417464519 to convert [e a0] to [Debye]
 Dipole X            :          0.0000000            0.0000000            0.0000000
 Dipole Y            :          0.0000000            0.0000000            0.0000000
 Dipole Z            :          0.0493834            1.1713452            1.2207286
 Magnitude           :                                                    1.2207286

 L = 2.  Multiply by 1.3450342976 to convert [e a0^2] to [Debye ang]
 Quadrupole XX       :         -3.1846029            0.0000000           -3.1846029
 Quadrupole XY       :          0.0000000            0.0000000            0.0000000
 Quadrupole XZ       :          0.0000000            0.0000000            0.0000000
 Quadrupole YY       :         -3.1846029            0.0000000           -3.1846029
 Quadrupole YZ       :          0.0000000            0.0000000            0.0000000
 Quadrupole ZZ       :         -5.9017637            5.7558971           -0.1458665
 Traceless XX        :          0.9057203           -1.9186324           -1.0129121
 Traceless YY        :          0.9057203           -1.9186324           -1.0129121
 Traceless ZZ        :         -1.8114405            3.8372648            2.0258242

 ------------------------------------------------------------------------------------
  ==> Computing MBIS Charges <==

  Electron Count from Grid (Expected Number):  8.00000 ( 8.00000)
  Difference:  0.00000

  MBIS Charges: (a.u.)
   Center  Symbol  Z      Pop.       Charge
      1       O    8    7.571556    0.428444
      2       H    1    0.428444    0.571556

  MBIS Dipoles: [e a0]
   Center  Symbol  Z        X           Y           Z
      1       O    8   -0.000000    0.000000   -0.138321
      2       H    1   -0.000000    0.000000    0.072836

  MBIS Quadrupoles: [e a0^2]
   Center  Symbol  Z      XX        XY        XZ        YY        YZ        ZZ
      1       O    8   -2.9375    0.0000    0.0000   -2.9375    0.0000   -3.5038
      2       H    1   -0.2471   -0.0000   -0.0000   -0.2471    0.0000   -0.2254

  MBIS Octupoles: [e a0^3]
   Center  Symbol  Z      XXX       XXY       XXZ       XYY       XYZ       XZZ       YYY       YYZ       YZZ       ZZZ
      1       O    8   -0.0000   -0.0000   -0.1121   -0.0000   -0.0000   -0.0000   -0.0000   -0.1121   -0.0000   -0.4406
      2       H    1   -0.0000    0.0000    0.0305    0.0000   -0.0000    0.0000    0.0000    0.0305    0.0000    0.0946

  MBIS Radial Moments:
   Center  Symbol  Z      [a0^2]      [a0^3]      [a0^4]
      1       O    8    9.378793   16.345749   34.054127
      2       H    1    0.719555    1.298336    2.785665

  MBIS Valence Widths: [a0]
   Center  Symbol  Z     Width
      1       O    8    0.364862
      2       H    1    0.380537

*** tstop() called on Mac.lan at Sun Aug 10 18:30:16 2025
Module time:
	user time   =       8.14 seconds =       0.14 minutes
	system time =       2.37 seconds =       0.04 minutes
	total time  =          1 seconds =       0.02 minutes
Total time:
	user time   =      54.24 seconds =       0.90 minutes
	system time =       6.45 seconds =       0.11 minutes
	total time  =          7 seconds =       0.12 minutes

    Psi4 stopped on: Sunday, 10 August 2025 06:30PM
    Psi4 wall time for execution: 0:00:06.41

*** Psi4 exiting successfully. Buy a developer a beer!
