                               Psi4 1.9.1 release

  ==> Input File <==

--------------------------------------------------------------------------
molecule {
1 2
H           0.000000           0.000000           0.000000
H           0.000000           0.000000           1.629742
}

set {
basis              cc-pvtz
reference          uks
maxiter            500
DAMPING_PERCENTAGE 1
E_CONVERGENCE      1.0E-8
D_CONVERGENCE      1.0E-8
DIIS_MAX_VECS      400
MBIS_MAXITER       8000
guess              read
}

E, wfn = energy('b3lyp', restart_file='last_wfn', return_wfn=True)
properties('b3lyp','MBIS_CHARGES', wfn=wfn)
wfn.to_file('last_wfn')
--------------------------------------------------------------------------

    Molecular point group: d2h
  Charge       = 1
  Multiplicity = 2
  Basis Set: CC-PVTZ
    Blend: CC-PVTZ
  Basis Set: (CC-PVTZ AUX)
    Blend: CC-PVTZ-JKFIT
  @DF-UKS Final Energy:    -0.59323792744161
    Total Energy =                         -0.5932379274416116
 Dipole X            :          0.0000000            0.0000000            0.0000000
 Dipole Y            :          0.0000000            0.0000000            0.0000000
 Dipole Z            :          0.0000000            0.0000000            0.0000000
 Magnitude           :                                                    0.0000000
    Molecular point group: d2h

    Geometry (in Angstrom), charge = 1, multiplicity = 2:

       Center              X                  Y                   Z               Mass
    ------------   -----------------  -----------------  -----------------  -----------------
         H            0.000000000000     0.000000000000    -0.814871000000     1.007825032230
         H            0.000000000000     0.000000000000     0.814871000000     1.007825032230

  Charge       = 1
  Multiplicity = 2
  Basis Set: CC-PVTZ
    Blend: CC-PVTZ
  Basis Set: (CC-PVTZ AUX)
    Blend: CC-PVTZ-JKFIT

    Orbital Energies [Eh]
    ---------------------

    Alpha Occupied:

       1Ag    -0.766655

    Alpha Virtual:

       1B1u   -0.527455     2Ag    -0.041205     2B1u    0.011054
       1B3u    0.128579     1B2u    0.128579     3Ag     0.186108
       1B2g    0.361532     1B3g    0.361532     3B1u    0.725799
       4Ag     1.701562     4B1u    1.892749     5Ag     2.453465
       2B2u    2.523230     2B3u    2.523230     1B1g    2.715178
       6Ag     2.715179     1Au     2.783878     5B1u    2.783878
       2B2g    2.928488     2B3g    2.928488     3B3u    3.078420
       3B2u    3.078420     6B1u    3.098616     3B3g    3.276887
       3B2g    3.276887     7Ag     3.353395     7B1u    4.079422

    Beta Occupied:

    Beta Virtual:

       1Ag    -0.474373     1B1u   -0.305775     2Ag     0.054241
       2B1u    0.114899     1B2u    0.258917     1B3u    0.258917
       3Ag     0.339726     1B3g    0.486774     1B2g    0.486774
       3B1u    0.857528     4Ag     2.010412     4B1u    2.186983
       5Ag     2.650155     2B2u    2.711939     2B3u    2.711939
       6Ag     2.898754     1B1g    2.898759     5B1u    2.967460
       1Au     2.967465     2B2g    3.143355     2B3g    3.143355
       3B2u    3.330861     3B3u    3.330861     6B1u    3.355824
       3B3g    3.503293     3B2g    3.503293     7Ag     3.607151
       7B1u    4.288566

    Final Occupation by Irrep:
             Ag   B1g   B2g   B3g    Au   B1u   B2u   B3u
    DOCC [     0,    0,    0,    0,    0,    0,    0,    0 ]
    SOCC [     1,    0,    0,    0,    0,    0,    0,    0 ]
    NA   [     1,    0,    0,    0,    0,    0,    0,    0 ]
    NB   [     0,    0,    0,    0,    0,    0,    0,    0 ]

  @DF-UKS Final Energy:    -0.59323792741900

   => Energetics <=

    Nuclear Repulsion Energy =              0.3246999897345715
    One-Electron Energy =                  -0.8964272418760517
    Two-Electron Energy =                   0.2127420544201625
    DFT Exchange-Correlation Energy =      -0.2342527296976809
    Empirical Dispersion Energy =           0.0000000000000000
    VV10 Nonlocal Energy =                  0.0000000000000000
    Total Energy =                         -0.5932379274189986

  UHF NO Occupations:
  HONO-0 :    1 Ag 1.0000000
  LUNO+0 :    2 Ag 0.0000000
  LUNO+1 :    3B3u 0.0000000
  LUNO+2 :    2B3u 0.0000000
  LUNO+3 :    1B3u 0.0000000

Computation Completed

Properties will be evaluated at   0.000000,   0.000000,   0.000000 [a0]

Properties computed using the B3LYP density matrix

 Multipole Moments:

 ------------------------------------------------------------------------------------
     Multipole            Electronic (a.u.)      Nuclear  (a.u.)        Total (a.u.)
 ------------------------------------------------------------------------------------

 L = 1.  Multiply by 2.5417464519 to convert [e a0] to [Debye]
 Dipole X            :          0.0000000            0.0000000            0.0000000
 Dipole Y            :          0.0000000            0.0000000            0.0000000
 Dipole Z            :          0.0000000            0.0000000            0.0000000
 Magnitude           :                                                    0.0000000

 L = 2.  Multiply by 1.3450342976 to convert [e a0^2] to [Debye ang]
 Quadrupole XX       :         -0.7836491            0.0000000           -0.7836491
 Quadrupole XY       :          0.0000000            0.0000000            0.0000000
 Quadrupole XZ       :          0.0000000            0.0000000            0.0000000
 Quadrupole YY       :         -0.7836491            0.0000000           -0.7836491
 Quadrupole YZ       :          0.0000000            0.0000000            0.0000000
 Quadrupole ZZ       :         -2.3862260            4.7424794            2.3562534
 Traceless XX        :          0.5341923           -1.5808265           -1.0466342
 Traceless YY        :          0.5341923           -1.5808265           -1.0466342
 Traceless ZZ        :         -1.0683846            3.1616529            2.0932684

 ------------------------------------------------------------------------------------
  ==> Computing MBIS Charges <==

  Electron Count from Grid (Expected Number):  1.00000 ( 1.00000)
  Difference: -0.00000

  MBIS Charges: (a.u.)
   Center  Symbol  Z      Pop.       Charge
      1       H    1    0.500000    0.500000
      2       H    1    0.500000    0.500000

  MBIS Dipoles: [e a0]
   Center  Symbol  Z        X           Y           Z
      1       H    1    0.000000   -0.000000   -0.135752
      2       H    1    0.000000   -0.000000    0.135752

  MBIS Quadrupoles: [e a0^2]
   Center  Symbol  Z      XX        XY        XZ        YY        YZ        ZZ
      1       H    1   -0.3918   -0.0000    0.0000   -0.3918    0.0000   -0.4256
      2       H    1   -0.3918   -0.0000    0.0000   -0.3918   -0.0000   -0.4256

  MBIS Octupoles: [e a0^3]
   Center  Symbol  Z      XXX       XXY       XXZ       XYY       XYZ       XZZ       YYY       YYZ       YZZ       ZZZ
      1       H    1   -0.0000   -0.0000   -0.1179    0.0000    0.0000   -0.0000   -0.0000   -0.1179   -0.0000   -0.2984
      2       H    1    0.0000    0.0000    0.1179   -0.0000   -0.0000    0.0000   -0.0000    0.1179   -0.0000    0.2984

  MBIS Radial Moments:
   Center  Symbol  Z      [a0^2]      [a0^3]      [a0^4]
      1       H    1    1.209226    2.614150    6.693755
      2       H    1    1.209226    2.614150    6.693755

  MBIS Valence Widths: [a0]
   Center  Symbol  Z     Width
      1       H    1    0.455738
      2       H    1    0.455738

*** tstop() called on Mac.lan at Sun Aug 10 18:11:58 2025
Module time:
	user time   =       0.54 seconds =       0.01 minutes
	system time =       1.28 seconds =       0.02 minutes
	total time  =          0 seconds =       0.00 minutes
Total time:
	user time   =       1.15 seconds =       0.02 minutes
	system time =       3.49 seconds =       0.06 minutes
	total time  =          1 seconds =       0.02 minutes

    Psi4 stopped on: Sunday, 10 August 2025 06:11PM
    Psi4 wall time for execution: 0:00:00.61

*** Psi4 exiting successfully. Buy a developer a beer!
