                               Psi4 1.9.1 release

  ==> Input File <==

--------------------------------------------------------------------------
molecule {
1 1
O           0.000000           0.000000           0.000000
N           0.000000           0.000000           0.770289
}

set {
basis              cc-pvtz
reference          uks
maxiter            500
DAMPING_PERCENTAGE 1
E_CONVERGENCE      1.0E-8
D_CONVERGENCE      1.0E-8
DIIS_MAX_VECS      400
MBIS_MAXITER       8000
guess              read
}

E, wfn = energy('b3lyp', restart_file='last_wfn', return_wfn=True)
properties('b3lyp','MBIS_CHARGES', wfn=wfn)
wfn.to_file('last_wfn')
--------------------------------------------------------------------------

    Molecular point group: c2v
  Charge       = 1
  Multiplicity = 1
  Basis Set: CC-PVTZ
    Blend: CC-PVTZ
  Basis Set: (CC-PVTZ AUX)
    Blend: CC-PVTZ-JKFIT
  @DF-UKS Final Energy:  -129.01075320082236
    Total Energy =                       -129.0107532008223643
 Dipole X            :          0.0000000            0.0000000            0.0000000
 Dipole Y            :          0.0000000            0.0000000            0.0000000
 Dipole Z            :         -0.0776953           -0.0029207           -0.0806160
 Magnitude           :                                                    0.0806160
    Molecular point group: c2v

    Geometry (in Angstrom), charge = 1, multiplicity = 1:

       Center              X                  Y                   Z               Mass
    ------------   -----------------  -----------------  -----------------  -----------------
         O            0.000000000000     0.000000000000    -0.359571236825    15.994914619570
         N            0.000000000000     0.000000000000     0.410717763175    14.003074004430

  Charge       = 1
  Multiplicity = 1
  Basis Set: CC-PVTZ
    Blend: CC-PVTZ
  Basis Set: (CC-PVTZ AUX)
    Blend: CC-PVTZ-JKFIT

    Orbital Energies [Eh]
    ---------------------

    Alpha Occupied:

       1A1   -19.750985     2A1   -14.881428     3A1    -2.032463
       1B2    -1.196957     1B1    -1.196957     4A1    -1.081393
       5A1    -0.917816

    Alpha Virtual:

       2B2    -0.298752     2B1    -0.298752     6A1    -0.064736
       3B1     0.029892     3B2     0.029892     7A1     0.100918
       8A1     0.202447     4B2     0.314546     4B1     0.314546
       9A1     0.495762     1A2     0.495762    10A1     0.830890
      11A1     0.912948     5B2     0.976165     5B1     0.976165
      12A1     1.272615     2A2     1.272615    13A1     1.629251
       6B2     1.694364     6B1     1.694364     7B1     2.236082
       7B2     2.236082    14A1     2.477522    15A1     2.838798
       8B2     3.261253     8B1     3.261253    16A1     3.415770
      17A1     3.513242     3A2     3.513242     9B2     3.550368
       9B1     3.550368    10B1     3.847245    10B2     3.847245
       4A2     3.933756    18A1     3.933756    19A1     4.274000
      11B2     4.597322    11B1     4.597322    12B2     4.803147
      12B1     4.803147    20A1     5.649249    21A1     5.653196
       5A2     5.653198    13B2     6.208656    13B1     6.208656
      22A1     6.220700     6A2     6.220700    23A1     6.635411
      24A1     7.602561    14B2     8.150668    14B1     8.150668
      25A1     9.844357    26A1    24.310235

    Beta Occupied:

       1A1   -19.750985     2A1   -14.881428     3A1    -2.032463
       1B2    -1.196957     1B1    -1.196957     4A1    -1.081393
       5A1    -0.917816

    Beta Virtual:

       2B2    -0.298752     2B1    -0.298752     6A1    -0.064736
       3B1     0.029892     3B2     0.029892     7A1     0.100918
       8A1     0.202447     4B2     0.314546     4B1     0.314546
       9A1     0.495762     1A2     0.495762    10A1     0.830890
      11A1     0.912948     5B2     0.976165     5B1     0.976165
      12A1     1.272615     2A2     1.272615    13A1     1.629251
       6B2     1.694364     6B1     1.694364     7B1     2.236082
       7B2     2.236082    14A1     2.477522    15A1     2.838798
       8B2     3.261253     8B1     3.261253    16A1     3.415770
      17A1     3.513242     3A2     3.513242     9B2     3.550368
       9B1     3.550368    10B1     3.847245    10B2     3.847245
       4A2     3.933756    18A1     3.933756    19A1     4.274000
      11B2     4.597322    11B1     4.597322    12B2     4.803147
      12B1     4.803147    20A1     5.649249    21A1     5.653196
       5A2     5.653198    13B2     6.208656    13B1     6.208656
      22A1     6.220700     6A2     6.220700    23A1     6.635411
      24A1     7.602561    14B2     8.150668    14B1     8.150668
      25A1     9.844357    26A1    24.310235

    Final Occupation by Irrep:
             A1    A2    B1    B2
    DOCC [     5,    0,    1,    1 ]
    SOCC [     0,    0,    0,    0 ]
    NA   [     5,    0,    1,    1 ]
    NB   [     5,    0,    1,    1 ]

  @DF-UKS Final Energy:  -129.01075320079792

   => Energetics <=

    Nuclear Repulsion Energy =             38.4711761397605443
    One-Electron Energy =                -243.8074801806297103
    Two-Electron Energy =                  88.9220923233011007
    DFT Exchange-Correlation Energy =     -12.5965414832298848
    Empirical Dispersion Energy =           0.0000000000000000
    VV10 Nonlocal Energy =                  0.0000000000000000
    Total Energy =                       -129.0107532007979216

  UHF NO Occupations:
  HONO-2 :    3 A1 2.0000000
  HONO-1 :    4 A1 2.0000000
  HONO-0 :    5 A1 2.0000000
  LUNO+0 :    6 A1 0.0000000
  LUNO+1 :    7 A1 0.0000000
  LUNO+2 :    8 A1 0.0000000
  LUNO+3 :    9 A1 0.0000000

Computation Completed

Properties will be evaluated at   0.000000,   0.000000,   0.000000 [a0]

Properties computed using the B3LYP density matrix

 Multipole Moments:

 ------------------------------------------------------------------------------------
     Multipole            Electronic (a.u.)      Nuclear  (a.u.)        Total (a.u.)
 ------------------------------------------------------------------------------------

 L = 1.  Multiply by 2.5417464519 to convert [e a0] to [Debye]
 Dipole X            :          0.0000000            0.0000000            0.0000000
 Dipole Y            :          0.0000000            0.0000000            0.0000000
 Dipole Z            :         -0.0776953           -0.0029207           -0.0806160
 Magnitude           :                                                    0.0806160

 L = 2.  Multiply by 1.3450342976 to convert [e a0^2] to [Debye ang]
 Quadrupole XX       :         -5.1928024            0.0000000           -5.1928024
 Quadrupole XY       :          0.0000000            0.0000000            0.0000000
 Quadrupole XZ       :          0.0000000            0.0000000            0.0000000
 Quadrupole YY       :         -5.1928024            0.0000000           -5.1928024
 Quadrupole YZ       :          0.0000000            0.0000000            0.0000000
 Quadrupole ZZ       :        -13.5953085            7.9104634           -5.6848451
 Traceless XX        :          2.8008354           -2.6368211            0.1640142
 Traceless YY        :          2.8008354           -2.6368211            0.1640142
 Traceless ZZ        :         -5.6016707            5.2736423           -0.3280285

 ------------------------------------------------------------------------------------
  ==> Computing MBIS Charges <==

  Electron Count from Grid (Expected Number): 14.00000 (14.00000)
  Difference:  0.00000

  MBIS Charges: (a.u.)
   Center  Symbol  Z      Pop.       Charge
      1       O    8    7.505097    0.494903
      2       N    7    6.494904    0.505096

  MBIS Dipoles: [e a0]
   Center  Symbol  Z        X           Y           Z
      1       O    8   -0.000000    0.000000   -0.011484
      2       N    7    0.000000   -0.000000   -0.124877

  MBIS Quadrupoles: [e a0^2]
   Center  Symbol  Z      XX        XY        XZ        YY        YZ        ZZ
      1       O    8   -2.5299   -0.0000   -0.0000   -2.5299    0.0000   -2.8639
      2       N    7   -2.6629   -0.0000   -0.0000   -2.6629    0.0000   -3.1754

  MBIS Octupoles: [e a0^3]
   Center  Symbol  Z      XXX       XXY       XXZ       XYY       XYZ       XZZ       YYY       YYZ       YZZ       ZZZ
      1       O    8    0.0000   -0.0000    0.0294   -0.0000   -0.0000    0.0000   -0.0000    0.0294   -0.0000    0.1229
      2       N    7    0.0000   -0.0000   -0.1430    0.0000   -0.0000   -0.0000   -0.0000   -0.1430   -0.0000   -0.4363

  MBIS Radial Moments:
   Center  Symbol  Z      [a0^2]      [a0^3]      [a0^4]
      1       O    8    7.923830   12.711023   24.474318
      2       N    7    8.501152   15.519649   33.942447

  MBIS Valence Widths: [a0]
   Center  Symbol  Z     Width
      1       O    8    0.334782
      2       N    7    0.381522

*** tstop() called on Mac.lan at Sun Aug 10 18:41:26 2025
Module time:
	user time   =      16.21 seconds =       0.27 minutes
	system time =       3.10 seconds =       0.05 minutes
	total time  =          2 seconds =       0.03 minutes
Total time:
	user time   =      86.96 seconds =       1.45 minutes
	system time =       8.53 seconds =       0.14 minutes
	total time  =         11 seconds =       0.18 minutes

    Psi4 stopped on: Sunday, 10 August 2025 06:41PM
    Psi4 wall time for execution: 0:00:10.65

*** Psi4 exiting successfully. Buy a developer a beer!
