                               Psi4 1.9.1 release

  ==> Input File <==

--------------------------------------------------------------------------
molecule {
1 1
C           0.000000           0.000000           0.000000
H           0.000000           0.000000           1.287504
}

set {
basis              cc-pvtz
reference          uks
maxiter            500
DAMPING_PERCENTAGE 1
E_CONVERGENCE      1.0E-8
D_CONVERGENCE      1.0E-8
DIIS_MAX_VECS      400
MBIS_MAXITER       8000
guess              read
}

E, wfn = energy('b3lyp', restart_file='last_wfn', return_wfn=True)
properties('b3lyp','MBIS_CHARGES', wfn=wfn)
wfn.to_file('last_wfn')
--------------------------------------------------------------------------

    Molecular point group: c2v
  Charge       = 1
  Multiplicity = 1
  Basis Set: CC-PVTZ
    Blend: CC-PVTZ
  Basis Set: (CC-PVTZ AUX)
    Blend: CC-PVTZ-JKFIT
  @DF-UKS Final Energy:   -38.08373340584291
    Total Energy =                        -38.0837334058429136
 Dipole X            :          0.0000000            0.0000000            0.0000000
 Dipole Y            :          0.0000000            0.0000000            0.0000000
 Dipole Z            :         -0.3838044            1.1134796            0.7296753
 Magnitude           :                                                    0.7296753
    Molecular point group: c2v

    Geometry (in Angstrom), charge = 1, multiplicity = 1:

       Center              X                  Y                   Z               Mass
    ------------   -----------------  -----------------  -----------------  -----------------
         C            0.000000000000     0.000000000000    -0.099753706487    12.000000000000
         H            0.000000000000     0.000000000000     1.187750293513     1.007825032230

  Charge       = 1
  Multiplicity = 1
  Basis Set: CC-PVTZ
    Blend: CC-PVTZ
  Basis Set: (CC-PVTZ AUX)
    Blend: CC-PVTZ-JKFIT

    Orbital Energies [Eh]
    ---------------------

    Alpha Occupied:

       1A1   -10.805210     2A1    -1.013717     3A1    -0.709186

    Alpha Virtual:

       1B2    -0.539781     1B1    -0.539781     4A1    -0.269824
       5A1    -0.014765     2B2     0.008978     2B1     0.008978
       6A1     0.032636     7A1     0.162207     3B1     0.219051
       3B2     0.219051     8A1     0.323200     1A2     0.323200
       9A1     0.594083     4B1     0.668151     4B2     0.668151
      10A1     0.921692     5B1     1.527468     5B2     1.527468
      11A1     1.730563    12A1     1.967859     2A2     2.156314
      13A1     2.156314     6B2     2.179195     6B1     2.179195
       7B1     2.253682     7B2     2.253682    14A1     2.375976
      15A1     2.493464     3A2     2.493464     8B2     2.627786
       8B1     2.627786    16A1     2.710609     4A2     3.055647
      17A1     3.055651     9B1     3.368734     9B2     3.368734
      18A1     3.550101    10B1     3.944115    10B2     3.944115
      19A1     4.063805    20A1     6.303814

    Beta Occupied:

       1A1   -10.805210     2A1    -1.013717     3A1    -0.709186

    Beta Virtual:

       1B2    -0.539781     1B1    -0.539781     4A1    -0.269824
       5A1    -0.014765     2B2     0.008978     2B1     0.008978
       6A1     0.032636     7A1     0.162207     3B1     0.219051
       3B2     0.219051     8A1     0.323200     1A2     0.323200
       9A1     0.594083     4B1     0.668151     4B2     0.668151
      10A1     0.921692     5B1     1.527468     5B2     1.527468
      11A1     1.730563    12A1     1.967859     2A2     2.156314
      13A1     2.156314     6B2     2.179195     6B1     2.179195
       7B1     2.253682     7B2     2.253682    14A1     2.375976
      15A1     2.493464     3A2     2.493464     8B2     2.627786
       8B1     2.627786    16A1     2.710609     4A2     3.055647
      17A1     3.055651     9B1     3.368734     9B2     3.368734
      18A1     3.550101    10B1     3.944115    10B2     3.944115
      19A1     4.063805    20A1     6.303814

    Final Occupation by Irrep:
             A1    A2    B1    B2
    DOCC [     3,    0,    0,    0 ]
    SOCC [     0,    0,    0,    0 ]
    NA   [     3,    0,    0,    0 ]
    NB   [     3,    0,    0,    0 ]

  @DF-UKS Final Energy:   -38.08373340585816

   => Energetics <=

    Nuclear Repulsion Energy =              2.4660608930302352
    One-Electron Energy =                 -52.9845200960195797
    Two-Electron Energy =                  16.6650816831867701
    DFT Exchange-Correlation Energy =      -4.2303558860555848
    Empirical Dispersion Energy =           0.0000000000000000
    VV10 Nonlocal Energy =                  0.0000000000000000
    Total Energy =                        -38.0837334058581618

  UHF NO Occupations:
  HONO-2 :    1 A1 2.0000000
  HONO-1 :    2 A1 2.0000000
  HONO-0 :    3 A1 2.0000000
  LUNO+0 :    4 A1 0.0000000
  LUNO+1 :    5 A1 0.0000000
  LUNO+2 :    6 A1 0.0000000
  LUNO+3 :    7 A1 0.0000000

Computation Completed

Properties will be evaluated at   0.000000,   0.000000,   0.000000 [a0]

Properties computed using the B3LYP density matrix

 Multipole Moments:

 ------------------------------------------------------------------------------------
     Multipole            Electronic (a.u.)      Nuclear  (a.u.)        Total (a.u.)
 ------------------------------------------------------------------------------------

 L = 1.  Multiply by 2.5417464519 to convert [e a0] to [Debye]
 Dipole X            :          0.0000000            0.0000000            0.0000000
 Dipole Y            :          0.0000000            0.0000000            0.0000000
 Dipole Z            :         -0.3838044            1.1134796            0.7296753
 Magnitude           :                                                    0.7296753

 L = 2.  Multiply by 1.3450342976 to convert [e a0^2] to [Debye ang]
 Quadrupole XX       :         -3.0066280            0.0000000           -3.0066280
 Quadrupole XY       :          0.0000000            0.0000000            0.0000000
 Quadrupole XZ       :          0.0000000            0.0000000            0.0000000
 Quadrupole YY       :         -3.0066280            0.0000000           -3.0066280
 Quadrupole YZ       :          0.0000000            0.0000000            0.0000000
 Quadrupole ZZ       :         -8.0262943            5.2510922           -2.7752021
 Traceless XX        :          1.6732221           -1.7503641           -0.0771420
 Traceless YY        :          1.6732221           -1.7503641           -0.0771420
 Traceless ZZ        :         -3.3464442            3.5007281            0.1542839

 ------------------------------------------------------------------------------------
  ==> Computing MBIS Charges <==

  Electron Count from Grid (Expected Number):  6.00000 ( 6.00000)
  Difference:  0.00000

  MBIS Charges: (a.u.)
   Center  Symbol  Z      Pop.       Charge
      1       C    6    5.214577    0.785423
      2       H    1    0.785423    0.214577

  MBIS Dipoles: [e a0]
   Center  Symbol  Z        X           Y           Z
      1       C    6   -0.000000    0.000000    0.270074
      2       H    1   -0.000000    0.000000    0.126036

  MBIS Quadrupoles: [e a0^2]
   Center  Symbol  Z      XX        XY        XZ        YY        YZ        ZZ
      1       C    6   -2.5661    0.0000    0.0000   -2.5661    0.0000   -3.8966
      2       H    1   -0.4405    0.0000   -0.0000   -0.4405   -0.0000   -0.4515

  MBIS Octupoles: [e a0^3]
   Center  Symbol  Z      XXX       XXY       XXZ       XYY       XYZ       XZZ       YYY       YYZ       YZZ       ZZZ
      1       C    6    0.0000   -0.0000    0.3069   -0.0000   -0.0000   -0.0000    0.0000    0.3069   -0.0000    0.8117
      2       H    1   -0.0000    0.0000    0.0269   -0.0000   -0.0000   -0.0000    0.0000    0.0269    0.0000    0.1163

  MBIS Radial Moments:
   Center  Symbol  Z      [a0^2]      [a0^3]      [a0^4]
      1       C    6    9.028867   19.344013   49.385010
      2       H    1    1.332474    2.400287    5.169174

  MBIS Valence Widths: [a0]
   Center  Symbol  Z     Width
      1       C    6    0.465418
      2       H    1    0.384236

*** tstop() called on Mac.lan at Sun Aug 10 18:27:20 2025
Module time:
	user time   =       3.59 seconds =       0.06 minutes
	system time =       1.32 seconds =       0.02 minutes
	total time  =          0 seconds =       0.00 minutes
Total time:
	user time   =      12.76 seconds =       0.21 minutes
	system time =       3.00 seconds =       0.05 minutes
	total time  =          1 seconds =       0.02 minutes

    Psi4 stopped on: Sunday, 10 August 2025 06:27PM
    Psi4 wall time for execution: 0:00:01.54

*** Psi4 exiting successfully. Buy a developer a beer!
