                               Psi4 1.9.1 release

  ==> Input File <==

--------------------------------------------------------------------------
molecule {
1 3
O           0.000000           0.000000           0.000000
H           0.000000           0.000000           1.404918
}

set {
basis              cc-pvtz
reference          uks
maxiter            500
DAMPING_PERCENTAGE 1
E_CONVERGENCE      1.0E-8
D_CONVERGENCE      1.0E-8
DIIS_MAX_VECS      400
MBIS_MAXITER       8000
guess              read
}

E, wfn = energy('b3lyp', restart_file='last_wfn', return_wfn=True)
properties('b3lyp','MBIS_CHARGES', wfn=wfn)
wfn.to_file('last_wfn')
--------------------------------------------------------------------------

    Molecular point group: c2v
  Charge       = 1
  Multiplicity = 3
  Basis Set: CC-PVTZ
    Blend: CC-PVTZ
  Basis Set: (CC-PVTZ AUX)
    Blend: CC-PVTZ-JKFIT
  @DF-UKS Final Energy:   -75.24331206525952
    Total Energy =                        -75.2433120652595164
 Dipole X            :          0.0000000            0.0000000            0.0000000
 Dipole Y            :          0.0000000            0.0000000            0.0000000
 Dipole Z            :          0.0743527            1.2385994            1.3129521
 Magnitude           :                                                    1.3129521
    Molecular point group: c2v

    Geometry (in Angstrom), charge = 1, multiplicity = 3:

       Center              X                  Y                   Z               Mass
    ------------   -----------------  -----------------  -----------------  -----------------
         O            0.000000000000     0.000000000000    -0.083275493104    15.994914619570
         H            0.000000000000     0.000000000000     1.321642506896     1.007825032230

  Charge       = 1
  Multiplicity = 3
  Basis Set: CC-PVTZ
    Blend: CC-PVTZ
  Basis Set: (CC-PVTZ AUX)
    Blend: CC-PVTZ-JKFIT

    Orbital Energies [Eh]
    ---------------------

    Alpha Occupied:

       1A1   -19.774435     2A1    -1.478603     1B2    -0.897115
       1B1    -0.897115     3A1    -0.883898

    Alpha Virtual:

       4A1    -0.444365     5A1    -0.030168     2B2     0.133456
       2B1     0.133456     6A1     0.228261     3B2     0.335123
       3B1     0.335123     7A1     0.418821     8A1     0.679226
       9A1     0.971072     1A2     0.971072     4B2     1.113595
       4B1     1.113595    10A1     1.552830    11A1     1.982337
      12A1     2.687406     2A2     2.782040    13A1     2.782043
       5B1     2.799249     5B2     2.799249     6B1     3.123325
       6B2     3.123325     7B2     3.258768     7B1     3.258768
      14A1     3.381034    15A1     4.150871     8B2     4.550708
       8B1     4.550708     3A2     4.592813    16A1     4.592813
       9B1     4.858246     9B2     4.858246    17A1     5.264735
       4A2     5.557366    18A1     5.557367    10B2     5.800490
      10B1     5.800490    19A1     6.445047    20A1     7.013570

    Beta Occupied:

       1A1   -19.716268     2A1    -1.310612     3A1    -0.832112

    Beta Virtual:

       1B2    -0.594887     1B1    -0.594887     4A1    -0.443754
       5A1    -0.037395     2B2     0.179832     2B1     0.179832
       6A1     0.251220     3B2     0.354731     3B1     0.354731
       7A1     0.453765     8A1     0.707528     1A2     1.084304
       9A1     1.084304     4B2     1.169680     4B1     1.169680
      10A1     1.583044    11A1     1.954775    12A1     2.702339
       2A2     2.758416    13A1     2.758420     5B1     2.820165
       5B2     2.820165     6B1     3.213108     6B2     3.213108
       7B1     3.252884     7B2     3.252884    14A1     3.376804
      15A1     4.180445    16A1     4.694751     3A2     4.694751
       8B1     4.702059     8B2     4.702059     9B1     4.934985
       9B2     4.934985    17A1     5.322534    18A1     5.772228
       4A2     5.772228    10B2     5.915949    10B1     5.915949
      19A1     6.517769    20A1     7.118995

    Final Occupation by Irrep:
             A1    A2    B1    B2
    DOCC [     3,    0,    0,    0 ]
    SOCC [     0,    0,    1,    1 ]
    NA   [     3,    0,    1,    1 ]
    NB   [     3,    0,    0,    0 ]

  @DF-UKS Final Energy:   -75.24331206519773

   => Energetics <=

    Nuclear Repulsion Energy =              3.0132845371473640
    One-Electron Energy =                -105.8315719382270430
    Two-Electron Energy =                  34.3780420216770395
    DFT Exchange-Correlation Energy =      -6.8030666857950939
    Empirical Dispersion Energy =           0.0000000000000000
    VV10 Nonlocal Energy =                  0.0000000000000000
    Total Energy =                        -75.2433120651977134

  UHF NO Occupations:
  HONO-2 :    3 A1 1.9908560
  HONO-1 :    1 B1 1.0000000
  HONO-0 :    1 B2 1.0000000
  LUNO+0 :    4 A1 0.0091440
  LUNO+1 :    5 A1 0.0008946
  LUNO+2 :    6 A1 0.0000014
  LUNO+3 :    7 A1 0.0000000

Computation Completed

Properties will be evaluated at   0.000000,   0.000000,   0.000000 [a0]

Properties computed using the B3LYP density matrix

 Multipole Moments:

 ------------------------------------------------------------------------------------
     Multipole            Electronic (a.u.)      Nuclear  (a.u.)        Total (a.u.)
 ------------------------------------------------------------------------------------

 L = 1.  Multiply by 2.5417464519 to convert [e a0] to [Debye]
 Dipole X            :          0.0000000            0.0000000            0.0000000
 Dipole Y            :          0.0000000            0.0000000            0.0000000
 Dipole Z            :          0.0743527            1.2385994            1.3129521
 Magnitude           :                                                    1.3129521

 L = 2.  Multiply by 1.3450342976 to convert [e a0^2] to [Debye ang]
 Quadrupole XX       :         -3.2144040            0.0000000           -3.2144040
 Quadrupole XY       :          0.0000000            0.0000000            0.0000000
 Quadrupole XZ       :          0.0000000            0.0000000            0.0000000
 Quadrupole YY       :         -3.2144040            0.0000000           -3.2144040
 Quadrupole YZ       :          0.0000000            0.0000000            0.0000000
 Quadrupole ZZ       :         -6.1454848            6.4358351            0.2903503
 Traceless XX        :          0.9770269           -2.1452784           -1.1682514
 Traceless YY        :          0.9770269           -2.1452784           -1.1682514
 Traceless ZZ        :         -1.9540539            4.2905567            2.3365029

 ------------------------------------------------------------------------------------
  ==> Computing MBIS Charges <==

  Electron Count from Grid (Expected Number):  8.00000 ( 8.00000)
  Difference: -0.00000

  MBIS Charges: (a.u.)
   Center  Symbol  Z      Pop.       Charge
      1       O    8    7.581594    0.418406
      2       H    1    0.418406    0.581594

  MBIS Dipoles: [e a0]
   Center  Symbol  Z        X           Y           Z
      1       O    8   -0.000000   -0.000000   -0.151389
      2       H    1    0.000000   -0.000000    0.077628

  MBIS Quadrupoles: [e a0^2]
   Center  Symbol  Z      XX        XY        XZ        YY        YZ        ZZ
      1       O    8   -2.9583    0.0000   -0.0000   -2.9583    0.0000   -3.5490
      2       H    1   -0.2561    0.0000    0.0000   -0.2561   -0.0000   -0.2342

  MBIS Octupoles: [e a0^3]
   Center  Symbol  Z      XXX       XXY       XXZ       XYY       XYZ       XZZ       YYY       YYZ       YZZ       ZZZ
      1       O    8   -0.0000   -0.0000   -0.1269    0.0000   -0.0000   -0.0000    0.0000   -0.1269   -0.0000   -0.5009
      2       H    1    0.0000    0.0000    0.0376    0.0000    0.0000    0.0000   -0.0000    0.0376   -0.0000    0.1078

  MBIS Radial Moments:
   Center  Symbol  Z      [a0^2]      [a0^3]      [a0^4]
      1       O    8    9.465655   16.587656   34.751479
      2       H    1    0.746394    1.385361    3.055395

  MBIS Valence Widths: [a0]
   Center  Symbol  Z     Width
      1       O    8    0.366163
      2       H    1    0.392423

*** tstop() called on Mac.lan at Sun Aug 10 18:30:28 2025
Module time:
	user time   =       2.48 seconds =       0.04 minutes
	system time =       2.10 seconds =       0.04 minutes
	total time  =          0 seconds =       0.00 minutes
Total time:
	user time   =      14.11 seconds =       0.24 minutes
	system time =       4.47 seconds =       0.07 minutes
	total time  =          2 seconds =       0.03 minutes

    Psi4 stopped on: Sunday, 10 August 2025 06:30PM
    Psi4 wall time for execution: 0:00:01.82

*** Psi4 exiting successfully. Buy a developer a beer!
