                               Psi4 1.9.1 release

  ==> Input File <==

--------------------------------------------------------------------------
molecule {
1 3
N           0.000000           0.000000           0.000000
C           0.000000           0.000000           0.761559
}

set {
basis              cc-pvtz
reference          uks
maxiter            500
DAMPING_PERCENTAGE 1
E_CONVERGENCE      1.0E-8
D_CONVERGENCE      1.0E-8
DIIS_MAX_VECS      400
MBIS_MAXITER       8000
guess              read
}

E, wfn = energy('b3lyp', restart_file='last_wfn', return_wfn=True)
properties('b3lyp','MBIS_CHARGES', wfn=wfn)
wfn.to_file('last_wfn')
--------------------------------------------------------------------------

    Molecular point group: c2v
  Charge       = 1
  Multiplicity = 3
  Basis Set: CC-PVTZ
    Blend: CC-PVTZ
  Basis Set: (CC-PVTZ AUX)
    Blend: CC-PVTZ-JKFIT
  @DF-UKS Final Energy:   -91.36254860397452
    Total Energy =                        -91.3625486039745027
 Dipole X            :          0.0000000            0.0000000            0.0000000
 Dipole Y            :          0.0000000            0.0000000            0.0000000
 Dipole Z            :          0.0343097            0.0010208            0.0353305
 Magnitude           :                                                    0.0353305
    Molecular point group: c2v

    Geometry (in Angstrom), charge = 1, multiplicity = 3:

       Center              X                  Y                   Z               Mass
    ------------   -----------------  -----------------  -----------------  -----------------
         N            0.000000000000     0.000000000000    -0.351447217296    14.003074004430
         C            0.000000000000     0.000000000000     0.410111782704    12.000000000000

  Charge       = 1
  Multiplicity = 3
  Basis Set: CC-PVTZ
    Blend: CC-PVTZ
  Basis Set: (CC-PVTZ AUX)
    Blend: CC-PVTZ-JKFIT

    Orbital Energies [Eh]
    ---------------------

    Alpha Occupied:

       1A1   -14.820905     2A1   -10.675626     3A1    -1.473530
       1B2    -0.976615     1B1    -0.976615     4A1    -0.931913
       5A1    -0.793196

    Alpha Virtual:

       2B2    -0.200574     2B1    -0.200574     6A1    -0.095381
       3B2    -0.026159     3B1    -0.026159     7A1    -0.001936
       8A1     0.124742     4B1     0.243491     4B2     0.243491
       1A2     0.286369     9A1     0.286369    10A1     0.535495
       5B2     0.660265     5B1     0.660265    11A1     0.712182
      12A1     0.901623     2A2     0.901623     6B2     1.130196
       6B1     1.130196    13A1     1.158380     7B2     1.535134
       7B1     1.535134    14A1     1.881161    15A1     2.090984
       8B1     2.233584     8B2     2.233584     3A2     2.414636
      16A1     2.414636     9B2     2.523094     9B1     2.523094
      17A1     2.560815    18A1     2.629398     4A2     2.629398
      10B2     2.960435    10B1     2.960435    19A1     3.064817
      11B2     3.376111    11B1     3.376111    12B2     3.721551
      12B1     3.721551    20A1     4.042500     5A2     4.042500
      21A1     4.263633    13B2     4.743575    13B1     4.743575
      22A1     4.983053     6A2     4.983053    23A1     5.268934
      14B2     6.141583    14B1     6.141583    24A1     6.270977
      25A1     7.572359    26A1    18.119545

    Beta Occupied:

       1A1   -14.791502     2A1   -10.646099     3A1    -1.426027
       1B2    -0.943399     1B1    -0.943399

    Beta Virtual:

       4A1    -0.643129     5A1    -0.547265     2B1    -0.147124
       2B2    -0.147124     6A1    -0.068685     3B2    -0.012144
       3B1    -0.012144     7A1     0.036918     8A1     0.170404
       4B1     0.266972     4B2     0.266972     1A2     0.300384
       9A1     0.300384    10A1     0.587753     5B2     0.706420
       5B1     0.706420    11A1     0.782623     2A2     0.924137
      12A1     0.924138     6B2     1.163727     6B1     1.163727
      13A1     1.247041     7B2     1.577839     7B1     1.577839
      14A1     1.942370    15A1     2.229594     8B1     2.255768
       8B2     2.255768     3A2     2.443950    16A1     2.443951
       9B2     2.631224     9B1     2.631224    17A1     2.647088
       4A2     2.695315    18A1     2.695319    10B2     2.990779
      10B1     2.990779    19A1     3.177350    11B2     3.459715
      11B1     3.459715    12B2     3.745969    12B1     3.745969
       5A2     4.104275    20A1     4.104278    21A1     4.396578
      13B2     4.844602    13B1     4.844602     6A2     5.022047
      22A1     5.022051    23A1     5.368820    14B2     6.216157
      14B1     6.216157    24A1     6.364201    25A1     7.624213
      26A1    18.172567

    Final Occupation by Irrep:
             A1    A2    B1    B2
    DOCC [     3,    0,    1,    1 ]
    SOCC [     2,    0,    0,    0 ]
    NA   [     5,    0,    1,    1 ]
    NB   [     3,    0,    1,    1 ]

  @DF-UKS Final Energy:   -91.36254860559579

   => Energetics <=

    Nuclear Repulsion Energy =             29.1841378647485001
    One-Electron Energy =                -174.4428014967407421
    Two-Electron Energy =                  63.9852512279528796
    DFT Exchange-Correlation Energy =     -10.0891362015564248
    Empirical Dispersion Energy =           0.0000000000000000
    VV10 Nonlocal Energy =                  0.0000000000000000
    Total Energy =                        -91.3625486055957907

  UHF NO Occupations:
  HONO-2 :    1 B1 1.9997331
  HONO-1 :    4 A1 1.0000000
  HONO-0 :    5 A1 1.0000000
  LUNO+0 :    2 B1 0.0002669
  LUNO+1 :    2 B2 0.0002669
  LUNO+2 :    6 A1 0.0002318
  LUNO+3 :    7 A1 0.0000010

Computation Completed

Properties will be evaluated at   0.000000,   0.000000,   0.000000 [a0]

Properties computed using the B3LYP density matrix

 Multipole Moments:

 ------------------------------------------------------------------------------------
     Multipole            Electronic (a.u.)      Nuclear  (a.u.)        Total (a.u.)
 ------------------------------------------------------------------------------------

 L = 1.  Multiply by 2.5417464519 to convert [e a0] to [Debye]
 Dipole X            :          0.0000000            0.0000000            0.0000000
 Dipole Y            :          0.0000000            0.0000000            0.0000000
 Dipole Z            :          0.0343097            0.0010208            0.0353305
 Magnitude           :                                                    0.0353305

 L = 2.  Multiply by 1.3450342976 to convert [e a0^2] to [Debye ang]
 Quadrupole XX       :         -5.3450582            0.0000000           -5.3450582
 Quadrupole XY       :          0.0000000            0.0000000            0.0000000
 Quadrupole XZ       :          0.0000000            0.0000000            0.0000000
 Quadrupole YY       :         -5.3450582            0.0000000           -5.3450582
 Quadrupole YZ       :          0.0000000            0.0000000            0.0000000
 Quadrupole ZZ       :        -10.7860009            6.6913044           -4.0946965
 Traceless XX        :          1.8136476           -2.2304348           -0.4167872
 Traceless YY        :          1.8136476           -2.2304348           -0.4167872
 Traceless ZZ        :         -3.6272951            4.4608696            0.8335745

 ------------------------------------------------------------------------------------
  ==> Computing MBIS Charges <==

  Electron Count from Grid (Expected Number): 12.00000 (12.00000)
  Difference: -0.00000

  MBIS Charges: (a.u.)
   Center  Symbol  Z      Pop.       Charge
      1       N    7    6.626010    0.373990
      2       C    6    5.373990    0.626010

  MBIS Dipoles: [e a0]
   Center  Symbol  Z        X           Y           Z
      1       N    7   -0.000000    0.000000   -0.399007
      2       C    6    0.000000    0.000000    0.197562

  MBIS Quadrupoles: [e a0^2]
   Center  Symbol  Z      XX        XY        XZ        YY        YZ        ZZ
      1       N    7   -2.7943    0.0000   -0.0000   -2.7943    0.0000   -2.7402
      2       C    6   -2.5508    0.0000    0.0000   -2.5508    0.0000   -2.7317

  MBIS Octupoles: [e a0^3]
   Center  Symbol  Z      XXX       XXY       XXZ       XYY       XYZ       XZZ       YYY       YYZ       YZZ       ZZZ
      1       N    7   -0.0000   -0.0000   -0.2068   -0.0000    0.0000   -0.0000   -0.0000   -0.2068    0.0000   -0.3019
      2       C    6   -0.0000   -0.0000    0.0848   -0.0000    0.0000    0.0000    0.0000    0.0848    0.0000   -0.2227

  MBIS Radial Moments:
   Center  Symbol  Z      [a0^2]      [a0^3]      [a0^4]
      1       N    7    8.328728   14.717999   31.154307
      2       C    6    7.833254   15.505818   36.835356

  MBIS Valence Widths: [a0]
   Center  Symbol  Z     Width
      1       N    7    0.372430
      2       C    6    0.416806

*** tstop() called on Mac.lan at Sun Aug 10 18:33:32 2025
Module time:
	user time   =       3.89 seconds =       0.06 minutes
	system time =       3.10 seconds =       0.05 minutes
	total time  =          0 seconds =       0.00 minutes
Total time:
	user time   =      17.89 seconds =       0.30 minutes
	system time =       5.50 seconds =       0.09 minutes
	total time  =          2 seconds =       0.03 minutes

    Psi4 stopped on: Sunday, 10 August 2025 06:33PM
    Psi4 wall time for execution: 0:00:02.32

*** Psi4 exiting successfully. Buy a developer a beer!
