                               Psi4 1.9.1 release

  ==> Input File <==

--------------------------------------------------------------------------
molecule {
1 3
N           0.000000           0.000000           0.000000
C           0.000000           0.000000           1.146108
}

set {
basis              cc-pvtz
reference          uks
maxiter            500
DAMPING_PERCENTAGE 1
E_CONVERGENCE      1.0E-8
D_CONVERGENCE      1.0E-8
DIIS_MAX_VECS      400
MBIS_MAXITER       8000
guess              read
}

E, wfn = energy('b3lyp', restart_file='last_wfn', return_wfn=True)
properties('b3lyp','MBIS_CHARGES', wfn=wfn)
wfn.to_file('last_wfn')
--------------------------------------------------------------------------

    Molecular point group: c2v
  Charge       = 1
  Multiplicity = 3
  Basis Set: CC-PVTZ
    Blend: CC-PVTZ
  Basis Set: (CC-PVTZ AUX)
    Blend: CC-PVTZ-JKFIT
  @DF-UKS Final Energy:   -92.21780578903386
    Total Energy =                        -92.2178057890338607
 Dipole X            :          0.0000000            0.0000000            0.0000000
 Dipole Y            :          0.0000000            0.0000000            0.0000000
 Dipole Z            :          0.7702119            0.0015362            0.7717482
 Magnitude           :                                                    0.7717482
    Molecular point group: c2v

    Geometry (in Angstrom), charge = 1, multiplicity = 3:

       Center              X                  Y                   Z               Mass
    ------------   -----------------  -----------------  -----------------  -----------------
         N            0.000000000000     0.000000000000    -0.528910389505    14.003074004430
         C            0.000000000000     0.000000000000     0.617197610495    12.000000000000

  Charge       = 1
  Multiplicity = 3
  Basis Set: CC-PVTZ
    Blend: CC-PVTZ
  Basis Set: (CC-PVTZ AUX)
    Blend: CC-PVTZ-JKFIT

    Orbital Energies [Eh]
    ---------------------

    Alpha Occupied:

       1A1   -14.836521     2A1   -10.755355     3A1    -1.432498
       4A1    -0.892277     1B1    -0.851487     1B2    -0.807095
       5A1    -0.800638

    Alpha Virtual:

       2B1    -0.422310     2B2    -0.388762     6A1    -0.100646
       3B1    -0.015295     7A1    -0.005636     3B2    -0.004665
       8A1     0.148559     4B1     0.205301     4B2     0.222429
       9A1     0.232398     1A2     0.258933    10A1     0.259708
       5B1     0.465903     5B2     0.488266    11A1     0.565702
       2A2     0.793736    12A1     0.794503    13A1     0.927530
       6B1     1.157179     6B2     1.179814    14A1     1.402391
       7B1     1.544502     7B2     1.567479    15A1     1.812689
       8B1     2.207569     8B2     2.207747    16A1     2.292615
       3A2     2.294675    17A1     2.345359     9B1     2.360420
       9B2     2.389517    10B1     2.488980    18A1     2.496392
       4A2     2.496510    10B2     2.522833    19A1     2.702874
      11B1     2.997612    11B2     3.026393    12B1     3.504308
      12B2     3.504461    20A1     3.527697    21A1     3.964670
       5A2     3.964841     6A2     4.142276    22A1     4.142750
      13B1     4.379538    13B2     4.415336    23A1     4.566815
      24A1     4.952001    14B1     5.142334    14B2     5.175890
      25A1     5.621338    26A1    12.422976

    Beta Occupied:

       1A1   -14.820888     2A1   -10.728569     3A1    -1.364666
       4A1    -0.804678     1B2    -0.783922

    Beta Virtual:

       1B1    -0.666194     5A1    -0.610163     2B2    -0.350723
       2B1    -0.317668     6A1    -0.082643     3B2     0.004089
       3B1     0.011122     7A1     0.034569     8A1     0.162651
       4B2     0.226393     4B1     0.235526     1A2     0.293212
       9A1     0.295969    10A1     0.300294     5B2     0.523631
       5B1     0.528907    11A1     0.587035     2A2     0.823783
      12A1     0.826530    13A1     0.981816     6B2     1.196544
       6B1     1.201005    14A1     1.440100     7B2     1.589988
       7B1     1.599202    15A1     1.876823     8B2     2.257475
       8B1     2.258935     3A2     2.339574    16A1     2.342853
      17A1     2.400660     9B2     2.434665     9B1     2.452286
      10B2     2.568175     4A2     2.577509    18A1     2.583638
      10B1     2.583825    19A1     2.804240    11B2     3.070370
      11B1     3.079881    12B2     3.544045    12B1     3.545348
      20A1     3.581375     5A2     4.015655    21A1     4.022643
       6A2     4.181078    22A1     4.184555    13B2     4.434883
      13B1     4.447030    23A1     4.614942    24A1     4.988289
      14B2     5.204298    14B1     5.214450    25A1     5.656084
      26A1    12.461585

    Final Occupation by Irrep:
             A1    A2    B1    B2
    DOCC [     4,    0,    0,    1 ]
    SOCC [     1,    0,    1,    0 ]
    NA   [     5,    0,    1,    1 ]
    NB   [     4,    0,    0,    1 ]

  @DF-UKS Final Energy:   -92.21780578736488

   => Energetics <=

    Nuclear Repulsion Energy =             19.3921016589536066
    One-Electron Energy =                -157.4368163957674085
    Two-Electron Energy =                  55.4117404601026280
    DFT Exchange-Correlation Energy =      -9.5848315106537090
    Empirical Dispersion Energy =           0.0000000000000000
    VV10 Nonlocal Energy =                  0.0000000000000000
    Total Energy =                        -92.2178057873648811

  UHF NO Occupations:
  HONO-2 :    1 B2 1.9983984
  HONO-1 :    5 A1 1.0000000
  HONO-0 :    1 B1 1.0000000
  LUNO+0 :    2 B2 0.0016016
  LUNO+1 :    6 A1 0.0006225
  LUNO+2 :    7 A1 0.0002731
  LUNO+3 :    8 A1 0.0000005

Computation Completed

Properties will be evaluated at   0.000000,   0.000000,   0.000000 [a0]

Properties computed using the B3LYP density matrix

 Multipole Moments:

 ------------------------------------------------------------------------------------
     Multipole            Electronic (a.u.)      Nuclear  (a.u.)        Total (a.u.)
 ------------------------------------------------------------------------------------

 L = 1.  Multiply by 2.5417464519 to convert [e a0] to [Debye]
 Dipole X            :          0.0000000            0.0000000            0.0000000
 Dipole Y            :          0.0000000            0.0000000            0.0000000
 Dipole Z            :          0.7702120            0.0015362            0.7717483
 Magnitude           :                                                    0.7717483

 L = 2.  Multiply by 1.3450342976 to convert [e a0^2] to [Debye ang]
 Quadrupole XX       :         -5.5633138            0.0000000           -5.5633138
 Quadrupole XY       :          0.0000000            0.0000000            0.0000000
 Quadrupole XZ       :          0.0000000            0.0000000            0.0000000
 Quadrupole YY       :         -6.5230116            0.0000000           -6.5230116
 Quadrupole YZ       :          0.0000000            0.0000000            0.0000000
 Quadrupole ZZ       :        -20.0442510           15.1549590           -4.8892920
 Traceless XX        :          5.1468783           -5.0516530            0.0952253
 Traceless YY        :          4.1871806           -5.0516530           -0.8644724
 Traceless ZZ        :         -9.3340589           10.1033060            0.7692471

 ------------------------------------------------------------------------------------
  ==> Computing MBIS Charges <==

  Electron Count from Grid (Expected Number): 12.00000 (12.00000)
  Difference: -0.00000

  MBIS Charges: (a.u.)
   Center  Symbol  Z      Pop.       Charge
      1       N    7    6.816444    0.183556
      2       C    6    5.183556    0.816444

  MBIS Dipoles: [e a0]
   Center  Symbol  Z        X           Y           Z
      1       N    7   -0.000000   -0.000000   -0.124155
      2       C    6   -0.000000    0.000000    0.127120

  MBIS Quadrupoles: [e a0^2]
   Center  Symbol  Z      XX        XY        XZ        YY        YZ        ZZ
      1       N    7   -3.0866   -0.0000   -0.0000   -3.6193    0.0000   -3.7980
      2       C    6   -2.4767    0.0000    0.0000   -2.9037    0.0000   -2.9300

  MBIS Octupoles: [e a0^3]
   Center  Symbol  Z      XXX       XXY       XXZ       XYY       XYZ       XZZ       YYY       YYZ       YZZ       ZZZ
      1       N    7   -0.0000   -0.0000   -0.0614   -0.0000    0.0000   -0.0000   -0.0000   -0.2146    0.0000   -0.2528
      2       C    6   -0.0000   -0.0000    0.0091   -0.0000    0.0000    0.0000    0.0000    0.1452    0.0000    0.1377

  MBIS Radial Moments:
   Center  Symbol  Z      [a0^2]      [a0^3]      [a0^4]
      1       N    7   10.503899   20.509308   47.771340
      2       C    6    8.310440   17.257088   42.792180

  MBIS Valence Widths: [a0]
   Center  Symbol  Z     Width
      1       N    7    0.414385
      2       C    6    0.445468

*** tstop() called on Mac.lan at Sun Aug 10 18:32:41 2025
Module time:
	user time   =       3.90 seconds =       0.07 minutes
	system time =       2.52 seconds =       0.04 minutes
	total time  =          1 seconds =       0.02 minutes
Total time:
	user time   =      21.30 seconds =       0.36 minutes
	system time =       5.19 seconds =       0.09 minutes
	total time  =          3 seconds =       0.05 minutes

    Psi4 stopped on: Sunday, 10 August 2025 06:32PM
    Psi4 wall time for execution: 0:00:02.63

*** Psi4 exiting successfully. Buy a developer a beer!
