                               Psi4 1.9.1 release

  ==> Input File <==

--------------------------------------------------------------------------
molecule {
1 2
N           0.000000           0.000000           0.000000
N           0.000000           0.000000           0.784615
}

set {
basis              cc-pvtz
reference          uks
maxiter            500
DAMPING_PERCENTAGE 1
E_CONVERGENCE      1.0E-8
D_CONVERGENCE      1.0E-8
DIIS_MAX_VECS      400
MBIS_MAXITER       8000
guess              read
}

E, wfn = energy('b3lyp', restart_file='last_wfn', return_wfn=True)
properties('b3lyp','MBIS_CHARGES', wfn=wfn)
wfn.to_file('last_wfn')
--------------------------------------------------------------------------

    Molecular point group: d2h
  Charge       = 1
  Multiplicity = 2
  Basis Set: CC-PVTZ
    Blend: CC-PVTZ
  Basis Set: (CC-PVTZ AUX)
    Blend: CC-PVTZ-JKFIT
  @DF-UKS Final Energy:  -108.36619638415726
    Total Energy =                       -108.3661963841572629
 Dipole X            :          0.0000000            0.0000000            0.0000000
 Dipole Y            :          0.0000000            0.0000000            0.0000000
 Dipole Z            :          0.0000000           -0.0000000           -0.0000000
 Magnitude           :                                                    0.0000000
    Molecular point group: d2h

    Geometry (in Angstrom), charge = 1, multiplicity = 2:

       Center              X                  Y                   Z               Mass
    ------------   -----------------  -----------------  -----------------  -----------------
         N            0.000000000000     0.000000000000    -0.392307500000    14.003074004430
         N            0.000000000000     0.000000000000     0.392307500000    14.003074004430

  Charge       = 1
  Multiplicity = 2
  Basis Set: CC-PVTZ
    Blend: CC-PVTZ
  Basis Set: (CC-PVTZ AUX)
    Blend: CC-PVTZ-JKFIT

    Orbital Energies [Eh]
    ---------------------

    Alpha Occupied:

       1Ag   -14.884386     1B1u  -14.847008     2Ag    -1.760420
       1B3u   -1.072971     1B2u   -1.072971     3Ag    -0.945943
       2B1u   -0.942170

    Alpha Virtual:

       1B2g   -0.260837     1B3g   -0.260837     2B3u    0.018501
       2B2u    0.018501     3B1u    0.019381     4Ag     0.068788
       5Ag     0.143468     2B3g    0.267771     2B2g    0.267771
       6Ag     0.440702     1B1g    0.440702     4B1u    0.504874
       3B3u    0.894415     3B2u    0.894415     5B1u    0.936581
       6B1u    1.002961     1Au     1.002961     7Ag     1.170948
       3B3g    1.330539     3B2g    1.330539     4B3u    2.146344
       4B2u    2.146344     7B1u    2.407624     8Ag     2.763125
       4B3g    2.975226     4B2g    2.975226     5B2u    3.039655
       5B3u    3.039655     8B1u    3.066945     9Ag     3.142441
       2B1g    3.142441     6B3u    3.497822     6B2u    3.497822
      10Ag     3.715745     5B3g    3.896696     5B2g    3.896696
       9B1u    3.928146     2Au     3.928146     6B3g    3.947271
       6B2g    3.947271    11Ag     4.018068     3B1g    4.018068
      12Ag     4.294153    10B1u    4.768668     7B3u    5.115424
       7B2u    5.115424    11B1u    5.409676     3Au     5.409676
      12B1u    6.857788     7B3g    7.273017     7B2g    7.273017
      13Ag     8.368006    13B1u   26.383429

    Beta Occupied:

       1Ag   -14.869175     1B1u  -14.833103     2Ag    -1.726661
       1B3u   -1.057735     1B2u   -1.057735     2B1u   -0.846258

    Beta Virtual:

       3Ag    -0.762918     1B2g   -0.233777     1B3g   -0.233777
       2B3u    0.023493     2B2u    0.023493     3B1u    0.032175
       4Ag     0.086019     5Ag     0.172960     2B3g    0.277063
       2B2g    0.277063     6Ag     0.447700     1B1g    0.447700
       4B1u    0.530158     3B3u    0.926182     3B2u    0.926182
       5B1u    0.964792     6B1u    1.016674     1Au     1.016674
       7Ag     1.208103     3B3g    1.350126     3B2g    1.350126
       4B3u    2.157956     4B2u    2.157956     7B1u    2.472996
       8Ag     2.793352     4B3g    2.988546     4B2g    2.988546
       5B2u    3.046102     5B3u    3.046102     8B1u    3.094014
       9Ag     3.148557     2B1g    3.148557     6B3u    3.551051
       6B2u    3.551051    10Ag     3.794111     5B3g    3.951600
       5B2g    3.951600     9B1u    3.960032     2Au     3.960032
       6B3g    3.960234     6B2g    3.960234    11Ag     4.049667
       3B1g    4.049667    12Ag     4.335133    10B1u    4.823597
       7B3u    5.156981     7B2u    5.156981    11B1u    5.425566
       3Au     5.425567    12B1u    6.915372     7B3g    7.312867
       7B2g    7.312867    13Ag     8.395746    13B1u   26.406410

    Final Occupation by Irrep:
             Ag   B1g   B2g   B3g    Au   B1u   B2u   B3u
    DOCC [     2,    0,    0,    0,    0,    2,    1,    1 ]
    SOCC [     1,    0,    0,    0,    0,    0,    0,    0 ]
    NA   [     3,    0,    0,    0,    0,    2,    1,    1 ]
    NB   [     2,    0,    0,    0,    0,    2,    1,    1 ]

  @DF-UKS Final Energy:  -108.36619638525895

   => Energetics <=

    Nuclear Repulsion Energy =             33.0476518073577523
    One-Electron Energy =                -204.8596347668863018
    Two-Electron Energy =                  74.6524231440138095
    DFT Exchange-Correlation Energy =     -11.2066365697441892
    Empirical Dispersion Energy =           0.0000000000000000
    VV10 Nonlocal Energy =                  0.0000000000000000
    Total Energy =                       -108.3661963852589452

  UHF NO Occupations:
  HONO-2 :    2 Ag 1.9999187
  HONO-1 :    2B1u 1.9991789
  HONO-0 :    3 Ag 1.0000000
  LUNO+0 :    3B1u 0.0008211
  LUNO+1 :    4 Ag 0.0000813
  LUNO+2 :    2B2u 0.0000483
  LUNO+3 :    2B3u 0.0000483

Computation Completed

Properties will be evaluated at   0.000000,   0.000000,   0.000000 [a0]

Properties computed using the B3LYP density matrix

 Multipole Moments:

 ------------------------------------------------------------------------------------
     Multipole            Electronic (a.u.)      Nuclear  (a.u.)        Total (a.u.)
 ------------------------------------------------------------------------------------

 L = 1.  Multiply by 2.5417464519 to convert [e a0] to [Debye]
 Dipole X            :          0.0000000            0.0000000            0.0000000
 Dipole Y            :          0.0000000            0.0000000            0.0000000
 Dipole Z            :          0.0000000           -0.0000000           -0.0000000
 Magnitude           :                                                    0.0000000

 L = 2.  Multiply by 1.3450342976 to convert [e a0^2] to [Debye ang]
 Quadrupole XX       :         -5.3424921            0.0000000           -5.3424921
 Quadrupole XY       :          0.0000000            0.0000000            0.0000000
 Quadrupole XZ       :          0.0000000            0.0000000            0.0000000
 Quadrupole YY       :         -5.3424921            0.0000000           -5.3424921
 Quadrupole YZ       :          0.0000000            0.0000000            0.0000000
 Quadrupole ZZ       :        -12.7241926            7.6944750           -5.0297176
 Traceless XX        :          2.4605668           -2.5648250           -0.1042582
 Traceless YY        :          2.4605668           -2.5648250           -0.1042582
 Traceless ZZ        :         -4.9211337            5.1296500            0.2085163

 ------------------------------------------------------------------------------------
  ==> Computing MBIS Charges <==

  Electron Count from Grid (Expected Number): 13.00000 (13.00000)
  Difference:  0.00000

  MBIS Charges: (a.u.)
   Center  Symbol  Z      Pop.       Charge
      1       N    7    6.500001    0.499999
      2       N    7    6.500001    0.499999

  MBIS Dipoles: [e a0]
   Center  Symbol  Z        X           Y           Z
      1       N    7   -0.000000    0.000000   -0.113519
      2       N    7   -0.000000   -0.000000    0.113519

  MBIS Quadrupoles: [e a0^2]
   Center  Symbol  Z      XX        XY        XZ        YY        YZ        ZZ
      1       N    7   -2.6712    0.0000    0.0000   -2.6712   -0.0000   -2.9580
      2       N    7   -2.6712    0.0000   -0.0000   -2.6712    0.0000   -2.9580

  MBIS Octupoles: [e a0^3]
   Center  Symbol  Z      XXX       XXY       XXZ       XYY       XYZ       XZZ       YYY       YYZ       YZZ       ZZZ
      1       N    7    0.0000    0.0000   -0.0049    0.0000    0.0000   -0.0000   -0.0000   -0.0049    0.0000    0.1076
      2       N    7    0.0000    0.0000    0.0049    0.0000   -0.0000    0.0000    0.0000    0.0049    0.0000   -0.1076

  MBIS Radial Moments:
   Center  Symbol  Z      [a0^2]      [a0^3]      [a0^4]
      1       N    7    8.300469   14.890938   32.041520
      2       N    7    8.300469   14.890938   32.041520

  MBIS Valence Widths: [a0]
   Center  Symbol  Z     Width
      1       N    7    0.376796
      2       N    7    0.376796

*** tstop() called on Mac.lan at Sun Aug 10 18:24:44 2025
Module time:
	user time   =       3.73 seconds =       0.06 minutes
	system time =       2.32 seconds =       0.04 minutes
	total time  =          0 seconds =       0.00 minutes
Total time:
	user time   =      15.03 seconds =       0.25 minutes
	system time =       4.74 seconds =       0.08 minutes
	total time  =          2 seconds =       0.03 minutes

    Psi4 stopped on: Sunday, 10 August 2025 06:24PM
    Psi4 wall time for execution: 0:00:01.94

*** Psi4 exiting successfully. Buy a developer a beer!
