                               Psi4 1.9.1 release

  ==> Input File <==

--------------------------------------------------------------------------
molecule {
1 2
O           0.000000           0.000000           0.000000
C           0.000000           0.000000           1.461111
}

set {
basis              cc-pvtz
reference          uks
maxiter            500
DAMPING_PERCENTAGE 1
E_CONVERGENCE      1.0E-8
D_CONVERGENCE      1.0E-8
DIIS_MAX_VECS      400
MBIS_MAXITER       8000
guess              read
}

E, wfn = energy('b3lyp', restart_file='last_wfn', return_wfn=True)
properties('b3lyp','MBIS_CHARGES', wfn=wfn)
wfn.to_file('last_wfn')
--------------------------------------------------------------------------

    Molecular point group: c2v
  Charge       = 1
  Multiplicity = 2
  Basis Set: CC-PVTZ
    Blend: CC-PVTZ
  Basis Set: (CC-PVTZ AUX)
    Blend: CC-PVTZ-JKFIT
  @DF-UKS Final Energy:  -112.70403182279406
    Total Energy =                       -112.7040318227940645
 Dipole X            :          0.0000000            0.0000000            0.0000000
 Dipole Y            :          0.0000000            0.0000000            0.0000000
 Dipole Z            :          1.1973124           -0.0030094            1.1943030
 Magnitude           :                                                    1.1943030
    Molecular point group: c2v

    Geometry (in Angstrom), charge = 1, multiplicity = 2:

       Center              X                  Y                   Z               Mass
    ------------   -----------------  -----------------  -----------------  -----------------
         O            0.000000000000     0.000000000000    -0.626304178393    15.994914619570
         C            0.000000000000     0.000000000000     0.834806821607    12.000000000000

  Charge       = 1
  Multiplicity = 2
  Basis Set: CC-PVTZ
    Blend: CC-PVTZ
  Basis Set: (CC-PVTZ AUX)
    Blend: CC-PVTZ-JKFIT

    Orbital Energies [Eh]
    ---------------------

    Alpha Occupied:

       1A1   -19.669096     2A1   -10.857916     3A1    -1.411594
       4A1    -1.004416     5A1    -0.837891     1B2    -0.765900
       1B1    -0.765900

    Alpha Virtual:

       2B1    -0.524146     2B2    -0.524146     6A1    -0.281740
       7A1    -0.011964     8A1     0.000637     3B2     0.004975
       3B1     0.004975     9A1     0.244598     1A2     0.298808
      10A1     0.298808     4B2     0.302688     4B1     0.302688
       5B2     0.418603     5B1     0.418603    11A1     0.658305
      12A1     0.876043    13A1     1.121960     2A2     1.121961
       6B2     1.297388     6B1     1.297388    14A1     1.549659
       7B1     1.586604     7B2     1.586604    15A1     1.793634
       8B1     2.233771     8B2     2.233771     3A2     2.274323
      16A1     2.274323     9B1     2.420588     9B2     2.420588
       4A2     2.466939    17A1     2.466941    18A1     2.495614
      10B2     2.678516    10B1     2.678516    19A1     2.741605
      20A1     3.313100    11B1     3.358099    11B2     3.358099
      21A1     4.661957    12B1     4.720806    12B2     4.720806
      22A1     4.795431     5A2     4.795432    13B1     5.117403
      13B2     5.117403    23A1     5.593861     6A2     5.793898
      24A1     5.793938    14B1     6.149853    14B2     6.149853
      25A1     6.795218    26A1     8.188725

    Beta Occupied:

       1A1   -19.663370     2A1   -10.840784     3A1    -1.391081
       4A1    -0.935279     1B2    -0.765777     1B1    -0.765777

    Beta Virtual:

       5A1    -0.658795     2B1    -0.493783     2B2    -0.493783
       6A1    -0.229546     7A1    -0.001510     3B2     0.013098
       3B1     0.013098     8A1     0.039915     9A1     0.262193
       4B2     0.307428     4B1     0.307428     1A2     0.314243
      10A1     0.314243     5B2     0.443690     5B1     0.443690
      11A1     0.695669    12A1     0.888423    13A1     1.118487
       2A2     1.118487     6B2     1.323408     6B1     1.323408
      14A1     1.585603     7B1     1.604753     7B2     1.604753
      15A1     1.842636     8B1     2.257582     8B2     2.257582
       3A2     2.303983    16A1     2.303983     9B1     2.455820
       9B2     2.455820     4A2     2.504797    17A1     2.504799
      18A1     2.545403    10B2     2.742363    10B1     2.742363
      19A1     2.819463    20A1     3.354285    11B1     3.359036
      11B2     3.359036    21A1     4.686585    12B1     4.709179
      12B2     4.709179    22A1     4.806059     5A2     4.806060
      13B1     5.144082    13B2     5.144082    23A1     5.644328
       6A2     5.781146    24A1     5.781187    14B1     6.182349
      14B2     6.182349    25A1     6.837091    26A1     8.198531

    Final Occupation by Irrep:
             A1    A2    B1    B2
    DOCC [     4,    0,    1,    1 ]
    SOCC [     1,    0,    0,    0 ]
    NA   [     5,    0,    1,    1 ]
    NB   [     4,    0,    1,    1 ]

  @DF-UKS Final Energy:  -112.70403181933609

   => Energetics <=

    Nuclear Repulsion Energy =             17.3843781288074695
    One-Electron Energy =                -182.7733543456148482
    Two-Electron Energy =                  63.4157700715890513
    DFT Exchange-Correlation Energy =     -10.7308256741177654
    Empirical Dispersion Energy =           0.0000000000000000
    VV10 Nonlocal Energy =                  0.0000000000000000
    Total Energy =                       -112.7040318193360946

  UHF NO Occupations:
  HONO-2 :    1 B2 1.9946241
  HONO-1 :    1 B1 1.9946241
  HONO-0 :    5 A1 1.0000000
  LUNO+0 :    2 B1 0.0053759
  LUNO+1 :    2 B2 0.0053759
  LUNO+2 :    6 A1 0.0038643
  LUNO+3 :    7 A1 0.0001137

Computation Completed

Properties will be evaluated at   0.000000,   0.000000,   0.000000 [a0]

Properties computed using the B3LYP density matrix

 Multipole Moments:

 ------------------------------------------------------------------------------------
     Multipole            Electronic (a.u.)      Nuclear  (a.u.)        Total (a.u.)
 ------------------------------------------------------------------------------------

 L = 1.  Multiply by 2.5417464519 to convert [e a0] to [Debye]
 Dipole X            :          0.0000000            0.0000000            0.0000000
 Dipole Y            :          0.0000000            0.0000000            0.0000000
 Dipole Z            :          1.1973111           -0.0030094            1.1943018
 Magnitude           :                                                    1.1943018

 L = 2.  Multiply by 1.3450342976 to convert [e a0^2] to [Debye ang]
 Quadrupole XX       :         -6.4952354            0.0000000           -6.4952354
 Quadrupole XY       :          0.0000000            0.0000000            0.0000000
 Quadrupole XZ       :          0.0000000            0.0000000            0.0000000
 Quadrupole YY       :         -6.4952354            0.0000000           -6.4952354
 Quadrupole YZ       :          0.0000000            0.0000000            0.0000000
 Quadrupole ZZ       :        -28.9538522           26.1383018           -2.8155504
 Traceless XX        :          7.4862056           -8.7127673           -1.2265617
 Traceless YY        :          7.4862056           -8.7127673           -1.2265617
 Traceless ZZ        :        -14.9724112           17.4255345            2.4531233

 ------------------------------------------------------------------------------------
  ==> Computing MBIS Charges <==

  Electron Count from Grid (Expected Number): 13.00000 (13.00000)
  Difference: -0.00000

  MBIS Charges: (a.u.)
   Center  Symbol  Z      Pop.       Charge
      1       O    8    7.928824    0.071176
      2       C    6    5.071175    0.928825

  MBIS Dipoles: [e a0]
   Center  Symbol  Z        X           Y           Z
      1       O    8    0.000000   -0.000000   -0.346643
      2       C    6   -0.000000    0.000000    0.159910

  MBIS Quadrupoles: [e a0^2]
   Center  Symbol  Z      XX        XY        XZ        YY        YZ        ZZ
      1       O    8   -3.6515   -0.0000   -0.0000   -3.6515   -0.0000   -3.5485
      2       C    6   -2.8437    0.0000    0.0000   -2.8437    0.0000   -3.0034

  MBIS Octupoles: [e a0^3]
   Center  Symbol  Z      XXX       XXY       XXZ       XYY       XYZ       XZZ       YYY       YYZ       YZZ       ZZZ
      1       O    8   -0.0000   -0.0000   -0.3296   -0.0000    0.0000    0.0000   -0.0000   -0.3296   -0.0000   -0.9842
      2       C    6   -0.0000   -0.0000    0.3209   -0.0000    0.0000   -0.0000    0.0000    0.3209    0.0000    0.6080

  MBIS Radial Moments:
   Center  Symbol  Z      [a0^2]      [a0^3]      [a0^4]
      1       O    8   10.851526   19.894951   43.571061
      2       C    6    8.690817   18.740671   48.065878

  MBIS Valence Widths: [a0]
   Center  Symbol  Z     Width
      1       O    8    0.381352
      2       C    6    0.466069

*** tstop() called on Mac.lan at Sun Aug 10 18:38:30 2025
Module time:
	user time   =       3.62 seconds =       0.06 minutes
	system time =       2.32 seconds =       0.04 minutes
	total time  =          0 seconds =       0.00 minutes
Total time:
	user time   =      20.66 seconds =       0.34 minutes
	system time =       4.92 seconds =       0.08 minutes
	total time  =          2 seconds =       0.03 minutes

    Psi4 stopped on: Sunday, 10 August 2025 06:38PM
    Psi4 wall time for execution: 0:00:02.48

*** Psi4 exiting successfully. Buy a developer a beer!
