                               Psi4 1.9.1 release

  ==> Input File <==

--------------------------------------------------------------------------
molecule {
1 3
N           0.000000           0.000000           0.000000
C           0.000000           0.000000           1.643760
}

set {
basis              cc-pvtz
reference          uks
maxiter            500
DAMPING_PERCENTAGE 1
E_CONVERGENCE      1.0E-8
D_CONVERGENCE      1.0E-8
DIIS_MAX_VECS      400
MBIS_MAXITER       8000
guess              read
}

E, wfn = energy('b3lyp', restart_file='last_wfn', return_wfn=True)
properties('b3lyp','MBIS_CHARGES', wfn=wfn)
wfn.to_file('last_wfn')
--------------------------------------------------------------------------

    Molecular point group: c2v
  Charge       = 1
  Multiplicity = 3
  Basis Set: CC-PVTZ
    Blend: CC-PVTZ
  Basis Set: (CC-PVTZ AUX)
    Blend: CC-PVTZ-JKFIT
  @DF-UKS Final Energy:   -92.14116241214813
    Total Energy =                        -92.1411624121481339
 Dipole X            :          0.0000000            0.0000000            0.0000000
 Dipole Y            :          0.0000000            0.0000000            0.0000000
 Dipole Z            :          0.5356208            0.0022033            0.5378241
 Magnitude           :                                                    0.5378241
    Molecular point group: c2v

    Geometry (in Angstrom), charge = 1, multiplicity = 3:

       Center              X                  Y                   Z               Mass
    ------------   -----------------  -----------------  -----------------  -----------------
         N            0.000000000000     0.000000000000    -0.758568775239    14.003074004430
         C            0.000000000000     0.000000000000     0.885191224761    12.000000000000

  Charge       = 1
  Multiplicity = 3
  Basis Set: CC-PVTZ
    Blend: CC-PVTZ
  Basis Set: (CC-PVTZ AUX)
    Blend: CC-PVTZ-JKFIT

    Orbital Energies [Eh]
    ---------------------

    Alpha Occupied:

       1A1   -14.858188     2A1   -10.775245     3A1    -1.232191
       4A1    -0.927309     5A1    -0.750696     1B1    -0.735777
       1B2    -0.714874

    Alpha Virtual:

       2B1    -0.498927     2B2    -0.456121     6A1    -0.307876
       7A1     0.002018     3B1     0.026637     3B2     0.044290
       8A1     0.049433     9A1     0.156541     4B1     0.183533
       4B2     0.193807     1A2     0.331498    10A1     0.331669
       5B1     0.352568     5B2     0.375670    11A1     0.522170
       2A2     0.705261    12A1     0.705289    13A1     0.716200
       6B1     0.966694     6B2     0.984593    14A1     1.142897
       7B1     1.572336     7B2     1.608470    15A1     1.816934
       8B1     2.195767     8B2     2.220260    16A1     2.258897
       3A2     2.270727    17A1     2.287645     9B1     2.301349
       9B2     2.301713    10B1     2.510319    10B2     2.536339
      18A1     2.549128     4A2     2.550295    19A1     2.706660
      11B1     2.716035    11B2     2.746842    20A1     2.926892
      12B1     3.455674    12B2     3.455694    21A1     3.534382
       5A2     3.541329    22A1     3.549482    13B1     3.827946
      13B2     3.846822    23A1     3.990629     6A2     3.990734
      24A1     4.176320    14B1     4.350875    14B2     4.367363
      25A1     5.116905    26A1     6.166788

    Beta Occupied:

       1A1   -14.813935     2A1   -10.776053     3A1    -1.129095
       4A1    -0.858110     1B2    -0.659727

    Beta Virtual:

       5A1    -0.579085     1B1    -0.555895     2B2    -0.453218
       2B1    -0.418470     6A1    -0.237251     7A1     0.021280
       3B2     0.024603     3B1     0.035997     8A1     0.066853
       9A1     0.191754     4B2     0.233940     4B1     0.237622
       1A2     0.319878    10A1     0.323709     5B2     0.389325
       5B1     0.398919    11A1     0.567899    12A1     0.749563
       2A2     0.772095    13A1     0.773227     6B2     1.027440
       6B1     1.031523    14A1     1.202635     7B2     1.562651
       7B1     1.585875    15A1     1.859405     8B2     2.247425
       8B1     2.259278     9B2     2.272901     3A2     2.273627
       9B1     2.274902    16A1     2.277934    17A1     2.313888
       4A2     2.513666    18A1     2.522816    10B2     2.573640
      10B1     2.588324    19A1     2.772291    11B2     2.773420
      11B1     2.787357    20A1     2.967974    12B2     3.554993
      12B1     3.555212    21A1     3.599997     5A2     3.629514
      22A1     3.630770    13B2     3.924765    13B1     3.931631
       6A2     4.126432    23A1     4.128389    24A1     4.271431
      14B2     4.464723    14B1     4.470139    25A1     5.191737
      26A1     6.226587

    Final Occupation by Irrep:
             A1    A2    B1    B2
    DOCC [     4,    0,    0,    1 ]
    SOCC [     1,    0,    1,    0 ]
    NA   [     5,    0,    1,    1 ]
    NB   [     4,    0,    0,    1 ]

  @DF-UKS Final Energy:   -92.14116241165908

   => Energetics <=

    Nuclear Repulsion Energy =             13.5210997032048468
    One-Electron Energy =                -146.3264728393912719
    Two-Electron Energy =                  50.0476292799517566
    DFT Exchange-Correlation Energy =      -9.3834185554243952
    Empirical Dispersion Energy =           0.0000000000000000
    VV10 Nonlocal Energy =                  0.0000000000000000
    Total Energy =                        -92.1411624116590673

  UHF NO Occupations:
  HONO-2 :    1 B2 1.7728603
  HONO-1 :    5 A1 1.0000000
  HONO-0 :    1 B1 1.0000000
  LUNO+0 :    2 B2 0.2271397
  LUNO+1 :    6 A1 0.0070301
  LUNO+2 :    7 A1 0.0005978
  LUNO+3 :    8 A1 0.0000012

Computation Completed

Properties will be evaluated at   0.000000,   0.000000,   0.000000 [a0]

Properties computed using the B3LYP density matrix

 Multipole Moments:

 ------------------------------------------------------------------------------------
     Multipole            Electronic (a.u.)      Nuclear  (a.u.)        Total (a.u.)
 ------------------------------------------------------------------------------------

 L = 1.  Multiply by 2.5417464519 to convert [e a0] to [Debye]
 Dipole X            :          0.0000000            0.0000000            0.0000000
 Dipole Y            :          0.0000000            0.0000000            0.0000000
 Dipole Z            :          0.5356210            0.0022033            0.5378243
 Magnitude           :                                                    0.5378243

 L = 2.  Multiply by 1.3450342976 to convert [e a0^2] to [Debye ang]
 Quadrupole XX       :         -6.1539441            0.0000000           -6.1539441
 Quadrupole XY       :          0.0000000            0.0000000            0.0000000
 Quadrupole XZ       :          0.0000000            0.0000000            0.0000000
 Quadrupole YY       :         -7.3240636            0.0000000           -7.3240636
 Quadrupole YZ       :          0.0000000            0.0000000            0.0000000
 Quadrupole ZZ       :        -34.4877037           31.1731360           -3.3145677
 Traceless XX        :          9.8346264          -10.3910453           -0.5564189
 Traceless YY        :          8.6645069          -10.3910453           -1.7265384
 Traceless ZZ        :        -18.4991332           20.7820906            2.2829574

 ------------------------------------------------------------------------------------
  ==> Computing MBIS Charges <==

  Electron Count from Grid (Expected Number): 12.00000 (12.00000)
  Difference: -0.00000

  MBIS Charges: (a.u.)
   Center  Symbol  Z      Pop.       Charge
      1       N    7    6.682303    0.317697
      2       C    6    5.317697    0.682303

  MBIS Dipoles: [e a0]
   Center  Symbol  Z        X           Y           Z
      1       N    7    0.000000    0.000000   -0.253152
      2       C    6   -0.000000    0.000000    0.105055

  MBIS Quadrupoles: [e a0^2]
   Center  Symbol  Z      XX        XY        XZ        YY        YZ        ZZ
      1       N    7   -3.3476    0.0000    0.0000   -3.7324   -0.0000   -3.5557
      2       C    6   -2.8064    0.0000    0.0000   -3.5916    0.0000   -3.3981

  MBIS Octupoles: [e a0^3]
   Center  Symbol  Z      XXX       XXY       XXZ       XYY       XYZ       XZZ       YYY       YYZ       YZZ       ZZZ
      1       N    7   -0.0000   -0.0000   -0.1749   -0.0000   -0.0000    0.0000   -0.0000   -0.3594    0.0000   -0.9174
      2       C    6   -0.0000    0.0000    0.1677   -0.0000   -0.0000   -0.0000    0.0000    0.2790    0.0000    0.6519

  MBIS Radial Moments:
   Center  Symbol  Z      [a0^2]      [a0^3]      [a0^4]
      1       N    7   10.635673   21.286269   50.818591
      2       C    6    9.796169   21.726956   57.367729

  MBIS Valence Widths: [a0]
   Center  Symbol  Z     Width
      1       N    7    0.423128
      2       C    6    0.478069

*** tstop() called on Mac.lan at Sun Aug 10 18:34:51 2025
Module time:
	user time   =       3.39 seconds =       0.06 minutes
	system time =       2.79 seconds =       0.05 minutes
	total time  =          1 seconds =       0.02 minutes
Total time:
	user time   =      19.38 seconds =       0.32 minutes
	system time =       5.43 seconds =       0.09 minutes
	total time  =          2 seconds =       0.03 minutes

    Psi4 stopped on: Sunday, 10 August 2025 06:34PM
    Psi4 wall time for execution: 0:00:02.39

*** Psi4 exiting successfully. Buy a developer a beer!
