                               Psi4 1.9.1 release

  ==> Input File <==

--------------------------------------------------------------------------
molecule {
1 2
O           0.000000           0.000000           0.000000
O           0.000000           0.000000           1.049869
}

set {
basis              cc-pvtz
reference          uks
maxiter            500
DAMPING_PERCENTAGE 1
E_CONVERGENCE      1.0E-8
D_CONVERGENCE      1.0E-8
DIIS_MAX_VECS      400
MBIS_MAXITER       8000
guess              read
}

E, wfn = energy('b3lyp', restart_file='last_wfn', return_wfn=True)
properties('b3lyp','MBIS_CHARGES', wfn=wfn)
wfn.to_file('last_wfn')
--------------------------------------------------------------------------

    Molecular point group: d2h
  Charge       = 1
  Multiplicity = 2
  Basis Set: CC-PVTZ
    Blend: CC-PVTZ
  Basis Set: (CC-PVTZ AUX)
    Blend: CC-PVTZ-JKFIT
  @DF-UKS Final Energy:  -149.91401125653047
    Total Energy =                       -149.9140112565304435
 Dipole X            :          0.0000000            0.0000000            0.0000000
 Dipole Y            :          0.0000000            0.0000000            0.0000000
 Dipole Z            :          0.0000000            0.0000000            0.0000000
 Magnitude           :                                                    0.0000000
    Molecular point group: d2h

    Geometry (in Angstrom), charge = 1, multiplicity = 2:

       Center              X                  Y                   Z               Mass
    ------------   -----------------  -----------------  -----------------  -----------------
         O            0.000000000000     0.000000000000    -0.524934500000    15.994914619570
         O            0.000000000000     0.000000000000     0.524934500000    15.994914619570

  Charge       = 1
  Multiplicity = 2
  Basis Set: CC-PVTZ
    Blend: CC-PVTZ
  Basis Set: (CC-PVTZ AUX)
    Blend: CC-PVTZ-JKFIT

    Orbital Energies [Eh]
    ---------------------

    Alpha Occupied:

       1Ag   -19.813741     1B1u  -19.812864     2Ag    -1.939744
       2B1u   -1.235737     1B3u   -1.097900     1B2u   -1.063077
       3Ag    -1.033901     1B2g   -0.712028

    Alpha Virtual:

       1B3g   -0.583796     3B1u   -0.030718     2B3u    0.129576
       2B2u    0.130351     4Ag     0.194018     4B1u    0.222652
       5Ag     0.259377     2B2g    0.288928     2B3g    0.297582
       1B1g    0.741047     6Ag     0.742326     5B1u    0.819895
       3B2u    0.963025     3B3u    0.963329     1Au     1.260899
       6B1u    1.262628     7Ag     1.786707     7B1u    1.833749
       3B2g    1.837832     3B3g    1.841021     4B3u    2.947799
       4B2u    2.964627     8Ag     3.198574     4B2g    3.326449
       4B3g    3.338992     2B1g    4.045091     9Ag     4.046338
       8B1u    4.092706     5B2u    4.237329     5B3u    4.243402
       6B3u    4.312380     6B2u    4.312680    10Ag     4.678818
       5B2g    4.774895     5B3g    4.775199     9B1u    5.296357
       3B1g    5.512865    11Ag     5.516991     2Au     5.553625
      10B1u    5.556716     6B2g    5.791933     6B3g    5.800414
       3Au     5.809496    11B1u    5.812295     7B3u    6.133708
       7B2u    6.137197    12Ag     6.565689    12B1u    6.726157
      13Ag     7.353020     7B3g    7.366450     7B2g    7.368809
      13B1u   16.472702

    Beta Occupied:

       1Ag   -19.797201     1B1u  -19.796217     2Ag    -1.914417
       2B1u   -1.189317     1B2u   -1.049484     3Ag    -1.009863
       1B3u   -1.003973

    Beta Virtual:

       1B3g   -0.565692     1B2g   -0.516754     3B1u   -0.013855
       2B2u    0.134070     2B3u    0.153628     4Ag     0.195961
       4B1u    0.237206     5Ag     0.272180     2B3g    0.302670
       2B2g    0.321634     1B1g    0.762211     6Ag     0.762394
       5B1u    0.834891     3B2u    0.965727     3B3u    0.995889
       1Au     1.294278     6B1u    1.294289     7Ag     1.801046
       3B3g    1.845448     7B1u    1.845818     3B2g    1.871619
       4B2u    2.976276     4B3u    3.016119     8Ag     3.210150
       4B3g    3.351234     4B2g    3.393083     2B1g    4.064317
       9Ag     4.064506     8B1u    4.113471     5B2u    4.240458
       5B3u    4.272566     6B2u    4.348569     6B3u    4.348899
      10Ag     4.694391     5B3g    4.814823     5B2g    4.814843
       9B1u    5.315685    11Ag     5.572631     3B1g    5.572686
       2Au     5.597614    10B1u    5.597676     6B3g    5.806364
       6B2g    5.843083     3Au     5.852874    11B1u    5.853782
       7B2u    6.143084     7B3u    6.182211    12Ag     6.597763
      12B1u    6.744012    13Ag     7.365894     7B3g    7.371421
       7B2g    7.406536    13B1u   16.495943

    Final Occupation by Irrep:
             Ag   B1g   B2g   B3g    Au   B1u   B2u   B3u
    DOCC [     3,    0,    0,    0,    0,    2,    1,    1 ]
    SOCC [     0,    0,    1,    0,    0,    0,    0,    0 ]
    NA   [     3,    0,    1,    0,    0,    2,    1,    1 ]
    NB   [     3,    0,    0,    0,    0,    2,    1,    1 ]

  @DF-UKS Final Energy:  -149.91401125711891

   => Energetics <=

    Nuclear Repulsion Energy =             32.2586355848967798
    One-Electron Energy =                -262.1794490769682398
    Two-Electron Energy =                  93.5074257532614581
    DFT Exchange-Correlation Energy =     -13.5006235183089043
    Empirical Dispersion Energy =           0.0000000000000000
    VV10 Nonlocal Energy =                  0.0000000000000000
    Total Energy =                       -149.9140112571189150

  UHF NO Occupations:
  HONO-2 :    2B1u 1.9997309
  HONO-1 :    1B3u 1.9992750
  HONO-0 :    1B2g 1.0000000
  LUNO+0 :    2B3u 0.0007250
  LUNO+1 :    3B1u 0.0002691
  LUNO+2 :    4 Ag 0.0001423
  LUNO+3 :    2B2u 0.0000274

Computation Completed

Properties will be evaluated at   0.000000,   0.000000,   0.000000 [a0]

Properties computed using the B3LYP density matrix

 Multipole Moments:

 ------------------------------------------------------------------------------------
     Multipole            Electronic (a.u.)      Nuclear  (a.u.)        Total (a.u.)
 ------------------------------------------------------------------------------------

 L = 1.  Multiply by 2.5417464519 to convert [e a0] to [Debye]
 Dipole X            :          0.0000000            0.0000000            0.0000000
 Dipole Y            :          0.0000000            0.0000000            0.0000000
 Dipole Z            :          0.0000000            0.0000000            0.0000000
 Magnitude           :                                                    0.0000000

 L = 2.  Multiply by 1.3450342976 to convert [e a0^2] to [Debye ang]
 Quadrupole XX       :         -6.0539235            0.0000000           -6.0539235
 Quadrupole XY       :          0.0000000            0.0000000            0.0000000
 Quadrupole XZ       :          0.0000000            0.0000000            0.0000000
 Quadrupole YY       :         -5.5013541            0.0000000           -5.5013541
 Quadrupole YZ       :          0.0000000            0.0000000            0.0000000
 Quadrupole ZZ       :        -20.9282552           15.7444665           -5.1837886
 Traceless XX        :          4.7739207           -5.2481555           -0.4742348
 Traceless YY        :          5.3264901           -5.2481555            0.0783346
 Traceless ZZ        :        -10.1004109           10.4963110            0.3959001

 ------------------------------------------------------------------------------------
  ==> Computing MBIS Charges <==

  Electron Count from Grid (Expected Number): 15.00000 (15.00000)
  Difference:  0.00000

  MBIS Charges: (a.u.)
   Center  Symbol  Z      Pop.       Charge
      1       O    8    7.500000    0.500000
      2       O    8    7.500000    0.500000

  MBIS Dipoles: [e a0]
   Center  Symbol  Z        X           Y           Z
      1       O    8    0.000000   -0.000000    0.021071
      2       O    8   -0.000000   -0.000000   -0.021071

  MBIS Quadrupoles: [e a0^2]
   Center  Symbol  Z      XX        XY        XZ        YY        YZ        ZZ
      1       O    8   -3.0270   -0.0000    0.0000   -2.7507   -0.0000   -3.0421
      2       O    8   -3.0270   -0.0000   -0.0000   -2.7507    0.0000   -3.0421

  MBIS Octupoles: [e a0^3]
   Center  Symbol  Z      XXX       XXY       XXZ       XYY       XYZ       XZZ       YYY       YYZ       YZZ       ZZZ
      1       O    8   -0.0000   -0.0000    0.0632    0.0000   -0.0000   -0.0000   -0.0000   -0.0183   -0.0000   -0.1278
      2       O    8   -0.0000   -0.0000   -0.0632    0.0000    0.0000    0.0000   -0.0000    0.0183   -0.0000    0.1278

  MBIS Radial Moments:
   Center  Symbol  Z      [a0^2]      [a0^3]      [a0^4]
      1       O    8    8.819743   14.983632   30.547744
      2       O    8    8.819743   14.983632   30.547744

  MBIS Valence Widths: [a0]
   Center  Symbol  Z     Width
      1       O    8    0.355197
      2       O    8    0.355197

*** tstop() called on Mac.lan at Sun Aug 10 18:12:35 2025
Module time:
	user time   =       3.52 seconds =       0.06 minutes
	system time =       2.64 seconds =       0.04 minutes
	total time  =          0 seconds =       0.00 minutes
Total time:
	user time   =      13.96 seconds =       0.23 minutes
	system time =       4.65 seconds =       0.08 minutes
	total time  =          1 seconds =       0.02 minutes

    Psi4 stopped on: Sunday, 10 August 2025 06:12PM
    Psi4 wall time for execution: 0:00:01.82

*** Psi4 exiting successfully. Buy a developer a beer!
