                               Psi4 1.9.1 release

  ==> Input File <==

--------------------------------------------------------------------------
molecule {
1 3
O           0.000000           0.000000           0.000000
H           0.000000           0.000000           1.519346
}

set {
basis              cc-pvtz
reference          uks
maxiter            500
DAMPING_PERCENTAGE 1
E_CONVERGENCE      1.0E-8
D_CONVERGENCE      1.0E-8
DIIS_MAX_VECS      400
MBIS_MAXITER       8000
guess              read
}

E, wfn = energy('b3lyp', restart_file='last_wfn', return_wfn=True)
properties('b3lyp','MBIS_CHARGES', wfn=wfn)
wfn.to_file('last_wfn')
--------------------------------------------------------------------------

    Molecular point group: c2v
  Charge       = 1
  Multiplicity = 3
  Basis Set: CC-PVTZ
    Blend: CC-PVTZ
  Basis Set: (CC-PVTZ AUX)
    Blend: CC-PVTZ-JKFIT
  @DF-UKS Final Energy:   -75.22791567975183
    Total Energy =                        -75.2279156797518169
 Dipole X            :          0.0000000            0.0000000            0.0000000
 Dipole Y            :          0.0000000            0.0000000            0.0000000
 Dipole Z            :          0.1121559            1.3394810            1.4516369
 Magnitude           :                                                    1.4516369
    Molecular point group: c2v

    Geometry (in Angstrom), charge = 1, multiplicity = 3:

       Center              X                  Y                   Z               Mass
    ------------   -----------------  -----------------  -----------------  -----------------
         O            0.000000000000     0.000000000000    -0.090058129618    15.994914619570
         H            0.000000000000     0.000000000000     1.429287870382     1.007825032230

  Charge       = 1
  Multiplicity = 3
  Basis Set: CC-PVTZ
    Blend: CC-PVTZ
  Basis Set: (CC-PVTZ AUX)
    Blend: CC-PVTZ-JKFIT

    Orbital Energies [Eh]
    ---------------------

    Alpha Occupied:

       1A1   -19.760492     2A1    -1.461881     1B2    -0.883926
       1B1    -0.883926     3A1    -0.861585

    Alpha Virtual:

       4A1    -0.464717     5A1    -0.025744     2B2     0.137427
       2B1     0.137427     6A1     0.243739     3B1     0.339817
       3B2     0.339817     7A1     0.376981     8A1     0.668302
       9A1     0.984074     1A2     0.984074     4B1     1.086810
       4B2     1.086810    10A1     1.469816    11A1     2.002357
      12A1     2.675776    13A1     2.795698     2A2     2.795700
       5B2     2.830755     5B1     2.830755     6B2     3.077788
       6B1     3.077788     7B2     3.242448     7B1     3.242448
      14A1     3.345563    15A1     3.996853     8B2     4.563476
       8B1     4.563476    16A1     4.593284     3A2     4.593284
       9B1     4.753246     9B2     4.753246    17A1     5.080527
       4A2     5.566976    18A1     5.566981    10B1     5.752225
      10B2     5.752225    19A1     6.319730    20A1     6.940988

    Beta Occupied:

       1A1   -19.701152     2A1    -1.289234     3A1    -0.805902

    Beta Virtual:

       1B2    -0.581155     1B1    -0.581155     4A1    -0.475171
       5A1    -0.037560     2B2     0.177232     2B1     0.177232
       6A1     0.270256     3B1     0.359074     3B2     0.359074
       7A1     0.402300     8A1     0.702271     9A1     1.097839
       1A2     1.097839     4B1     1.145300     4B2     1.145300
      10A1     1.493653    11A1     1.962144    12A1     2.689023
       2A2     2.760054    13A1     2.760056     5B2     2.823104
       5B1     2.823104     6B2     3.193208     6B1     3.193208
       7B2     3.210715     7B1     3.210715    14A1     3.332030
      15A1     4.015905     3A2     4.697614    16A1     4.697614
       8B2     4.714667     8B1     4.714667     9B1     4.833206
       9B2     4.833206    17A1     5.144491     4A2     5.782152
      18A1     5.782157    10B1     5.874768    10B2     5.874768
      19A1     6.385590    20A1     7.062921

    Final Occupation by Irrep:
             A1    A2    B1    B2
    DOCC [     3,    0,    0,    0 ]
    SOCC [     0,    0,    1,    1 ]
    NA   [     3,    0,    1,    1 ]
    NB   [     3,    0,    0,    0 ]

  @DF-UKS Final Energy:   -75.22791567970452

   => Energetics <=

    Nuclear Repulsion Energy =              2.7863420743925347
    One-Electron Energy =                -105.4951654373815018
    Two-Electron Energy =                  34.2750810447649812
    DFT Exchange-Correlation Energy =      -6.7941733614805369
    Empirical Dispersion Energy =           0.0000000000000000
    VV10 Nonlocal Energy =                  0.0000000000000000
    Total Energy =                        -75.2279156797045090

  UHF NO Occupations:
  HONO-2 :    3 A1 1.9822955
  HONO-1 :    1 B1 1.0000000
  HONO-0 :    1 B2 1.0000000
  LUNO+0 :    4 A1 0.0177045
  LUNO+1 :    5 A1 0.0009102
  LUNO+2 :    6 A1 0.0000014
  LUNO+3 :    2 B2 0.0000000

Computation Completed

Properties will be evaluated at   0.000000,   0.000000,   0.000000 [a0]

Properties computed using the B3LYP density matrix

 Multipole Moments:

 ------------------------------------------------------------------------------------
     Multipole            Electronic (a.u.)      Nuclear  (a.u.)        Total (a.u.)
 ------------------------------------------------------------------------------------

 L = 1.  Multiply by 2.5417464519 to convert [e a0] to [Debye]
 Dipole X            :          0.0000000            0.0000000            0.0000000
 Dipole Y            :          0.0000000            0.0000000            0.0000000
 Dipole Z            :          0.1121559            1.3394810            1.4516369
 Magnitude           :                                                    1.4516369

 L = 2.  Multiply by 1.3450342976 to convert [e a0^2] to [Debye ang]
 Quadrupole XX       :         -3.2535919            0.0000000           -3.2535919
 Quadrupole XY       :          0.0000000            0.0000000            0.0000000
 Quadrupole XZ       :          0.0000000            0.0000000            0.0000000
 Quadrupole YY       :         -3.2535919            0.0000000           -3.2535919
 Quadrupole YZ       :          0.0000000            0.0000000            0.0000000
 Quadrupole ZZ       :         -6.5354712            7.5269031            0.9914319
 Traceless XX        :          1.0939598           -2.5089677           -1.4150079
 Traceless YY        :          1.0939598           -2.5089677           -1.4150079
 Traceless ZZ        :         -2.1879196            5.0179354            2.8300159

 ------------------------------------------------------------------------------------
  ==> Computing MBIS Charges <==

  Electron Count from Grid (Expected Number):  8.00000 ( 8.00000)
  Difference: -0.00000

  MBIS Charges: (a.u.)
   Center  Symbol  Z      Pop.       Charge
      1       O    8    7.592708    0.407292
      2       H    1    0.407292    0.592708

  MBIS Dipoles: [e a0]
   Center  Symbol  Z        X           Y           Z
      1       O    8    0.000000   -0.000000   -0.163901
      2       H    1   -0.000000    0.000000    0.083969

  MBIS Quadrupoles: [e a0^2]
   Center  Symbol  Z      XX        XY        XZ        YY        YZ        ZZ
      1       O    8   -2.9842    0.0000    0.0000   -2.9842    0.0000   -3.6039
      2       H    1   -0.2694    0.0000   -0.0000   -0.2694    0.0000   -0.2497

  MBIS Octupoles: [e a0^3]
   Center  Symbol  Z      XXX       XXY       XXZ       XYY       XYZ       XZZ       YYY       YYZ       YZZ       ZZZ
      1       O    8   -0.0000   -0.0000   -0.1433   -0.0000    0.0000    0.0000    0.0000   -0.1433   -0.0000   -0.5731
      2       H    1    0.0000    0.0000    0.0486    0.0000   -0.0000   -0.0000    0.0000    0.0486    0.0000    0.1268

  MBIS Radial Moments:
   Center  Symbol  Z      [a0^2]      [a0^3]      [a0^4]
      1       O    8    9.572368   16.898549   35.679736
      2       H    1    0.788488    1.521796    3.487092

  MBIS Valence Widths: [a0]
   Center  Symbol  Z     Width
      1       O    8    0.367725
      2       H    1    0.408984

*** tstop() called on Mac.lan at Sun Aug 10 18:30:50 2025
Module time:
	user time   =       6.19 seconds =       0.10 minutes
	system time =       2.12 seconds =       0.04 minutes
	total time  =          1 seconds =       0.02 minutes
Total time:
	user time   =      45.20 seconds =       0.75 minutes
	system time =       5.04 seconds =       0.08 minutes
	total time  =          5 seconds =       0.08 minutes

    Psi4 stopped on: Sunday, 10 August 2025 06:30PM
    Psi4 wall time for execution: 0:00:05.08

*** Psi4 exiting successfully. Buy a developer a beer!
