                               Psi4 1.9.1 release

  ==> Input File <==

--------------------------------------------------------------------------
molecule {
1 3
O           0.000000           0.000000           0.000000
H           0.000000           0.000000           1.252348
}

set {
basis              cc-pvtz
reference          uks
maxiter            500
DAMPING_PERCENTAGE 1
E_CONVERGENCE      1.0E-8
D_CONVERGENCE      1.0E-8
DIIS_MAX_VECS      400
MBIS_MAXITER       8000
guess              read
}

E, wfn = energy('b3lyp', restart_file='last_wfn', return_wfn=True)
properties('b3lyp','MBIS_CHARGES', wfn=wfn)
wfn.to_file('last_wfn')
--------------------------------------------------------------------------

    Molecular point group: c2v
  Charge       = 1
  Multiplicity = 3
  Basis Set: CC-PVTZ
    Blend: CC-PVTZ
  Basis Set: (CC-PVTZ AUX)
    Blend: CC-PVTZ-JKFIT
  @DF-UKS Final Energy:   -75.26395524903282
    Total Energy =                        -75.2639552490328185
 Dipole X            :          0.0000000            0.0000000            0.0000000
 Dipole Y            :          0.0000000            0.0000000            0.0000000
 Dipole Z            :          0.0270768            1.1040911            1.1311679
 Magnitude           :                                                    1.1311679
    Molecular point group: c2v

    Geometry (in Angstrom), charge = 1, multiplicity = 3:

       Center              X                  Y                   Z               Mass
    ------------   -----------------  -----------------  -----------------  -----------------
         O            0.000000000000     0.000000000000    -0.074232017270    15.994914619570
         H            0.000000000000     0.000000000000     1.178115982730     1.007825032230

  Charge       = 1
  Multiplicity = 3
  Basis Set: CC-PVTZ
    Blend: CC-PVTZ
  Basis Set: (CC-PVTZ AUX)
    Blend: CC-PVTZ-JKFIT

    Orbital Energies [Eh]
    ---------------------

    Alpha Occupied:

       1A1   -19.793522     2A1    -1.507052     3A1    -0.919632
       1B1    -0.916699     1B2    -0.916699

    Alpha Virtual:

       4A1    -0.403338     5A1    -0.030266     2B2     0.131633
       2B1     0.131633     6A1     0.205733     3B2     0.328713
       3B1     0.328713     7A1     0.468987     8A1     0.703506
       1A2     0.951872     9A1     0.951872     4B2     1.165240
       4B1     1.165240    10A1     1.633895    11A1     1.925092
       2A2     2.763157    12A1     2.763159     5B1     2.770104
       5B2     2.770104    13A1     2.815809     6B1     3.176383
       6B2     3.176383     7B1     3.322671     7B2     3.322671
      14A1     3.425556    15A1     4.307837     8B2     4.531997
       8B1     4.531997    16A1     4.615570     3A2     4.615570
       9B2     5.081787     9B1     5.081787    17A1     5.484562
      18A1     5.545848     4A2     5.545851    10B2     5.872111
      10B1     5.872111    19A1     6.351437    20A1     7.562584

    Beta Occupied:

       1A1   -19.736391     2A1    -1.344654     3A1    -0.869410

    Beta Virtual:

       1B1    -0.614589     1B2    -0.614589     4A1    -0.392654
       5A1    -0.032378     2B2     0.186675     2B1     0.186675
       6A1     0.224650     3B2     0.346820     3B1     0.346820
       7A1     0.518651     8A1     0.721133     1A2     1.064377
       9A1     1.064377     4B2     1.219793     4B1     1.219793
      10A1     1.674610    11A1     1.903621     2A2     2.752718
      12A1     2.752720     5B1     2.819121     5B2     2.819121
      13A1     2.831978     6B1     3.226387     6B2     3.226387
       7B1     3.357028     7B2     3.357028    14A1     3.434294
      15A1     4.347389     8B2     4.683626     8B1     4.683626
       3A2     4.714954    16A1     4.714955     9B2     5.158353
       9B1     5.158353    17A1     5.536134    18A1     5.760208
       4A2     5.760211    10B2     5.977588    10B1     5.977588
      19A1     6.442283    20A1     7.640013

    Final Occupation by Irrep:
             A1    A2    B1    B2
    DOCC [     3,    0,    0,    0 ]
    SOCC [     0,    0,    1,    1 ]
    NA   [     3,    0,    1,    1 ]
    NB   [     3,    0,    0,    0 ]

  @DF-UKS Final Energy:   -75.26395525010257

   => Energetics <=

    Nuclear Repulsion Energy =              3.3803844341668614
    One-Electron Energy =                -106.3802226159139650
    Two-Electron Energy =                  34.5576088674998729
    DFT Exchange-Correlation Energy =      -6.8217259358553237
    Empirical Dispersion Energy =           0.0000000000000000
    VV10 Nonlocal Energy =                  0.0000000000000000
    Total Energy =                        -75.2639552501025690

  UHF NO Occupations:
  HONO-2 :    3 A1 1.9959002
  HONO-1 :    1 B2 1.0000000
  HONO-0 :    1 B1 1.0000000
  LUNO+0 :    4 A1 0.0040998
  LUNO+1 :    5 A1 0.0008548
  LUNO+2 :    6 A1 0.0000014
  LUNO+3 :    7 A1 0.0000000

Computation Completed

Properties will be evaluated at   0.000000,   0.000000,   0.000000 [a0]

Properties computed using the B3LYP density matrix

 Multipole Moments:

 ------------------------------------------------------------------------------------
     Multipole            Electronic (a.u.)      Nuclear  (a.u.)        Total (a.u.)
 ------------------------------------------------------------------------------------

 L = 1.  Multiply by 2.5417464519 to convert [e a0] to [Debye]
 Dipole X            :          0.0000000            0.0000000            0.0000000
 Dipole Y            :          0.0000000            0.0000000            0.0000000
 Dipole Z            :          0.0270768            1.1040911            1.1311679
 Magnitude           :                                                    1.1311679

 L = 2.  Multiply by 1.3450342976 to convert [e a0^2] to [Debye ang]
 Quadrupole XX       :         -3.1519164            0.0000000           -3.1519164
 Quadrupole XY       :          0.0000000            0.0000000            0.0000000
 Quadrupole XZ       :          0.0000000            0.0000000            0.0000000
 Quadrupole YY       :         -3.1519164            0.0000000           -3.1519164
 Quadrupole YZ       :          0.0000000            0.0000000            0.0000000
 Quadrupole ZZ       :         -5.6649284            5.1139091           -0.5510193
 Traceless XX        :          0.8376707           -1.7046364           -0.8669657
 Traceless YY        :          0.8376707           -1.7046364           -0.8669657
 Traceless ZZ        :         -1.6753413            3.4092728            1.7339314

 ------------------------------------------------------------------------------------
  ==> Computing MBIS Charges <==

  Electron Count from Grid (Expected Number):  8.00000 ( 8.00000)
  Difference:  0.00000

  MBIS Charges: (a.u.)
   Center  Symbol  Z      Pop.       Charge
      1       O    8    7.559970    0.440030
      2       H    1    0.440030    0.559970

  MBIS Dipoles: [e a0]
   Center  Symbol  Z        X           Y           Z
      1       O    8   -0.000000   -0.000000   -0.121468
      2       H    1    0.000000    0.000000    0.067692

  MBIS Quadrupoles: [e a0^2]
   Center  Symbol  Z      XX        XY        XZ        YY        YZ        ZZ
      1       O    8   -2.9144    0.0000   -0.0000   -2.9144    0.0000   -3.4534
      2       H    1   -0.2375    0.0000    0.0000   -0.2375    0.0000   -0.2172

  MBIS Octupoles: [e a0^3]
   Center  Symbol  Z      XXX       XXY       XXZ       XYY       XYZ       XZZ       YYY       YYZ       YZZ       ZZZ
      1       O    8   -0.0000   -0.0000   -0.0945    0.0000   -0.0000    0.0000   -0.0000   -0.0945   -0.0000   -0.3725
      2       H    1    0.0000    0.0000    0.0239    0.0000    0.0000    0.0000   -0.0000    0.0239    0.0000    0.0810

  MBIS Radial Moments:
   Center  Symbol  Z      [a0^2]      [a0^3]      [a0^4]
      1       O    8    9.282194   16.084518   33.319119
      2       H    1    0.692285    1.211928    2.525037

  MBIS Valence Widths: [a0]
   Center  Symbol  Z     Width
      1       O    8    0.363379
      2       H    1    0.368016

*** tstop() called on Mac.lan at Sun Aug 10 18:29:53 2025
Module time:
	user time   =       5.30 seconds =       0.09 minutes
	system time =       1.97 seconds =       0.03 minutes
	total time  =          1 seconds =       0.02 minutes
Total time:
	user time   =      15.24 seconds =       0.25 minutes
	system time =       4.44 seconds =       0.07 minutes
	total time  =          2 seconds =       0.03 minutes

    Psi4 stopped on: Sunday, 10 August 2025 06:29PM
    Psi4 wall time for execution: 0:00:01.99

*** Psi4 exiting successfully. Buy a developer a beer!
