                               Psi4 1.9.1 release

  ==> Input File <==

--------------------------------------------------------------------------
molecule {
1 1
C           0.000000           0.000000           0.000000
H           0.000000           0.000000           0.890813
}

set {
basis              cc-pvtz
reference          uks
maxiter            500
DAMPING_PERCENTAGE 1
E_CONVERGENCE      1.0E-8
D_CONVERGENCE      1.0E-8
DIIS_MAX_VECS      400
MBIS_MAXITER       8000
guess              read
}

E, wfn = energy('b3lyp', restart_file='last_wfn', return_wfn=True)
properties('b3lyp','MBIS_CHARGES', wfn=wfn)
wfn.to_file('last_wfn')
--------------------------------------------------------------------------

    Molecular point group: c2v
  Charge       = 1
  Multiplicity = 1
  Basis Set: CC-PVTZ
    Blend: CC-PVTZ
  Basis Set: (CC-PVTZ AUX)
    Blend: CC-PVTZ-JKFIT
  @DF-UKS Final Energy:   -38.04285979983852
    Total Energy =                        -38.0428597998385243
 Dipole X            :          0.0000000            0.0000000            0.0000000
 Dipole Y            :          0.0000000            0.0000000            0.0000000
 Dipole Z            :         -0.0641902            0.7704070            0.7062169
 Magnitude           :                                                    0.7062169
    Molecular point group: c2v

    Geometry (in Angstrom), charge = 1, multiplicity = 1:

       Center              X                  Y                   Z               Mass
    ------------   -----------------  -----------------  -----------------  -----------------
         C            0.000000000000     0.000000000000    -0.069018735893    12.000000000000
         H            0.000000000000     0.000000000000     0.821794264107     1.007825032230

  Charge       = 1
  Multiplicity = 1
  Basis Set: CC-PVTZ
    Blend: CC-PVTZ
  Basis Set: (CC-PVTZ AUX)
    Blend: CC-PVTZ-JKFIT

    Orbital Energies [Eh]
    ---------------------

    Alpha Occupied:

       1A1   -10.792140     2A1    -1.139453     3A1    -0.738470

    Alpha Virtual:

       1B1    -0.557684     1B2    -0.557684     4A1    -0.180765
       2B2     0.005481     2B1     0.005481     5A1     0.008491
       6A1     0.038347     7A1     0.229031     3B1     0.249206
       3B2     0.249206     1A2     0.310165     8A1     0.310165
       9A1     0.666932     4B1     0.750770     4B2     0.750770
      10A1     1.348370    11A1     1.522301     5B1     1.534214
       5B2     1.534214    12A1     1.754885     2A2     2.135474
      13A1     2.135474     6B1     2.238835     6B2     2.238835
       7B1     2.254164     7B2     2.254164     3A2     2.476105
      14A1     2.476105    15A1     2.602797     8B1     2.632132
       8B2     2.632132    16A1     3.246366     4A2     3.426381
      17A1     3.426381     9B1     3.554630     9B2     3.554630
      18A1     4.820834    10B1     4.868803    10B2     4.868803
      19A1     5.050133    20A1    10.700089

    Beta Occupied:

       1A1   -10.792140     2A1    -1.139453     3A1    -0.738470

    Beta Virtual:

       1B1    -0.557684     1B2    -0.557684     4A1    -0.180765
       2B2     0.005481     2B1     0.005481     5A1     0.008491
       6A1     0.038347     7A1     0.229031     3B1     0.249206
       3B2     0.249206     1A2     0.310165     8A1     0.310165
       9A1     0.666932     4B1     0.750770     4B2     0.750770
      10A1     1.348370    11A1     1.522301     5B1     1.534214
       5B2     1.534214    12A1     1.754885     2A2     2.135474
      13A1     2.135474     6B1     2.238835     6B2     2.238835
       7B1     2.254164     7B2     2.254164     3A2     2.476105
      14A1     2.476105    15A1     2.602797     8B1     2.632132
       8B2     2.632132    16A1     3.246366     4A2     3.426381
      17A1     3.426381     9B1     3.554630     9B2     3.554630
      18A1     4.820834    10B1     4.868803    10B2     4.868803
      19A1     5.050133    20A1    10.700089

    Final Occupation by Irrep:
             A1    A2    B1    B2
    DOCC [     3,    0,    0,    0 ]
    SOCC [     0,    0,    0,    0 ]
    NA   [     3,    0,    0,    0 ]
    NB   [     3,    0,    0,    0 ]

  @DF-UKS Final Energy:   -38.04285979976731

   => Energetics <=

    Nuclear Repulsion Energy =              3.5642309486053749
    One-Electron Energy =                 -54.7325513060773545
    Two-Electron Energy =                  17.4723195163448501
    DFT Exchange-Correlation Energy =      -4.3468589586401940
    Empirical Dispersion Energy =           0.0000000000000000
    VV10 Nonlocal Energy =                  0.0000000000000000
    Total Energy =                        -38.0428597997673279

  UHF NO Occupations:
  HONO-2 :    1 A1 2.0000000
  HONO-1 :    2 A1 2.0000000
  HONO-0 :    3 A1 2.0000000
  LUNO+0 :    4 A1 0.0000000
  LUNO+1 :    5 A1 0.0000000
  LUNO+2 :    6 A1 0.0000000
  LUNO+3 :    7 A1 0.0000000

Computation Completed

Properties will be evaluated at   0.000000,   0.000000,   0.000000 [a0]

Properties computed using the B3LYP density matrix

 Multipole Moments:

 ------------------------------------------------------------------------------------
     Multipole            Electronic (a.u.)      Nuclear  (a.u.)        Total (a.u.)
 ------------------------------------------------------------------------------------

 L = 1.  Multiply by 2.5417464519 to convert [e a0] to [Debye]
 Dipole X            :          0.0000000            0.0000000            0.0000000
 Dipole Y            :          0.0000000            0.0000000            0.0000000
 Dipole Z            :         -0.0641902            0.7704070            0.7062169
 Magnitude           :                                                    0.7062169

 L = 2.  Multiply by 1.3450342976 to convert [e a0^2] to [Debye ang]
 Quadrupole XX       :         -2.7495810            0.0000000           -2.7495810
 Quadrupole XY       :          0.0000000            0.0000000            0.0000000
 Quadrupole XZ       :          0.0000000            0.0000000            0.0000000
 Quadrupole YY       :         -2.7495810            0.0000000           -2.7495810
 Quadrupole YZ       :          0.0000000            0.0000000            0.0000000
 Quadrupole ZZ       :         -5.9843411            2.5137701           -3.4705709
 Traceless XX        :          1.0782533           -0.8379234            0.2403300
 Traceless YY        :          1.0782533           -0.8379234            0.2403300
 Traceless ZZ        :         -2.1565067            1.6758467           -0.4806599

 ------------------------------------------------------------------------------------
  ==> Computing MBIS Charges <==

  Electron Count from Grid (Expected Number):  6.00000 ( 6.00000)
  Difference:  0.00000

  MBIS Charges: (a.u.)
   Center  Symbol  Z      Pop.       Charge
      1       C    6    5.156415    0.843585
      2       H    1    0.843585    0.156415

  MBIS Dipoles: [e a0]
   Center  Symbol  Z        X           Y           Z
      1       C    6    0.000000   -0.000000    0.511210
      2       H    1   -0.000000   -0.000000    0.062126

  MBIS Quadrupoles: [e a0^2]
   Center  Symbol  Z      XX        XY        XZ        YY        YZ        ZZ
      1       C    6   -2.4526   -0.0000    0.0000   -2.4526   -0.0000   -3.6193
      2       H    1   -0.2970   -0.0000    0.0000   -0.2970    0.0000   -0.3025

  MBIS Octupoles: [e a0^3]
   Center  Symbol  Z      XXX       XXY       XXZ       XYY       XYZ       XZZ       YYY       YYZ       YZZ       ZZZ
      1       C    6   -0.0000    0.0000    0.5952    0.0000   -0.0000   -0.0000    0.0000    0.5952    0.0000    1.5092
      2       H    1   -0.0000   -0.0000    0.0034    0.0000    0.0000   -0.0000    0.0000    0.0034    0.0000    0.0183

  MBIS Radial Moments:
   Center  Symbol  Z      [a0^2]      [a0^3]      [a0^4]
      1       C    6    8.524505   18.000105   45.343314
      2       H    1    0.896413    1.281588    2.191628

  MBIS Valence Widths: [a0]
   Center  Symbol  Z     Width
      1       C    6    0.454176
      2       H    1    0.304010

*** tstop() called on Mac.lan at Sun Aug 10 18:26:48 2025
Module time:
	user time   =       2.35 seconds =       0.04 minutes
	system time =       1.98 seconds =       0.03 minutes
	total time  =          0 seconds =       0.00 minutes
Total time:
	user time   =      11.54 seconds =       0.19 minutes
	system time =       3.00 seconds =       0.05 minutes
	total time  =          1 seconds =       0.02 minutes

    Psi4 stopped on: Sunday, 10 August 2025 06:26PM
    Psi4 wall time for execution: 0:00:01.43

*** Psi4 exiting successfully. Buy a developer a beer!
