                               Psi4 1.9.1 release

  ==> Input File <==

--------------------------------------------------------------------------
molecule {
1 2
O           0.000000           0.000000           0.000000
C           0.000000           0.000000           1.624211
}

set {
basis              cc-pvtz
reference          uks
maxiter            500
DAMPING_PERCENTAGE 1
E_CONVERGENCE      1.0E-8
D_CONVERGENCE      1.0E-8
DIIS_MAX_VECS      400
MBIS_MAXITER       8000
guess              read
}

E, wfn = energy('b3lyp', restart_file='last_wfn', return_wfn=True)
properties('b3lyp','MBIS_CHARGES', wfn=wfn)
wfn.to_file('last_wfn')
--------------------------------------------------------------------------

    Molecular point group: c2v
  Charge       = 1
  Multiplicity = 2
  Basis Set: CC-PVTZ
    Blend: CC-PVTZ
  Basis Set: (CC-PVTZ AUX)
    Blend: CC-PVTZ-JKFIT
  @DF-UKS Final Energy:  -112.63617653319955
    Total Energy =                       -112.6361765331995457
 Dipole X            :          0.0000000            0.0000000            0.0000000
 Dipole Y            :          0.0000000            0.0000000            0.0000000
 Dipole Z            :          1.1626840           -0.0033453            1.1593386
 Magnitude           :                                                    1.1593386
    Molecular point group: c2v

    Geometry (in Angstrom), charge = 1, multiplicity = 2:

       Center              X                  Y                   Z               Mass
    ------------   -----------------  -----------------  -----------------  -----------------
         O            0.000000000000     0.000000000000    -0.696216875988    15.994914619570
         C            0.000000000000     0.000000000000     0.927994124012    12.000000000000

  Charge       = 1
  Multiplicity = 2
  Basis Set: CC-PVTZ
    Blend: CC-PVTZ
  Basis Set: (CC-PVTZ AUX)
    Blend: CC-PVTZ-JKFIT

    Orbital Energies [Eh]
    ---------------------

    Alpha Occupied:

       1A1   -19.672703     2A1   -10.850804     3A1    -1.393609
       4A1    -0.991320     5A1    -0.820209     1B1    -0.768013
       1B2    -0.768013

    Alpha Virtual:

       2B1    -0.518947     2B2    -0.518947     6A1    -0.379572
       7A1    -0.008866     3B2     0.019513     3B1     0.019513
       8A1     0.027039     9A1     0.246202     4B1     0.273427
       4B2     0.273427     1A2     0.326768    10A1     0.326768
       5B1     0.415303     5B2     0.415303    11A1     0.604729
      12A1     0.877731     2A2     1.102489    13A1     1.102489
       6B1     1.234454     6B2     1.234454    14A1     1.374110
       7B2     1.574982     7B1     1.574982    15A1     1.905214
       8B1     2.268930     8B2     2.268930     3A2     2.271464
      16A1     2.271465    17A1     2.389647     9B1     2.390269
       9B2     2.390269    18A1     2.504886     4A2     2.504888
      10B1     2.651052    10B2     2.651052    19A1     2.731885
      11B2     3.247897    11B1     3.247897    20A1     3.277994
      21A1     4.227036    12B1     4.703968    12B2     4.703968
      22A1     4.717884     5A2     4.717886    13B2     4.915019
      13B1     4.915019    23A1     5.240010     6A2     5.742496
      24A1     5.742541    14B1     6.001166    14B2     6.001166
      25A1     6.533223    26A1     7.766794

    Beta Occupied:

       1A1   -19.640842     2A1   -10.851969     3A1    -1.314660
       4A1    -0.955532     1B1    -0.713784     1B2    -0.713784

    Beta Virtual:

       5A1    -0.643059     2B1    -0.529513     2B2    -0.529513
       6A1    -0.317629     7A1     0.002585     3B2     0.010089
       3B1     0.010089     8A1     0.040111     9A1     0.275165
       4B1     0.295606     4B2     0.295606     1A2     0.306111
      10A1     0.306111     5B1     0.430325     5B2     0.430325
      11A1     0.634244    12A1     0.913232     2A2     1.133480
      13A1     1.133480     6B1     1.270632     6B2     1.270632
      14A1     1.419247     7B2     1.558620     7B1     1.558620
      15A1     1.934026     8B1     2.235738     8B2     2.235738
      16A1     2.263538     3A2     2.263538     9B1     2.389773
       9B2     2.389773    17A1     2.428557    18A1     2.467854
       4A2     2.467856    10B1     2.688186    10B2     2.688186
      19A1     2.786335    11B2     3.296730    11B1     3.296730
      20A1     3.310581    21A1     4.275661    12B1     4.744714
      12B2     4.744714    22A1     4.772169     5A2     4.772170
      13B2     4.978925    13B1     4.978925    23A1     5.317779
       6A2     5.807572    24A1     5.807618    14B1     6.093048
      14B2     6.093048    25A1     6.626449    26A1     7.813739

    Final Occupation by Irrep:
             A1    A2    B1    B2
    DOCC [     4,    0,    1,    1 ]
    SOCC [     1,    0,    0,    0 ]
    NA   [     5,    0,    1,    1 ]
    NB   [     4,    0,    1,    1 ]

  @DF-UKS Final Energy:  -112.63617654124553

   => Energetics <=

    Nuclear Repulsion Energy =             15.6386738620536363
    One-Electron Energy =                -179.3847232682512072
    Two-Electron Energy =                  61.8110811233063657
    DFT Exchange-Correlation Energy =     -10.7012082583543204
    Empirical Dispersion Energy =           0.0000000000000000
    VV10 Nonlocal Energy =                  0.0000000000000000
    Total Energy =                       -112.6361765412455327

  UHF NO Occupations:
  HONO-2 :    1 B2 1.9438365
  HONO-1 :    1 B1 1.9438365
  HONO-0 :    5 A1 1.0000000
  LUNO+0 :    2 B1 0.0561635
  LUNO+1 :    2 B2 0.0561635
  LUNO+2 :    6 A1 0.0113612
  LUNO+3 :    7 A1 0.0002503

Computation Completed

Properties will be evaluated at   0.000000,   0.000000,   0.000000 [a0]

Properties computed using the B3LYP density matrix

 Multipole Moments:

 ------------------------------------------------------------------------------------
     Multipole            Electronic (a.u.)      Nuclear  (a.u.)        Total (a.u.)
 ------------------------------------------------------------------------------------

 L = 1.  Multiply by 2.5417464519 to convert [e a0] to [Debye]
 Dipole X            :          0.0000000            0.0000000            0.0000000
 Dipole Y            :          0.0000000            0.0000000            0.0000000
 Dipole Z            :          1.1626824           -0.0033453            1.1593371
 Magnitude           :                                                    1.1593371

 L = 2.  Multiply by 1.3450342976 to convert [e a0^2] to [Debye ang]
 Quadrupole XX       :         -6.6728695            0.0000000           -6.6728695
 Quadrupole XY       :          0.0000000            0.0000000            0.0000000
 Quadrupole XZ       :          0.0000000            0.0000000            0.0000000
 Quadrupole YY       :         -6.6728695            0.0000000           -6.6728695
 Quadrupole YZ       :          0.0000000            0.0000000            0.0000000
 Quadrupole ZZ       :        -34.5665641           32.2995031           -2.2670609
 Traceless XX        :          9.2978982          -10.7665010           -1.4686029
 Traceless YY        :          9.2978982          -10.7665010           -1.4686029
 Traceless ZZ        :        -18.5957964           21.5330021            2.9372057

 ------------------------------------------------------------------------------------
  ==> Computing MBIS Charges <==

  Electron Count from Grid (Expected Number): 13.00000 (13.00000)
  Difference: -0.00000

  MBIS Charges: (a.u.)
   Center  Symbol  Z      Pop.       Charge
      1       O    8    7.869752    0.130248
      2       C    6    5.130247    0.869753

  MBIS Dipoles: [e a0]
   Center  Symbol  Z        X           Y           Z
      1       O    8   -0.000000   -0.000000   -0.335304
      2       C    6   -0.000000    0.000000    0.140756

  MBIS Quadrupoles: [e a0^2]
   Center  Symbol  Z      XX        XY        XZ        YY        YZ        ZZ
      1       O    8   -3.6704   -0.0000   -0.0000   -3.6704    0.0000   -3.4273
      2       C    6   -3.0025    0.0000    0.0000   -3.0025    0.0000   -3.1159

  MBIS Octupoles: [e a0^3]
   Center  Symbol  Z      XXX       XXY       XXZ       XYY       XYZ       XZZ       YYY       YYZ       YZZ       ZZZ
      1       O    8   -0.0000    0.0000   -0.3157   -0.0000    0.0000   -0.0000    0.0000   -0.3157   -0.0000   -1.0077
      2       C    6   -0.0000   -0.0000    0.3494    0.0000    0.0000   -0.0000    0.0000    0.3494    0.0000    0.7365

  MBIS Radial Moments:
   Center  Symbol  Z      [a0^2]      [a0^3]      [a0^4]
      1       O    8   10.768029   19.858418   43.822849
      2       C    6    9.120944   20.035990   52.398798

  MBIS Valence Widths: [a0]
   Center  Symbol  Z     Width
      1       O    8    0.381239
      2       C    6    0.473701

*** tstop() called on Mac.lan at Sun Aug 10 18:39:14 2025
Module time:
	user time   =       5.49 seconds =       0.09 minutes
	system time =       1.85 seconds =       0.03 minutes
	total time  =          1 seconds =       0.02 minutes
Total time:
	user time   =      28.73 seconds =       0.48 minutes
	system time =       3.81 seconds =       0.06 minutes
	total time  =          3 seconds =       0.05 minutes

    Psi4 stopped on: Sunday, 10 August 2025 06:39PM
    Psi4 wall time for execution: 0:00:03.28

*** Psi4 exiting successfully. Buy a developer a beer!
