                               Psi4 1.9.1 release

  ==> Input File <==

--------------------------------------------------------------------------
molecule {
1 2
O           0.000000           0.000000           0.000000
C           0.000000           0.000000           1.012584
}

set {
basis              cc-pvtz
reference          uks
maxiter            500
DAMPING_PERCENTAGE 1
E_CONVERGENCE      1.0E-8
D_CONVERGENCE      1.0E-8
DIIS_MAX_VECS      400
MBIS_MAXITER       8000
guess              read
}

E, wfn = energy('b3lyp', restart_file='last_wfn', return_wfn=True)
properties('b3lyp','MBIS_CHARGES', wfn=wfn)
wfn.to_file('last_wfn')
--------------------------------------------------------------------------

    Molecular point group: c2v
  Charge       = 1
  Multiplicity = 2
  Basis Set: CC-PVTZ
    Blend: CC-PVTZ
  Basis Set: (CC-PVTZ AUX)
    Blend: CC-PVTZ-JKFIT
  @DF-UKS Final Energy:  -112.80777178729946
    Total Energy =                       -112.8077717872994583
 Dipole X            :          0.0000000            0.0000000            0.0000000
 Dipole Y            :          0.0000000            0.0000000            0.0000000
 Dipole Z            :          1.0137429           -0.0020856            1.0116573
 Magnitude           :                                                    1.0116573
    Molecular point group: c2v

    Geometry (in Angstrom), charge = 1, multiplicity = 2:

       Center              X                  Y                   Z               Mass
    ------------   -----------------  -----------------  -----------------  -----------------
         O            0.000000000000     0.000000000000    -0.434043402708    15.994914619570
         C            0.000000000000     0.000000000000     0.578540597292    12.000000000000

  Charge       = 1
  Multiplicity = 2
  Basis Set: CC-PVTZ
    Blend: CC-PVTZ
  Basis Set: (CC-PVTZ AUX)
    Blend: CC-PVTZ-JKFIT

    Orbital Energies [Eh]
    ---------------------

    Alpha Occupied:

       1A1   -19.640369     2A1   -10.768189     3A1    -1.634837
       4A1    -0.953440     1B2    -0.910029     1B1    -0.910029
       5A1    -0.871713

    Alpha Virtual:

       2B1    -0.388079     2B2    -0.388079     6A1    -0.111163
       7A1    -0.023413     3B2    -0.015953     3B1    -0.015953
       8A1     0.235207     9A1     0.273495     1A2     0.273495
       4B1     0.329033     4B2     0.329033    10A1     0.350412
       5B1     0.527320     5B2     0.527320    11A1     0.826220
      12A1     1.076440     2A2     1.181977    13A1     1.181977
      14A1     1.491175     6B1     1.501776     6B2     1.501776
       7B1     1.612610     7B2     1.612610    15A1     2.168263
       8B2     2.213602     8B1     2.213602    16A1     2.436871
       3A2     2.436871     9B1     2.495513     9B2     2.495513
       4A2     2.500778    17A1     2.500778    18A1     2.632611
      10B1     2.941732    10B2     2.941732    19A1     3.088746
      11B2     3.787593    11B1     3.787593    20A1     4.436434
      12B2     4.728308    12B1     4.728308     5A2     5.275518
      21A1     5.275519    22A1     5.788278     6A2     5.871209
      23A1     5.871215    13B2     6.133504    13B1     6.133504
      14B2     6.352760    14B1     6.352760    24A1     6.489271
      25A1     7.270372    26A1    13.474767

    Beta Occupied:

       1A1   -19.641223     2A1   -10.742876     3A1    -1.627510
       4A1    -0.934096     1B2    -0.903665     1B1    -0.903665

    Beta Virtual:

       5A1    -0.641070     2B1    -0.344777     2B2    -0.344777
       6A1    -0.097080     3B2    -0.005061     3B1    -0.005061
       7A1     0.017955     8A1     0.256390     1A2     0.293818
       9A1     0.293818     4B1     0.327802     4B2     0.327802
      10A1     0.391463     5B1     0.563915     5B2     0.563915
      11A1     0.828506    12A1     1.121077     2A2     1.183106
      13A1     1.183106     6B1     1.528070     6B2     1.528070
      14A1     1.545356     7B1     1.624776     7B2     1.624776
      15A1     2.215516     8B2     2.249104     8B1     2.249104
      16A1     2.468206     3A2     2.468206     4A2     2.569416
      17A1     2.569417     9B1     2.604094     9B2     2.604094
      18A1     2.713009    10B1     2.962792    10B2     2.962792
      19A1     3.159114    11B2     3.802160    11B1     3.802160
      20A1     4.459318    12B2     4.720619    12B1     4.720619
       5A2     5.277576    21A1     5.277577    22A1     5.806962
       6A2     5.861048    23A1     5.861054    13B2     6.140510
      13B1     6.140510    14B2     6.367559    14B1     6.367559
      24A1     6.497997    25A1     7.282004    26A1    13.502024

    Final Occupation by Irrep:
             A1    A2    B1    B2
    DOCC [     4,    0,    1,    1 ]
    SOCC [     1,    0,    0,    0 ]
    NA   [     5,    0,    1,    1 ]
    NB   [     4,    0,    1,    1 ]

  @DF-UKS Final Energy:  -112.80777178794207

   => Energetics <=

    Nuclear Repulsion Energy =             25.0848385044203752
    One-Electron Energy =                -197.3954340938260827
    Two-Electron Energy =                  70.5569920529539587
    DFT Exchange-Correlation Energy =     -11.0541682514903403
    Empirical Dispersion Energy =           0.0000000000000000
    VV10 Nonlocal Energy =                  0.0000000000000000
    Total Energy =                       -112.8077717879420732

  UHF NO Occupations:
  HONO-2 :    1 B1 1.9976605
  HONO-1 :    1 B2 1.9976605
  HONO-0 :    5 A1 1.0000000
  LUNO+0 :    2 B1 0.0023395
  LUNO+1 :    2 B2 0.0023395
  LUNO+2 :    6 A1 0.0001001
  LUNO+3 :    7 A1 0.0000140

Computation Completed

Properties will be evaluated at   0.000000,   0.000000,   0.000000 [a0]

Properties computed using the B3LYP density matrix

 Multipole Moments:

 ------------------------------------------------------------------------------------
     Multipole            Electronic (a.u.)      Nuclear  (a.u.)        Total (a.u.)
 ------------------------------------------------------------------------------------

 L = 1.  Multiply by 2.5417464519 to convert [e a0] to [Debye]
 Dipole X            :          0.0000000            0.0000000            0.0000000
 Dipole Y            :          0.0000000            0.0000000            0.0000000
 Dipole Z            :          1.0137429           -0.0020856            1.0116573
 Magnitude           :                                                    1.0116573

 L = 2.  Multiply by 1.3450342976 to convert [e a0^2] to [Debye ang]
 Quadrupole XX       :         -5.7074853            0.0000000           -5.7074853
 Quadrupole XY       :          0.0000000            0.0000000            0.0000000
 Quadrupole XZ       :          0.0000000            0.0000000            0.0000000
 Quadrupole YY       :         -5.7074853            0.0000000           -5.7074853
 Quadrupole YZ       :          0.0000000            0.0000000            0.0000000
 Quadrupole ZZ       :        -16.8342542           12.5537382           -4.2805160
 Traceless XX        :          3.7089230           -4.1845794           -0.4756564
 Traceless YY        :          3.7089230           -4.1845794           -0.4756564
 Traceless ZZ        :         -7.4178460            8.3691588            0.9513129

 ------------------------------------------------------------------------------------
  ==> Computing MBIS Charges <==

  Electron Count from Grid (Expected Number): 13.00000 (13.00000)
  Difference:  0.00000

  MBIS Charges: (a.u.)
   Center  Symbol  Z      Pop.       Charge
      1       O    8    8.037042   -0.037042
      2       C    6    4.962959    1.037041

  MBIS Dipoles: [e a0]
   Center  Symbol  Z        X           Y           Z
      1       O    8    0.000000   -0.000000   -0.257364
      2       C    6   -0.000000    0.000000    0.104859

  MBIS Quadrupoles: [e a0^2]
   Center  Symbol  Z      XX        XY        XZ        YY        YZ        ZZ
      1       O    8   -3.3243   -0.0000    0.0000   -3.3243   -0.0000   -3.5590
      2       C    6   -2.3831    0.0000    0.0000   -2.3831    0.0000   -2.5876

  MBIS Octupoles: [e a0^3]
   Center  Symbol  Z      XXX       XXY       XXZ       XYY       XYZ       XZZ       YYY       YYZ       YZZ       ZZZ
      1       O    8   -0.0000    0.0000   -0.2013   -0.0000    0.0000   -0.0000    0.0000   -0.2013    0.0000   -0.3936
      2       C    6   -0.0000    0.0000    0.0790   -0.0000    0.0000    0.0000    0.0000    0.0790    0.0000    0.0044

  MBIS Radial Moments:
   Center  Symbol  Z      [a0^2]      [a0^3]      [a0^4]
      1       O    8   10.207697   17.816814   37.162916
      2       C    6    7.353886   14.834022   35.711371

  MBIS Valence Widths: [a0]
   Center  Symbol  Z     Width
      1       O    8    0.366354
      2       C    6    0.431882

*** tstop() called on Mac.lan at Sun Aug 10 18:36:34 2025
Module time:
	user time   =      31.23 seconds =       0.52 minutes
	system time =       2.18 seconds =       0.04 minutes
	total time  =          3 seconds =       0.05 minutes
Total time:
	user time   =      56.24 seconds =       0.94 minutes
	system time =       4.40 seconds =       0.07 minutes
	total time  =          6 seconds =       0.10 minutes

    Psi4 stopped on: Sunday, 10 August 2025 06:36PM
    Psi4 wall time for execution: 0:00:06.31

*** Psi4 exiting successfully. Buy a developer a beer!
