                               Psi4 1.9.1 release

  ==> Input File <==

--------------------------------------------------------------------------
molecule {
1 3
O           0.000000           0.000000           0.000000
H           0.000000           0.000000           0.832780
}

set {
basis              cc-pvtz
reference          uks
maxiter            500
DAMPING_PERCENTAGE 1
E_CONVERGENCE      1.0E-8
D_CONVERGENCE      1.0E-8
DIIS_MAX_VECS      400
MBIS_MAXITER       8000
guess              read
}

E, wfn = energy('b3lyp', restart_file='last_wfn', return_wfn=True)
properties('b3lyp','MBIS_CHARGES', wfn=wfn)
wfn.to_file('last_wfn')
--------------------------------------------------------------------------

    Molecular point group: c2v
  Charge       = 1
  Multiplicity = 3
  Basis Set: CC-PVTZ
    Blend: CC-PVTZ
  Basis Set: (CC-PVTZ AUX)
    Blend: CC-PVTZ-JKFIT
  @DF-UKS Final Energy:   -75.23944444226224
    Total Energy =                        -75.2394444422622399
 Dipole X            :          0.0000000            0.0000000            0.0000000
 Dipole Y            :          0.0000000            0.0000000            0.0000000
 Dipole Z            :         -0.0084509            0.7341929            0.7257420
 Magnitude           :                                                    0.7257420
    Molecular point group: c2v

    Geometry (in Angstrom), charge = 1, multiplicity = 3:

       Center              X                  Y                   Z               Mass
    ------------   -----------------  -----------------  -----------------  -----------------
         O            0.000000000000     0.000000000000    -0.049362429087    15.994914619570
         H            0.000000000000     0.000000000000     0.783417570913     1.007825032230

  Charge       = 1
  Multiplicity = 3
  Basis Set: CC-PVTZ
    Blend: CC-PVTZ
  Basis Set: (CC-PVTZ AUX)
    Blend: CC-PVTZ-JKFIT

    Orbital Energies [Eh]
    ---------------------

    Alpha Occupied:

       1A1   -19.833482     2A1    -1.646240     3A1    -1.037609
       1B2    -0.977893     1B1    -0.977893

    Alpha Virtual:

       4A1    -0.257549     5A1     0.069026     2B2     0.134319
       2B1     0.134319     6A1     0.146158     3B2     0.330265
       3B1     0.330265     7A1     0.434661     1A2     0.902500
       8A1     0.902500     9A1     1.016972     4B1     1.337480
       4B2     1.337480    10A1     1.400917    11A1     2.078077
       2A2     2.787509    12A1     2.787509     5B2     2.867395
       5B1     2.867395     6B2     3.110600     6B1     3.110600
      13A1     3.368953     7B2     3.726201     7B1     3.726201
      14A1     3.967677     8B1     4.475343     8B2     4.475343
      15A1     4.488581     3A2     4.974015    16A1     4.974015
      17A1     5.502182     4A2     5.502182     9B1     5.747988
       9B2     5.747988    18A1     6.247065    10B1     6.584596
      10B2     6.584596    19A1     6.706814    20A1    11.031760

    Beta Occupied:

       1A1   -19.777583     2A1    -1.502131     3A1    -0.975797

    Beta Virtual:

       1B2    -0.673383     1B1    -0.673383     4A1    -0.243801
       5A1     0.085129     6A1     0.157771     2B2     0.203515
       2B1     0.203515     3B2     0.347615     3B1     0.347615
       7A1     0.478584     8A1     1.014668     1A2     1.014668
       9A1     1.046336     4B1     1.389896     4B2     1.389896
      10A1     1.434269    11A1     2.094379     2A2     2.809712
      12A1     2.809713     5B2     2.947745     5B1     2.947745
       6B2     3.177411     6B1     3.177411    13A1     3.383326
       7B2     3.762775     7B1     3.762775    14A1     4.028757
      15A1     4.552423     8B1     4.627856     8B2     4.627856
      16A1     5.070795     3A2     5.070795    17A1     5.712983
       4A2     5.712984     9B1     5.846866     9B2     5.846866
      18A1     6.296694    10B1     6.650810    10B2     6.650810
      19A1     6.752169    20A1    11.098061

    Final Occupation by Irrep:
             A1    A2    B1    B2
    DOCC [     3,    0,    0,    0 ]
    SOCC [     0,    0,    1,    1 ]
    NA   [     3,    0,    1,    1 ]
    NB   [     3,    0,    0,    0 ]

  @DF-UKS Final Energy:   -75.23944444252091

   => Energetics <=

    Nuclear Repulsion Energy =              5.0834766509282172
    One-Electron Energy =                -108.9324912462341786
    Two-Electron Energy =                  35.5469159926820026
    DFT Exchange-Correlation Energy =      -6.9373458398969445
    Empirical Dispersion Energy =           0.0000000000000000
    VV10 Nonlocal Energy =                  0.0000000000000000
    Total Energy =                        -75.2394444425209059

  UHF NO Occupations:
  HONO-2 :    3 A1 1.9986095
  HONO-1 :    1 B1 1.0000000
  HONO-0 :    1 B2 1.0000000
  LUNO+0 :    4 A1 0.0013905
  LUNO+1 :    5 A1 0.0003863
  LUNO+2 :    6 A1 0.0000015
  LUNO+3 :    7 A1 0.0000000

Computation Completed

Properties will be evaluated at   0.000000,   0.000000,   0.000000 [a0]

Properties computed using the B3LYP density matrix

 Multipole Moments:

 ------------------------------------------------------------------------------------
     Multipole            Electronic (a.u.)      Nuclear  (a.u.)        Total (a.u.)
 ------------------------------------------------------------------------------------

 L = 1.  Multiply by 2.5417464519 to convert [e a0] to [Debye]
 Dipole X            :          0.0000000            0.0000000            0.0000000
 Dipole Y            :          0.0000000            0.0000000            0.0000000
 Dipole Z            :         -0.0084509            0.7341929            0.7257420
 Magnitude           :                                                    0.7257420

 L = 2.  Multiply by 1.3450342976 to convert [e a0^2] to [Debye ang]
 Quadrupole XX       :         -2.9209617            0.0000000           -2.9209617
 Quadrupole XY       :          0.0000000            0.0000000            0.0000000
 Quadrupole XZ       :          0.0000000            0.0000000            0.0000000
 Quadrupole YY       :         -2.9209617            0.0000000           -2.9209617
 Quadrupole YZ       :          0.0000000            0.0000000            0.0000000
 Quadrupole ZZ       :         -4.4137220            2.2613278           -2.1523942
 Traceless XX        :          0.4975868           -0.7537759           -0.2561892
 Traceless YY        :          0.4975868           -0.7537759           -0.2561892
 Traceless ZZ        :         -0.9951735            1.5075519            0.5123784

 ------------------------------------------------------------------------------------
  ==> Computing MBIS Charges <==

  Electron Count from Grid (Expected Number):  8.00000 ( 8.00000)
  Difference: -0.00000

  MBIS Charges: (a.u.)
   Center  Symbol  Z      Pop.       Charge
      1       O    8    7.473302    0.526698
      2       H    1    0.526698    0.473302

  MBIS Dipoles: [e a0]
   Center  Symbol  Z        X           Y           Z
      1       O    8    0.000000    0.000000    0.036316
      2       H    1   -0.000000   -0.000000    0.037860

  MBIS Quadrupoles: [e a0^2]
   Center  Symbol  Z      XX        XY        XZ        YY        YZ        ZZ
      1       O    8   -2.7512   -0.0000   -0.0000   -2.7512   -0.0000   -3.1326
      2       H    1   -0.1698    0.0000   -0.0000   -0.1698   -0.0000   -0.1671

  MBIS Octupoles: [e a0^3]
   Center  Symbol  Z      XXX       XXY       XXZ       XYY       XYZ       XZZ       YYY       YYZ       YZZ       ZZZ
      1       O    8   -0.0000   -0.0000    0.0448   -0.0000    0.0000   -0.0000   -0.0000    0.0448   -0.0000    0.0721
      2       H    1   -0.0000   -0.0000    0.0041   -0.0000    0.0000   -0.0000   -0.0000    0.0041   -0.0000    0.0150

  MBIS Radial Moments:
   Center  Symbol  Z      [a0^2]      [a0^3]      [a0^4]
      1       O    8    8.634883   14.506732   29.233684
      2       H    1    0.506684    0.705455    1.179358

  MBIS Valence Widths: [a0]
   Center  Symbol  Z     Width
      1       O    8    0.352418
      2       H    1    0.286275

*** tstop() called on Mac.lan at Sun Aug 10 18:28:48 2025
Module time:
	user time   =       3.45 seconds =       0.06 minutes
	system time =       2.09 seconds =       0.03 minutes
	total time  =          0 seconds =       0.00 minutes
Total time:
	user time   =      11.61 seconds =       0.19 minutes
	system time =       4.32 seconds =       0.07 minutes
	total time  =          1 seconds =       0.02 minutes

    Psi4 stopped on: Sunday, 10 August 2025 06:28PM
    Psi4 wall time for execution: 0:00:01.55

*** Psi4 exiting successfully. Buy a developer a beer!
