                               Psi4 1.9.1 release

  ==> Input File <==

--------------------------------------------------------------------------
molecule {
1 2
N           0.000000           0.000000           0.000000
N           0.000000           0.000000           0.764323
}

set {
basis              cc-pvtz
reference          uks
maxiter            500
DAMPING_PERCENTAGE 1
E_CONVERGENCE      1.0E-8
D_CONVERGENCE      1.0E-8
DIIS_MAX_VECS      400
MBIS_MAXITER       8000
guess              read
}

E, wfn = energy('b3lyp', restart_file='last_wfn', return_wfn=True)
properties('b3lyp','MBIS_CHARGES', wfn=wfn)
wfn.to_file('last_wfn')
--------------------------------------------------------------------------

    Molecular point group: d2h
  Charge       = 1
  Multiplicity = 2
  Basis Set: CC-PVTZ
    Blend: CC-PVTZ
  Basis Set: (CC-PVTZ AUX)
    Blend: CC-PVTZ-JKFIT
  @DF-UKS Final Energy:  -108.24148211674904
    Total Energy =                       -108.2414821167490402
 Dipole X            :          0.0000000            0.0000000            0.0000000
 Dipole Y            :          0.0000000            0.0000000            0.0000000
 Dipole Z            :          0.0000000           -0.0000000           -0.0000000
 Magnitude           :                                                    0.0000000
    Molecular point group: d2h

    Geometry (in Angstrom), charge = 1, multiplicity = 2:

       Center              X                  Y                   Z               Mass
    ------------   -----------------  -----------------  -----------------  -----------------
         N            0.000000000000     0.000000000000    -0.382161500000    14.003074004430
         N            0.000000000000     0.000000000000     0.382161500000    14.003074004430

  Charge       = 1
  Multiplicity = 2
  Basis Set: CC-PVTZ
    Blend: CC-PVTZ
  Basis Set: (CC-PVTZ AUX)
    Blend: CC-PVTZ-JKFIT

    Orbital Energies [Eh]
    ---------------------

    Alpha Occupied:

       1Ag   -14.890814     1B1u  -14.844771     2Ag    -1.764190
       1B3u   -1.090314     1B2u   -1.090314     3Ag    -0.949432
       2B1u   -0.936520

    Alpha Virtual:

       1B3g   -0.245988     1B2g   -0.245988     2B2u    0.013899
       2B3u    0.013899     3B1u    0.018840     4Ag     0.066526
       5Ag     0.146063     2B3g    0.273396     2B2g    0.273396
       6Ag     0.440167     1B1g    0.440167     4B1u    0.513920
       3B3u    0.906879     3B2u    0.906879     5B1u    0.960694
       1Au     1.009332     6B1u    1.009332     7Ag     1.160837
       3B3g    1.333338     3B2g    1.333338     4B2u    2.124275
       4B3u    2.124275     7B1u    2.482450     8Ag     2.776467
       4B3g    2.994696     4B2g    2.994696     5B3u    3.034240
       5B2u    3.034240     8B1u    3.108416     9Ag     3.146040
       2B1g    3.146041     6B3u    3.519533     6B2u    3.519533
      10Ag     3.727778     2Au     3.906222     9B1u    3.906222
       5B3g    3.922987     5B2g    3.922987     6B3g    3.968757
       6B2g    3.968757    11Ag     4.033023     3B1g    4.033023
      12Ag     4.286848    10B1u    4.790691     7B2u    5.181988
       7B3u    5.181988    11B1u    5.495488     3Au     5.495489
      12B1u    7.062092     7B3g    7.349202     7B2g    7.349202
      13Ag     8.426385    13B1u   26.852509

    Beta Occupied:

       1Ag   -14.875257     1B1u  -14.830709     2Ag    -1.729725
       1B3u   -1.074898     1B2u   -1.074898     2B1u   -0.840763

    Beta Virtual:

       3Ag    -0.765396     1B3g   -0.219090     1B2g   -0.219090
       2B2u    0.018959     2B3u    0.018959     3B1u    0.031677
       4Ag     0.083989     5Ag     0.175338     2B3g    0.283174
       2B2g    0.283174     6Ag     0.447335     1B1g    0.447335
       4B1u    0.538536     3B3u    0.938349     3B2u    0.938349
       5B1u    0.989000     6B1u    1.023029     1Au     1.023029
       7Ag     1.197903     3B3g    1.352469     3B2g    1.352469
       4B2u    2.136105     4B3u    2.136105     7B1u    2.552251
       8Ag     2.806962     4B3g    3.008642     4B2g    3.008642
       5B3u    3.040649     5B2u    3.040649     8B1u    3.132088
       9Ag     3.151689     2B1g    3.151690     6B3u    3.574717
       6B2u    3.574717    10Ag     3.804821     9B1u    3.938682
       2Au     3.938682     5B3g    3.976876     5B2g    3.976876
       6B3g    3.981991     6B2g    3.981991    11Ag     4.065247
       3B1g    4.065247    12Ag     4.328388    10B1u    4.845102
       7B2u    5.222143     7B3u    5.222143    11B1u    5.511053
       3Au     5.511053    12B1u    7.120018     7B3g    7.389594
       7B2g    7.389594    13Ag     8.454992    13B1u   26.875664

    Final Occupation by Irrep:
             Ag   B1g   B2g   B3g    Au   B1u   B2u   B3u
    DOCC [     2,    0,    0,    0,    0,    2,    1,    1 ]
    SOCC [     1,    0,    0,    0,    0,    0,    0,    0 ]
    NA   [     3,    0,    0,    0,    0,    2,    1,    1 ]
    NB   [     2,    0,    0,    0,    0,    2,    1,    1 ]

  @DF-UKS Final Energy:  -108.24148211484662

   => Energetics <=

    Nuclear Repulsion Energy =             33.9250334254366308
    One-Electron Energy =                -206.2592951626281774
    Two-Electron Energy =                  75.3423137153737912
    DFT Exchange-Correlation Energy =     -11.2495340930288528
    Empirical Dispersion Energy =           0.0000000000000000
    VV10 Nonlocal Energy =                  0.0000000000000000
    Total Energy =                       -108.2414821148466189

  UHF NO Occupations:
  HONO-2 :    2 Ag 1.9999170
  HONO-1 :    2B1u 1.9991899
  HONO-0 :    3 Ag 1.0000000
  LUNO+0 :    3B1u 0.0008101
  LUNO+1 :    4 Ag 0.0000830
  LUNO+2 :    2B3u 0.0000455
  LUNO+3 :    2B2u 0.0000455

Computation Completed

Properties will be evaluated at   0.000000,   0.000000,   0.000000 [a0]

Properties computed using the B3LYP density matrix

 Multipole Moments:

 ------------------------------------------------------------------------------------
     Multipole            Electronic (a.u.)      Nuclear  (a.u.)        Total (a.u.)
 ------------------------------------------------------------------------------------

 L = 1.  Multiply by 2.5417464519 to convert [e a0] to [Debye]
 Dipole X            :          0.0000000            0.0000000            0.0000000
 Dipole Y            :          0.0000000            0.0000000            0.0000000
 Dipole Z            :          0.0000000           -0.0000000           -0.0000000
 Magnitude           :                                                    0.0000000

 L = 2.  Multiply by 1.3450342976 to convert [e a0^2] to [Debye ang]
 Quadrupole XX       :         -5.2826636            0.0000000           -5.2826636
 Quadrupole XY       :          0.0000000            0.0000000            0.0000000
 Quadrupole XZ       :          0.0000000            0.0000000            0.0000000
 Quadrupole YY       :         -5.2826636            0.0000000           -5.2826636
 Quadrupole YZ       :          0.0000000            0.0000000            0.0000000
 Quadrupole ZZ       :        -12.3572168            7.3016269           -5.0555899
 Traceless XX        :          2.3581844           -2.4338756           -0.0756912
 Traceless YY        :          2.3581844           -2.4338756           -0.0756912
 Traceless ZZ        :         -4.7163688            4.8677512            0.1513825

 ------------------------------------------------------------------------------------
  ==> Computing MBIS Charges <==

  Electron Count from Grid (Expected Number): 13.00000 (13.00000)
  Difference:  0.00000

  MBIS Charges: (a.u.)
   Center  Symbol  Z      Pop.       Charge
      1       N    7    6.500001    0.499999
      2       N    7    6.500001    0.499999

  MBIS Dipoles: [e a0]
   Center  Symbol  Z        X           Y           Z
      1       N    7   -0.000000    0.000000   -0.104454
      2       N    7    0.000000    0.000000    0.104454

  MBIS Quadrupoles: [e a0^2]
   Center  Symbol  Z      XX        XY        XZ        YY        YZ        ZZ
      1       N    7   -2.6413    0.0000    0.0000   -2.6413   -0.0000   -2.9394
      2       N    7   -2.6413    0.0000   -0.0000   -2.6413    0.0000   -2.9394

  MBIS Octupoles: [e a0^3]
   Center  Symbol  Z      XXX       XXY       XXZ       XYY       XYZ       XZZ       YYY       YYZ       YZZ       ZZZ
      1       N    7    0.0000    0.0000    0.0071    0.0000    0.0000    0.0000   -0.0000    0.0071    0.0000    0.1427
      2       N    7    0.0000    0.0000   -0.0071    0.0000   -0.0000    0.0000    0.0000   -0.0071    0.0000   -0.1427

  MBIS Radial Moments:
   Center  Symbol  Z      [a0^2]      [a0^3]      [a0^4]
      1       N    7    8.222100   14.694365   31.520788
      2       N    7    8.222100   14.694365   31.520788

  MBIS Valence Widths: [a0]
   Center  Symbol  Z     Width
      1       N    7    0.374730
      2       N    7    0.374730

*** tstop() called on Mac.lan at Sun Aug 10 18:24:47 2025
Module time:
	user time   =       4.09 seconds =       0.07 minutes
	system time =       2.36 seconds =       0.04 minutes
	total time  =          1 seconds =       0.02 minutes
Total time:
	user time   =      14.32 seconds =       0.24 minutes
	system time =       4.83 seconds =       0.08 minutes
	total time  =          2 seconds =       0.03 minutes

    Psi4 stopped on: Sunday, 10 August 2025 06:24PM
    Psi4 wall time for execution: 0:00:01.88

*** Psi4 exiting successfully. Buy a developer a beer!
