                               Psi4 1.9.1 release

  ==> Input File <==

--------------------------------------------------------------------------
molecule {
1 2
N           0.000000           0.000000           0.000000
N           0.000000           0.000000           1.028116
}

set {
basis              cc-pvtz
reference          uks
maxiter            500
DAMPING_PERCENTAGE 1
E_CONVERGENCE      1.0E-8
D_CONVERGENCE      1.0E-8
DIIS_MAX_VECS      400
MBIS_MAXITER       8000
guess              read
}

E, wfn = energy('b3lyp', restart_file='last_wfn', return_wfn=True)
properties('b3lyp','MBIS_CHARGES', wfn=wfn)
wfn.to_file('last_wfn')
--------------------------------------------------------------------------

    Molecular point group: d2h
  Charge       = 1
  Multiplicity = 2
  Basis Set: CC-PVTZ
    Blend: CC-PVTZ
  Basis Set: (CC-PVTZ AUX)
    Blend: CC-PVTZ-JKFIT
  @DF-UKS Final Energy:  -108.96975698119620
    Total Energy =                       -108.9697569811961984
 Dipole X            :          0.0000000            0.0000000            0.0000000
 Dipole Y            :          0.0000000            0.0000000            0.0000000
 Dipole Z            :          0.0000000            0.0000000            0.0000000
 Magnitude           :                                                    0.0000000
    Molecular point group: d2h

    Geometry (in Angstrom), charge = 1, multiplicity = 2:

       Center              X                  Y                   Z               Mass
    ------------   -----------------  -----------------  -----------------  -----------------
         N            0.000000000000     0.000000000000    -0.514058000000    14.003074004430
         N            0.000000000000     0.000000000000     0.514058000000    14.003074004430

  Charge       = 1
  Multiplicity = 2
  Basis Set: CC-PVTZ
    Blend: CC-PVTZ
  Basis Set: (CC-PVTZ AUX)
    Blend: CC-PVTZ-JKFIT

    Orbital Energies [Eh]
    ---------------------

    Alpha Occupied:

       1Ag   -14.904762     1B1u  -14.901410     2Ag    -1.625773
       2B1u   -1.001145     1B3u   -0.920858     1B2u   -0.920858
       3Ag    -0.914778

    Alpha Virtual:

       1B3g   -0.413471     1B2g   -0.413471     3B1u    0.014548
       2B3u    0.065240     2B2u    0.065240     4Ag     0.095214
       5Ag     0.126541     2B3g    0.226685     2B2g    0.226685
       4B1u    0.344772     6Ag     0.458911     1B1g    0.458911
       5B1u    0.591642     3B3u    0.737151     3B2u    0.737151
       6B1u    0.920795     1Au     0.920795     7Ag     1.282078
       3B3g    1.317569     3B2g    1.317569     7B1u    1.636149
       4B3u    2.307121     4B2u    2.307121     8Ag     2.523578
       4B3g    2.724195     4B2g    2.724195     8B1u    2.890095
       2B1g    3.060681     9Ag     3.060681     5B2u    3.152543
       5B3u    3.152543     6B2u    3.198661     6B3u    3.198661
      10Ag     3.546859     5B3g    3.721081     5B2g    3.721081
       3B1g    3.916522    11Ag     3.916523     6B3g    3.943444
       6B2g    3.943444     2Au     4.050162     9B1u    4.050163
      10B1u    4.346807    12Ag     4.562205     7B2u    4.631783
       7B3u    4.631783    11B1u    4.638513     3Au     4.638513
      12B1u    5.437594     7B3g    6.259212     7B2g    6.259212
      13Ag     6.501283    13B1u   18.056312

    Beta Occupied:

       1Ag   -14.891187     1B1u  -14.888196     2Ag    -1.595887
       1B3u   -0.907422     1B2u   -0.907422     2B1u   -0.907276

    Beta Virtual:

       3Ag    -0.734656     1B3g   -0.388795     1B2g   -0.388795
       3B1u    0.025285     2B3u    0.069445     2B2u    0.069445
       4Ag     0.111615     5Ag     0.155257     2B3g    0.232754
       2B2g    0.232754     4B1u    0.399149     1B1g    0.463337
       6Ag     0.463337     5B1u    0.602100     3B3u    0.769423
       3B2u    0.769423     1Au     0.932132     6B1u    0.932132
       7Ag     1.321929     3B3g    1.342487     3B2g    1.342487
       7B1u    1.676620     4B3u    2.317437     4B2u    2.317437
       8Ag     2.557447     4B3g    2.734003     4B2g    2.734003
       8B1u    2.939602     2B1g    3.076032     9Ag     3.076032
       5B2u    3.158490     5B3u    3.158490     6B2u    3.234891
       6B3u    3.234891    10Ag     3.624804     5B3g    3.729620
       5B2g    3.729620     3B1g    3.936761    11Ag     3.936762
       6B3g    4.005996     6B2g    4.005996     2Au     4.068725
       9B1u    4.068726    10B1u    4.396613    12Ag     4.601040
      11B1u    4.660721     3Au     4.660721     7B2u    4.685467
       7B3u    4.685467    12B1u    5.499377     7B3g    6.293046
       7B2g    6.293046    13Ag     6.533310    13B1u   18.075630

    Final Occupation by Irrep:
             Ag   B1g   B2g   B3g    Au   B1u   B2u   B3u
    DOCC [     2,    0,    0,    0,    0,    2,    1,    1 ]
    SOCC [     1,    0,    0,    0,    0,    0,    0,    0 ]
    NA   [     3,    0,    0,    0,    0,    2,    1,    1 ]
    NB   [     2,    0,    0,    0,    0,    2,    1,    1 ]

  @DF-UKS Final Energy:  -108.96975698125388

   => Energetics <=

    Nuclear Repulsion Energy =             25.2205814546510325
    One-Electron Energy =                -191.3101581564300773
    Two-Electron Energy =                  67.9375653541789433
    DFT Exchange-Correlation Energy =     -10.8177456336537858
    Empirical Dispersion Energy =           0.0000000000000000
    VV10 Nonlocal Energy =                  0.0000000000000000
    Total Energy =                       -108.9697569812538802

  UHF NO Occupations:
  HONO-2 :    2 Ag 1.9999043
  HONO-1 :    2B1u 1.9986827
  HONO-0 :    3 Ag 1.0000000
  LUNO+0 :    3B1u 0.0013173
  LUNO+1 :    4 Ag 0.0000957
  LUNO+2 :    2B3u 0.0000826
  LUNO+3 :    2B2u 0.0000826

Computation Completed

Properties will be evaluated at   0.000000,   0.000000,   0.000000 [a0]

Properties computed using the B3LYP density matrix

 Multipole Moments:

 ------------------------------------------------------------------------------------
     Multipole            Electronic (a.u.)      Nuclear  (a.u.)        Total (a.u.)
 ------------------------------------------------------------------------------------

 L = 1.  Multiply by 2.5417464519 to convert [e a0] to [Debye]
 Dipole X            :          0.0000000            0.0000000            0.0000000
 Dipole Y            :          0.0000000            0.0000000            0.0000000
 Dipole Z            :          0.0000000            0.0000000            0.0000000
 Magnitude           :                                                    0.0000000

 L = 2.  Multiply by 1.3450342976 to convert [e a0^2] to [Debye ang]
 Quadrupole XX       :         -5.9923484            0.0000000           -5.9923484
 Quadrupole XY       :          0.0000000            0.0000000            0.0000000
 Quadrupole XZ       :          0.0000000            0.0000000            0.0000000
 Quadrupole YY       :         -5.9923484            0.0000000           -5.9923484
 Quadrupole YZ       :          0.0000000            0.0000000            0.0000000
 Quadrupole ZZ       :        -17.7906038           13.2114357           -4.5791681
 Traceless XX        :          3.9327518           -4.4038119           -0.4710601
 Traceless YY        :          3.9327518           -4.4038119           -0.4710601
 Traceless ZZ        :         -7.8655036            8.8076238            0.9421202

 ------------------------------------------------------------------------------------
  ==> Computing MBIS Charges <==

  Electron Count from Grid (Expected Number): 13.00000 (13.00000)
  Difference: -0.00000

  MBIS Charges: (a.u.)
   Center  Symbol  Z      Pop.       Charge
      1       N    7    6.500000    0.500000
      2       N    7    6.500000    0.500000

  MBIS Dipoles: [e a0]
   Center  Symbol  Z        X           Y           Z
      1       N    7   -0.000000    0.000000   -0.203397
      2       N    7    0.000000   -0.000000    0.203397

  MBIS Quadrupoles: [e a0^2]
   Center  Symbol  Z      XX        XY        XZ        YY        YZ        ZZ
      1       N    7   -2.9962    0.0000   -0.0000   -2.9962   -0.0000   -3.1566
      2       N    7   -2.9962    0.0000    0.0000   -2.9962   -0.0000   -3.1566

  MBIS Octupoles: [e a0^3]
   Center  Symbol  Z      XXX       XXY       XXZ       XYY       XYZ       XZZ       YYY       YYZ       YZZ       ZZZ
      1       N    7   -0.0000   -0.0000   -0.1572   -0.0000    0.0000    0.0000   -0.0000   -0.1572   -0.0000   -0.3329
      2       N    7   -0.0000   -0.0000    0.1572   -0.0000   -0.0000    0.0000   -0.0000    0.1572   -0.0000    0.3329

  MBIS Radial Moments:
   Center  Symbol  Z      [a0^2]      [a0^3]      [a0^4]
      1       N    7    9.148941   17.146661   38.350146
      2       N    7    9.148941   17.146661   38.350146

  MBIS Valence Widths: [a0]
   Center  Symbol  Z     Width
      1       N    7    0.398352
      2       N    7    0.398352

*** tstop() called on Mac.lan at Sun Aug 10 18:24:13 2025
Module time:
	user time   =       3.68 seconds =       0.06 minutes
	system time =       2.59 seconds =       0.04 minutes
	total time  =          0 seconds =       0.00 minutes
Total time:
	user time   =      17.04 seconds =       0.28 minutes
	system time =       5.28 seconds =       0.09 minutes
	total time  =          2 seconds =       0.03 minutes

    Psi4 stopped on: Sunday, 10 August 2025 06:24PM
    Psi4 wall time for execution: 0:00:02.23

*** Psi4 exiting successfully. Buy a developer a beer!
