                               Psi4 1.9.1 release

  ==> Input File <==

--------------------------------------------------------------------------
molecule {
1 2
N           0.000000           0.000000           0.000000
N           0.000000           0.000000           1.190450
}

set {
basis              cc-pvtz
reference          uks
maxiter            500
DAMPING_PERCENTAGE 1
E_CONVERGENCE      1.0E-8
D_CONVERGENCE      1.0E-8
DIIS_MAX_VECS      400
MBIS_MAXITER       8000
guess              read
}

E, wfn = energy('b3lyp', restart_file='last_wfn', return_wfn=True)
properties('b3lyp','MBIS_CHARGES', wfn=wfn)
wfn.to_file('last_wfn')
--------------------------------------------------------------------------

    Molecular point group: d2h
  Charge       = 1
  Multiplicity = 2
  Basis Set: CC-PVTZ
    Blend: CC-PVTZ
  Basis Set: (CC-PVTZ AUX)
    Blend: CC-PVTZ-JKFIT
  @DF-UKS Final Energy:  -108.97278486351442
    Total Energy =                       -108.9727848635144198
 Dipole X            :          0.0000000            0.0000000            0.0000000
 Dipole Y            :          0.0000000            0.0000000            0.0000000
 Dipole Z            :          0.0000000           -0.0000000           -0.0000000
 Magnitude           :                                                    0.0000000
    Molecular point group: d2h

    Geometry (in Angstrom), charge = 1, multiplicity = 2:

       Center              X                  Y                   Z               Mass
    ------------   -----------------  -----------------  -----------------  -----------------
         N            0.000000000000     0.000000000000    -0.595225000000    14.003074004430
         N            0.000000000000     0.000000000000     0.595225000000    14.003074004430

  Charge       = 1
  Multiplicity = 2
  Basis Set: CC-PVTZ
    Blend: CC-PVTZ
  Basis Set: (CC-PVTZ AUX)
    Blend: CC-PVTZ-JKFIT

    Orbital Energies [Eh]
    ---------------------

    Alpha Occupied:

       1Ag   -14.933159     1B1u  -14.932277     2Ag    -1.515204
       2B1u   -1.032602     3Ag    -0.898688     1B2u   -0.854514
       1B3u   -0.854514

    Alpha Virtual:

       1B3g   -0.482555     1B2g   -0.482555     3B1u   -0.040871
       2B2u    0.087911     2B3u    0.087911     4Ag     0.112402
       5Ag     0.130023     4B1u    0.148217     2B3g    0.214950
       2B2g    0.214950     1B1g    0.481259     6Ag     0.481259
       5B1u    0.534149     3B3u    0.643545     3B2u    0.643545
       1Au     0.870118     6B1u    0.870118     7Ag     1.287116
       3B3g    1.289334     3B2g    1.289334     7B1u    1.370137
       4B2u    2.315060     4B3u    2.315060     8Ag     2.438022
       4B3g    2.590959     4B2g    2.590959     8B1u    3.016474
       2B1g    3.026867     9Ag     3.026868     5B2u    3.103991
       5B3u    3.103991     6B2u    3.248483     6B3u    3.248483
      10Ag     3.374948     5B3g    3.611244     5B2g    3.611244
       3B1g    3.905170    11Ag     3.905174     9B1u    3.959012
       2Au     4.020893    10B1u    4.020896     6B3g    4.092160
       6B2g    4.092160     3Au     4.313057    11B1u    4.313058
       7B3u    4.405372     7B2u    4.405372    12Ag     4.836072
      12B1u    4.942405    13Ag     5.462885     7B3g    5.588700
       7B2g    5.588700    13B1u   12.548486

    Beta Occupied:

       1Ag   -14.920079     1B1u  -14.919398     2Ag    -1.485151
       2B1u   -0.944762     1B2u   -0.841860     1B3u   -0.841860

    Beta Virtual:

       3Ag    -0.717780     1B3g   -0.461001     1B2g   -0.461001
       3B1u   -0.023673     2B2u    0.091828     2B3u    0.091828
       4Ag     0.131849     5Ag     0.154452     4B1u    0.209727
       2B3g    0.220042     2B2g    0.220042     1B1g    0.484585
       6Ag     0.484585     5B1u    0.541779     3B3u    0.674938
       3B2u    0.674938     1Au     0.878908     6B1u    0.878908
       3B3g    1.316940     3B2g    1.316940     7Ag     1.327588
       7B1u    1.408847     4B2u    2.326608     4B3u    2.326608
       8Ag     2.479531     4B3g    2.599706     4B2g    2.599706
       2B1g    3.048679     9Ag     3.048679     8B1u    3.066476
       5B2u    3.135398     5B3u    3.135398     6B2u    3.253466
       6B3u    3.253466    10Ag     3.443467     5B3g    3.617076
       5B2g    3.617076     3B1g    3.918014    11Ag     3.918017
       9B1u    4.010805     2Au     4.026123    10B1u    4.026126
       6B3g    4.151913     6B2g    4.151913     3Au     4.343521
      11B1u    4.343523     7B3u    4.461533     7B2u    4.461533
      12Ag     4.865175    12B1u    5.005186    13Ag     5.514496
       7B3g    5.623357     7B2g    5.623357    13B1u   12.567804

    Final Occupation by Irrep:
             Ag   B1g   B2g   B3g    Au   B1u   B2u   B3u
    DOCC [     2,    0,    0,    0,    0,    2,    1,    1 ]
    SOCC [     1,    0,    0,    0,    0,    0,    0,    0 ]
    NA   [     3,    0,    0,    0,    0,    2,    1,    1 ]
    NB   [     2,    0,    0,    0,    0,    2,    1,    1 ]

  @DF-UKS Final Energy:  -108.97278486346752

   => Energetics <=

    Nuclear Repulsion Energy =             21.7814131822672081
    One-Electron Energy =                -184.8583858680102310
    Two-Electron Energy =                  64.7644863194992695
    DFT Exchange-Correlation Energy =     -10.6602984972237849
    Empirical Dispersion Energy =           0.0000000000000000
    VV10 Nonlocal Energy =                  0.0000000000000000
    Total Energy =                       -108.9727848634675240

  UHF NO Occupations:
  HONO-2 :    2 Ag 1.9998730
  HONO-1 :    2B1u 1.9978508
  HONO-0 :    3 Ag 1.0000000
  LUNO+0 :    3B1u 0.0021492
  LUNO+1 :    4 Ag 0.0001270
  LUNO+2 :    2B2u 0.0000996
  LUNO+3 :    2B3u 0.0000996

Computation Completed

Properties will be evaluated at   0.000000,   0.000000,   0.000000 [a0]

Properties computed using the B3LYP density matrix

 Multipole Moments:

 ------------------------------------------------------------------------------------
     Multipole            Electronic (a.u.)      Nuclear  (a.u.)        Total (a.u.)
 ------------------------------------------------------------------------------------

 L = 1.  Multiply by 2.5417464519 to convert [e a0] to [Debye]
 Dipole X            :          0.0000000            0.0000000            0.0000000
 Dipole Y            :          0.0000000            0.0000000            0.0000000
 Dipole Z            :          0.0000000           -0.0000000           -0.0000000
 Magnitude           :                                                    0.0000000

 L = 2.  Multiply by 1.3450342976 to convert [e a0^2] to [Debye ang]
 Quadrupole XX       :         -6.3457344            0.0000000           -6.3457344
 Quadrupole XY       :          0.0000000            0.0000000            0.0000000
 Quadrupole XZ       :          0.0000000            0.0000000            0.0000000
 Quadrupole YY       :         -6.3457344            0.0000000           -6.3457344
 Quadrupole YZ       :          0.0000000            0.0000000            0.0000000
 Quadrupole ZZ       :        -21.8322210           17.7128358           -4.1193851
 Traceless XX        :          5.1621622           -5.9042786           -0.7421164
 Traceless YY        :          5.1621622           -5.9042786           -0.7421164
 Traceless ZZ        :        -10.3243244           11.8085572            1.4842329

 ------------------------------------------------------------------------------------
  ==> Computing MBIS Charges <==

  Electron Count from Grid (Expected Number): 13.00000 (13.00000)
  Difference:  0.00000

  MBIS Charges: (a.u.)
   Center  Symbol  Z      Pop.       Charge
      1       N    7    6.500000    0.500000
      2       N    7    6.500000    0.500000

  MBIS Dipoles: [e a0]
   Center  Symbol  Z        X           Y           Z
      1       N    7    0.000000   -0.000000   -0.247388
      2       N    7   -0.000000    0.000000    0.247388

  MBIS Quadrupoles: [e a0^2]
   Center  Symbol  Z      XX        XY        XZ        YY        YZ        ZZ
      1       N    7   -3.1729    0.0000   -0.0000   -3.1729   -0.0000   -3.2488
      2       N    7   -3.1729    0.0000    0.0000   -3.1729    0.0000   -3.2488

  MBIS Octupoles: [e a0^3]
   Center  Symbol  Z      XXX       XXY       XXZ       XYY       XYZ       XZZ       YYY       YYZ       YZZ       ZZZ
      1       N    7   -0.0000   -0.0000   -0.2536   -0.0000    0.0000    0.0000   -0.0000   -0.2536   -0.0000   -0.6155
      2       N    7   -0.0000   -0.0000    0.2536   -0.0000   -0.0000    0.0000   -0.0000    0.2536    0.0000    0.6155

  MBIS Radial Moments:
   Center  Symbol  Z      [a0^2]      [a0^3]      [a0^4]
      1       N    7    9.594557   18.439694   42.240853
      2       N    7    9.594557   18.439694   42.240853

  MBIS Valence Widths: [a0]
   Center  Symbol  Z     Width
      1       N    7    0.408941
      2       N    7    0.408941

*** tstop() called on Mac.lan at Sun Aug 10 18:25:08 2025
Module time:
	user time   =       3.69 seconds =       0.06 minutes
	system time =       2.05 seconds =       0.03 minutes
	total time  =          1 seconds =       0.02 minutes
Total time:
	user time   =      15.44 seconds =       0.26 minutes
	system time =       4.44 seconds =       0.07 minutes
	total time  =          2 seconds =       0.03 minutes

    Psi4 stopped on: Sunday, 10 August 2025 06:25PM
    Psi4 wall time for execution: 0:00:01.95

*** Psi4 exiting successfully. Buy a developer a beer!
