                               Psi4 1.9.1 release

  ==> Input File <==

--------------------------------------------------------------------------
molecule {
1 1
C           0.000000           0.000000           0.000000
H           0.000000           0.000000           1.308382
}

set {
basis              cc-pvtz
reference          uks
maxiter            500
DAMPING_PERCENTAGE 1
E_CONVERGENCE      1.0E-8
D_CONVERGENCE      1.0E-8
DIIS_MAX_VECS      400
MBIS_MAXITER       8000
guess              read
}

E, wfn = energy('b3lyp', restart_file='last_wfn', return_wfn=True)
properties('b3lyp','MBIS_CHARGES', wfn=wfn)
wfn.to_file('last_wfn')
--------------------------------------------------------------------------

    Molecular point group: c2v
  Charge       = 1
  Multiplicity = 1
  Basis Set: CC-PVTZ
    Blend: CC-PVTZ
  Basis Set: (CC-PVTZ AUX)
    Blend: CC-PVTZ-JKFIT
  @DF-UKS Final Energy:   -38.08159153442896
    Total Energy =                        -38.0815915344289593
 Dipole X            :          0.0000000            0.0000000            0.0000000
 Dipole Y            :          0.0000000            0.0000000            0.0000000
 Dipole Z            :         -0.3988235            1.1315357            0.7327122
 Magnitude           :                                                    0.7327122
    Molecular point group: c2v

    Geometry (in Angstrom), charge = 1, multiplicity = 1:

       Center              X                  Y                   Z               Mass
    ------------   -----------------  -----------------  -----------------  -----------------
         C            0.000000000000     0.000000000000    -0.101371299818    12.000000000000
         H            0.000000000000     0.000000000000     1.207010700182     1.007825032230

  Charge       = 1
  Multiplicity = 1
  Basis Set: CC-PVTZ
    Blend: CC-PVTZ
  Basis Set: (CC-PVTZ AUX)
    Blend: CC-PVTZ-JKFIT

    Orbital Energies [Eh]
    ---------------------

    Alpha Occupied:

       1A1   -10.805443     2A1    -1.009311     3A1    -0.707130

    Alpha Virtual:

       1B1    -0.538969     1B2    -0.538969     4A1    -0.276324
       5A1    -0.014948     2B1     0.009119     2B2     0.009119
       6A1     0.032984     7A1     0.162228     3B2     0.218510
       3B1     0.218510     8A1     0.323933     1A2     0.323933
       9A1     0.588692     4B1     0.662967     4B2     0.662967
      10A1     0.913879     5B1     1.526551     5B2     1.526551
      11A1     1.731969    12A1     1.989980     2A2     2.161720
      13A1     2.161720     6B2     2.176802     6B1     2.176802
       7B1     2.254413     7B2     2.254413    14A1     2.359995
       3A2     2.493463    15A1     2.493463     8B2     2.623491
       8B1     2.623491    16A1     2.707953     4A2     3.042255
      17A1     3.042259     9B1     3.360628     9B2     3.360628
      18A1     3.501322    10B1     3.906329    10B2     3.906329
      19A1     4.034126    20A1     6.170560

    Beta Occupied:

       1A1   -10.805443     2A1    -1.009311     3A1    -0.707130

    Beta Virtual:

       1B1    -0.538969     1B2    -0.538969     4A1    -0.276324
       5A1    -0.014948     2B1     0.009119     2B2     0.009119
       6A1     0.032984     7A1     0.162228     3B2     0.218510
       3B1     0.218510     8A1     0.323933     1A2     0.323933
       9A1     0.588692     4B1     0.662967     4B2     0.662967
      10A1     0.913879     5B1     1.526551     5B2     1.526551
      11A1     1.731969    12A1     1.989980     2A2     2.161720
      13A1     2.161720     6B2     2.176802     6B1     2.176802
       7B1     2.254413     7B2     2.254413    14A1     2.359995
       3A2     2.493463    15A1     2.493463     8B2     2.623491
       8B1     2.623491    16A1     2.707953     4A2     3.042255
      17A1     3.042259     9B1     3.360628     9B2     3.360628
      18A1     3.501322    10B1     3.906329    10B2     3.906329
      19A1     4.034126    20A1     6.170560

    Final Occupation by Irrep:
             A1    A2    B1    B2
    DOCC [     3,    0,    0,    0 ]
    SOCC [     0,    0,    0,    0 ]
    NA   [     3,    0,    0,    0 ]
    NB   [     3,    0,    0,    0 ]

  @DF-UKS Final Energy:   -38.08159153444756

   => Energetics <=

    Nuclear Repulsion Energy =              2.4267096796042749
    One-Electron Energy =                 -52.9170294219649833
    Two-Electron Energy =                  16.6347723263548062
    DFT Exchange-Correlation Energy =      -4.2260441184416555
    Empirical Dispersion Energy =           0.0000000000000000
    VV10 Nonlocal Energy =                  0.0000000000000000
    Total Energy =                        -38.0815915344475613

  UHF NO Occupations:
  HONO-2 :    1 A1 2.0000000
  HONO-1 :    2 A1 2.0000000
  HONO-0 :    3 A1 2.0000000
  LUNO+0 :    4 A1 0.0000000
  LUNO+1 :    5 A1 0.0000000
  LUNO+2 :    6 A1 0.0000000
  LUNO+3 :    7 A1 0.0000000

Computation Completed

Properties will be evaluated at   0.000000,   0.000000,   0.000000 [a0]

Properties computed using the B3LYP density matrix

 Multipole Moments:

 ------------------------------------------------------------------------------------
     Multipole            Electronic (a.u.)      Nuclear  (a.u.)        Total (a.u.)
 ------------------------------------------------------------------------------------

 L = 1.  Multiply by 2.5417464519 to convert [e a0] to [Debye]
 Dipole X            :          0.0000000            0.0000000            0.0000000
 Dipole Y            :          0.0000000            0.0000000            0.0000000
 Dipole Z            :         -0.3988235            1.1315357            0.7327122
 Magnitude           :                                                    0.7327122

 L = 2.  Multiply by 1.3450342976 to convert [e a0^2] to [Debye ang]
 Quadrupole XX       :         -3.0192783            0.0000000           -3.0192783
 Quadrupole XY       :          0.0000000            0.0000000            0.0000000
 Quadrupole XZ       :          0.0000000            0.0000000            0.0000000
 Quadrupole YY       :         -3.0192783            0.0000000           -3.0192783
 Quadrupole YZ       :          0.0000000            0.0000000            0.0000000
 Quadrupole ZZ       :         -8.1439903            5.4227750           -2.7212153
 Traceless XX        :          1.7082374           -1.8075917           -0.0993543
 Traceless YY        :          1.7082374           -1.8075917           -0.0993543
 Traceless ZZ        :         -3.4164747            3.6151834            0.1987087

 ------------------------------------------------------------------------------------
  ==> Computing MBIS Charges <==

  Electron Count from Grid (Expected Number):  6.00000 ( 6.00000)
  Difference:  0.00000

  MBIS Charges: (a.u.)
   Center  Symbol  Z      Pop.       Charge
      1       C    6    5.217318    0.782682
      2       H    1    0.782682    0.217318

  MBIS Dipoles: [e a0]
   Center  Symbol  Z        X           Y           Z
      1       C    6   -0.000000   -0.000000    0.257789
      2       H    1    0.000000    0.000000    0.129172

  MBIS Quadrupoles: [e a0^2]
   Center  Symbol  Z      XX        XY        XZ        YY        YZ        ZZ
      1       C    6   -2.5716   -0.0000    0.0000   -2.5716    0.0000   -3.9123
      2       H    1   -0.4476   -0.0000   -0.0000   -0.4476    0.0000   -0.4588

  MBIS Octupoles: [e a0^3]
   Center  Symbol  Z      XXX       XXY       XXZ       XYY       XYZ       XZZ       YYY       YYZ       YZZ       ZZZ
      1       C    6   -0.0000    0.0000    0.2919   -0.0000   -0.0000   -0.0000    0.0000    0.2919   -0.0000    0.7717
      2       H    1   -0.0000    0.0000    0.0292   -0.0000   -0.0000   -0.0000    0.0000    0.0292   -0.0000    0.1248

  MBIS Radial Moments:
   Center  Symbol  Z      [a0^2]      [a0^3]      [a0^4]
      1       C    6    9.055553   19.418773   49.610010
      2       H    1    1.354054    2.462219    5.350559

  MBIS Valence Widths: [a0]
   Center  Symbol  Z     Width
      1       C    6    0.466011
      2       H    1    0.388023

*** tstop() called on Mac.lan at Sun Aug 10 18:27:22 2025
Module time:
	user time   =       3.04 seconds =       0.05 minutes
	system time =       1.72 seconds =       0.03 minutes
	total time  =          0 seconds =       0.00 minutes
Total time:
	user time   =      11.44 seconds =       0.19 minutes
	system time =       3.83 seconds =       0.06 minutes
	total time  =          1 seconds =       0.02 minutes

    Psi4 stopped on: Sunday, 10 August 2025 06:27PM
    Psi4 wall time for execution: 0:00:01.49

*** Psi4 exiting successfully. Buy a developer a beer!
