                               Psi4 1.9.1 release

  ==> Input File <==

--------------------------------------------------------------------------
molecule {
1 3
N           0.000000           0.000000           0.000000
C           0.000000           0.000000           1.440175
}

set {
basis              cc-pvtz
reference          uks
maxiter            500
DAMPING_PERCENTAGE 1
E_CONVERGENCE      1.0E-8
D_CONVERGENCE      1.0E-8
DIIS_MAX_VECS      400
MBIS_MAXITER       8000
guess              read
}

E, wfn = energy('b3lyp', restart_file='last_wfn', return_wfn=True)
properties('b3lyp','MBIS_CHARGES', wfn=wfn)
wfn.to_file('last_wfn')
--------------------------------------------------------------------------

    Molecular point group: c2v
  Charge       = 1
  Multiplicity = 3
  Basis Set: CC-PVTZ
    Blend: CC-PVTZ
  Basis Set: (CC-PVTZ AUX)
    Blend: CC-PVTZ-JKFIT
  @DF-UKS Final Energy:   -92.19274153096760
    Total Energy =                        -92.1927415309675951
 Dipole X            :          0.0000000            0.0000000            0.0000000
 Dipole Y            :          0.0000000            0.0000000            0.0000000
 Dipole Z            :          0.6233970            0.0019304            0.6253273
 Magnitude           :                                                    0.6253273
    Molecular point group: c2v

    Geometry (in Angstrom), charge = 1, multiplicity = 3:

       Center              X                  Y                   Z               Mass
    ------------   -----------------  -----------------  -----------------  -----------------
         N            0.000000000000     0.000000000000    -0.664617575486    14.003074004430
         C            0.000000000000     0.000000000000     0.775557424514    12.000000000000

  Charge       = 1
  Multiplicity = 3
  Basis Set: CC-PVTZ
    Blend: CC-PVTZ
  Basis Set: (CC-PVTZ AUX)
    Blend: CC-PVTZ-JKFIT

    Orbital Energies [Eh]
    ---------------------

    Alpha Occupied:

       1A1   -14.866954     2A1   -10.788771     3A1    -1.293754
       4A1    -0.929773     5A1    -0.779670     1B1    -0.767296
       1B2    -0.726517

    Alpha Virtual:

       2B1    -0.494137     2B2    -0.463985     6A1    -0.186023
       7A1    -0.006098     3B1     0.010254     3B2     0.020252
       8A1     0.022782     9A1     0.151747     4B1     0.191972
       4B2     0.210009     1A2     0.293929    10A1     0.294372
       5B1     0.381223     5B2     0.402602    11A1     0.560445
      12A1     0.727805     2A2     0.736025    13A1     0.737193
       6B1     1.041686     6B2     1.063746    14A1     1.259545
       7B1     1.572855     7B2     1.592807    15A1     1.764300
       8B1     2.215169     8B2     2.242913     3A2     2.245927
      16A1     2.245998     9B1     2.255826     9B2     2.256111
      17A1     2.456395    10B1     2.496246     4A2     2.509647
      18A1     2.510654    10B2     2.525330    19A1     2.602894
      11B1     2.826060    11B2     2.851468    20A1     2.892366
      12B1     3.467916    12B2     3.468047    21A1     3.672082
       5A2     3.672604    22A1     3.965747    23A1     4.032965
       6A2     4.032996    13B1     4.067254    13B2     4.103368
      24A1     4.472733    14B1     4.560867    14B2     4.590253
      25A1     5.061908    26A1     7.860380

    Beta Occupied:

       1A1   -14.841506     2A1   -10.772856     3A1    -1.219710
       4A1    -0.834630     1B2    -0.701590

    Beta Virtual:

       5A1    -0.602654     1B1    -0.593945     2B2    -0.437104
       2B1    -0.397390     6A1    -0.133019     7A1     0.019742
       3B2     0.023146     3B1     0.029110     8A1     0.062022
       9A1     0.179513     4B2     0.220291     4B1     0.231749
       1A2     0.314484    10A1     0.316442     5B2     0.431805
       5B1     0.438048    11A1     0.590999    12A1     0.770438
       2A2     0.774039    13A1     0.776972     6B2     1.091680
       6B1     1.098065    14A1     1.303677     7B2     1.600678
       7B1     1.609646    15A1     1.819813     8B2     2.269252
       9B2     2.280391     8B1     2.280955     3A2     2.283213
       9B1     2.284731    16A1     2.285620    17A1     2.518630
       4A2     2.545590    18A1     2.549983    10B2     2.562199
      10B1     2.578759    19A1     2.660929    11B2     2.898825
      11B1     2.907483    20A1     2.962969    12B2     3.521005
      12B1     3.522314     5A2     3.726572    21A1     3.730468
      22A1     4.020764     6A2     4.103179    23A1     4.109803
      13B2     4.146160    13B1     4.167565    24A1     4.540248
      14B2     4.633089    14B1     4.643032    25A1     5.110880
      26A1     7.900186

    Final Occupation by Irrep:
             A1    A2    B1    B2
    DOCC [     4,    0,    0,    1 ]
    SOCC [     1,    0,    1,    0 ]
    NA   [     5,    0,    1,    1 ]
    NB   [     4,    0,    0,    1 ]

  @DF-UKS Final Energy:   -92.19274153133951

   => Energetics <=

    Nuclear Repulsion Energy =             15.4324598386584970
    One-Electron Energy =                -149.9469374528804337
    Two-Electron Energy =                  51.7254564309717679
    DFT Exchange-Correlation Energy =      -9.4037203480893350
    Empirical Dispersion Energy =           0.0000000000000000
    VV10 Nonlocal Energy =                  0.0000000000000000
    Total Energy =                        -92.1927415313394931

  UHF NO Occupations:
  HONO-2 :    4 A1 1.9973931
  HONO-1 :    5 A1 1.0000000
  HONO-0 :    1 B1 1.0000000
  LUNO+0 :    6 A1 0.0026069
  LUNO+1 :    2 B2 0.0014841
  LUNO+2 :    7 A1 0.0003789
  LUNO+3 :    8 A1 0.0000006

Computation Completed

Properties will be evaluated at   0.000000,   0.000000,   0.000000 [a0]

Properties computed using the B3LYP density matrix

 Multipole Moments:

 ------------------------------------------------------------------------------------
     Multipole            Electronic (a.u.)      Nuclear  (a.u.)        Total (a.u.)
 ------------------------------------------------------------------------------------

 L = 1.  Multiply by 2.5417464519 to convert [e a0] to [Debye]
 Dipole X            :          0.0000000            0.0000000            0.0000000
 Dipole Y            :          0.0000000            0.0000000            0.0000000
 Dipole Z            :          0.6233973            0.0019304            0.6253277
 Magnitude           :                                                    0.6253277

 L = 2.  Multiply by 1.3450342976 to convert [e a0^2] to [Debye ang]
 Quadrupole XX       :         -6.0161246            0.0000000           -6.0161246
 Quadrupole XY       :          0.0000000            0.0000000            0.0000000
 Quadrupole XZ       :          0.0000000            0.0000000            0.0000000
 Quadrupole YY       :         -7.1231518            0.0000000           -7.1231518
 Quadrupole YZ       :          0.0000000            0.0000000            0.0000000
 Quadrupole ZZ       :        -27.8845936           23.9295325           -3.9550612
 Traceless XX        :          7.6584987           -7.9765108           -0.3180121
 Traceless YY        :          6.5514715           -7.9765108           -1.4250393
 Traceless ZZ        :        -14.2099703           15.9530216            1.7430514

 ------------------------------------------------------------------------------------
  ==> Computing MBIS Charges <==

  Electron Count from Grid (Expected Number): 12.00000 (12.00000)
  Difference:  0.00000

  MBIS Charges: (a.u.)
   Center  Symbol  Z      Pop.       Charge
      1       N    7    6.730139    0.269861
      2       C    6    5.269861    0.730139

  MBIS Dipoles: [e a0]
   Center  Symbol  Z        X           Y           Z
      1       N    7    0.000000   -0.000000   -0.244928
      2       C    6   -0.000000    0.000000    0.139102

  MBIS Quadrupoles: [e a0^2]
   Center  Symbol  Z      XX        XY        XZ        YY        YZ        ZZ
      1       N    7   -3.2432    0.0000   -0.0000   -3.8151    0.0000   -3.6858
      2       C    6   -2.7729   -0.0000    0.0000   -3.3081    0.0000   -3.2862

  MBIS Octupoles: [e a0^3]
   Center  Symbol  Z      XXX       XXY       XXZ       XYY       XYZ       XZZ       YYY       YYZ       YZZ       ZZZ
      1       N    7   -0.0000    0.0000   -0.1928    0.0000   -0.0000   -0.0000    0.0000   -0.3582    0.0000   -0.8096
      2       C    6   -0.0000    0.0000    0.1368   -0.0000   -0.0000   -0.0000    0.0000    0.3183    0.0000    0.5229

  MBIS Radial Moments:
   Center  Symbol  Z      [a0^2]      [a0^3]      [a0^4]
      1       N    7   10.744135   21.445956   51.013364
      2       C    6    9.367153   20.394090   52.837206

  MBIS Valence Widths: [a0]
   Center  Symbol  Z     Width
      1       N    7    0.423489
      2       C    6    0.470072

*** tstop() called on Mac.lan at Sun Aug 10 18:34:22 2025
Module time:
	user time   =       3.51 seconds =       0.06 minutes
	system time =       2.20 seconds =       0.04 minutes
	total time  =          0 seconds =       0.00 minutes
Total time:
	user time   =      30.82 seconds =       0.51 minutes
	system time =       4.30 seconds =       0.07 minutes
	total time  =          3 seconds =       0.05 minutes

    Psi4 stopped on: Sunday, 10 August 2025 06:34PM
    Psi4 wall time for execution: 0:00:03.47

*** Psi4 exiting successfully. Buy a developer a beer!
