                               Psi4 1.9.1 release

  ==> Input File <==

--------------------------------------------------------------------------
molecule {
1 2
O           0.000000           0.000000           0.000000
C           0.000000           0.000000           1.053359
}

set {
basis              cc-pvtz
reference          uks
maxiter            500
DAMPING_PERCENTAGE 1
E_CONVERGENCE      1.0E-8
D_CONVERGENCE      1.0E-8
DIIS_MAX_VECS      400
MBIS_MAXITER       8000
guess              read
}

E, wfn = energy('b3lyp', restart_file='last_wfn', return_wfn=True)
properties('b3lyp','MBIS_CHARGES', wfn=wfn)
wfn.to_file('last_wfn')
--------------------------------------------------------------------------

    Molecular point group: c2v
  Charge       = 1
  Multiplicity = 2
  Basis Set: CC-PVTZ
    Blend: CC-PVTZ
  Basis Set: (CC-PVTZ AUX)
    Blend: CC-PVTZ-JKFIT
  @DF-UKS Final Energy:  -112.82826886366617
    Total Energy =                       -112.8282688636661675
 Dipole X            :          0.0000000            0.0000000            0.0000000
 Dipole Y            :          0.0000000            0.0000000            0.0000000
 Dipole Z            :          1.0420814           -0.0021696            1.0399118
 Magnitude           :                                                    1.0399118
    Molecular point group: c2v

    Geometry (in Angstrom), charge = 1, multiplicity = 2:

       Center              X                  Y                   Z               Mass
    ------------   -----------------  -----------------  -----------------  -----------------
         O            0.000000000000     0.000000000000    -0.451521577107    15.994914619570
         C            0.000000000000     0.000000000000     0.601837422893    12.000000000000

  Charge       = 1
  Multiplicity = 2
  Basis Set: CC-PVTZ
    Blend: CC-PVTZ
  Basis Set: (CC-PVTZ AUX)
    Blend: CC-PVTZ-JKFIT

    Orbital Energies [Eh]
    ---------------------

    Alpha Occupied:

       1A1   -19.646359     2A1   -10.780050     3A1    -1.610416
       4A1    -0.959640     1B2    -0.891483     1B1    -0.891483
       5A1    -0.869226

    Alpha Virtual:

       2B2    -0.407092     2B1    -0.407092     6A1    -0.113692
       7A1    -0.022815     3B1    -0.013866     3B2    -0.013866
       8A1     0.229710     9A1     0.275377     1A2     0.275377
      10A1     0.310667     4B2     0.329556     4B1     0.329556
       5B1     0.510722     5B2     0.510722    11A1     0.811257
      12A1     1.012935     2A2     1.171589    13A1     1.171589
      14A1     1.496218     6B2     1.501734     6B1     1.501734
       7B1     1.605488     7B2     1.605488    15A1     2.119273
       8B1     2.215645     8B2     2.215645    16A1     2.433067
       3A2     2.433068    17A1     2.479029     4A2     2.479029
       9B1     2.489497     9B2     2.489497    18A1     2.638139
      10B2     2.892894    10B1     2.892894    19A1     3.021269
      11B2     3.748333    11B1     3.748333    20A1     4.278396
      12B2     4.720416    12B1     4.720416     5A2     5.206474
      21A1     5.206475    22A1     5.765442     6A2     5.862541
      23A1     5.862543    13B2     6.030030    13B1     6.030030
      14B2     6.345658    14B1     6.345658    24A1     6.450156
      25A1     6.966857    26A1    12.888077

    Beta Occupied:

       1A1   -19.647157     2A1   -10.754853     3A1    -1.602850
       4A1    -0.934224     1B2    -0.885986     1B1    -0.885986

    Beta Virtual:

       5A1    -0.644316     2B2    -0.364308     2B1    -0.364308
       6A1    -0.099143     3B1    -0.003063     3B2    -0.003063
       7A1     0.018052     8A1     0.255902     1A2     0.295822
       9A1     0.295822     4B2     0.327666     4B1     0.327666
      10A1     0.344455     5B1     0.547756     5B2     0.547756
      11A1     0.815859    12A1     1.052564     2A2     1.172156
      13A1     1.172156     6B2     1.530111     6B1     1.530111
      14A1     1.552378     7B1     1.615071     7B2     1.615071
      15A1     2.165335     8B1     2.251303     8B2     2.251303
      16A1     2.455372     3A2     2.455373     4A2     2.555357
      17A1     2.555358     9B1     2.595927     9B2     2.595927
      18A1     2.717120    10B2     2.915097    10B1     2.915097
      19A1     3.092234    11B2     3.761550    11B1     3.761550
      20A1     4.302233    12B1     4.711715    12B2     4.711715
       5A2     5.208226    21A1     5.208227    22A1     5.785018
       6A2     5.851280    23A1     5.851281    13B2     6.041816
      13B1     6.041816    14B2     6.355529    14B1     6.355529
      24A1     6.459207    25A1     6.979071    26A1    12.913186

    Final Occupation by Irrep:
             A1    A2    B1    B2
    DOCC [     4,    0,    1,    1 ]
    SOCC [     1,    0,    0,    0 ]
    NA   [     5,    0,    1,    1 ]
    NB   [     4,    0,    1,    1 ]

  @DF-UKS Final Energy:  -112.82826886469596

   => Energetics <=

    Nuclear Repulsion Energy =             24.1138169533463902
    One-Electron Energy =                -195.6084283979972724
    Two-Electron Energy =                  69.6737465834070235
    DFT Exchange-Correlation Energy =     -11.0074040034521143
    Empirical Dispersion Energy =           0.0000000000000000
    VV10 Nonlocal Energy =                  0.0000000000000000
    Total Energy =                       -112.8282688646959571

  UHF NO Occupations:
  HONO-2 :    1 B1 1.9972397
  HONO-1 :    1 B2 1.9972397
  HONO-0 :    5 A1 1.0000000
  LUNO+0 :    2 B2 0.0027603
  LUNO+1 :    2 B1 0.0027603
  LUNO+2 :    6 A1 0.0001519
  LUNO+3 :    7 A1 0.0000163

Computation Completed

Properties will be evaluated at   0.000000,   0.000000,   0.000000 [a0]

Properties computed using the B3LYP density matrix

 Multipole Moments:

 ------------------------------------------------------------------------------------
     Multipole            Electronic (a.u.)      Nuclear  (a.u.)        Total (a.u.)
 ------------------------------------------------------------------------------------

 L = 1.  Multiply by 2.5417464519 to convert [e a0] to [Debye]
 Dipole X            :          0.0000000            0.0000000            0.0000000
 Dipole Y            :          0.0000000            0.0000000            0.0000000
 Dipole Z            :          1.0420814           -0.0021696            1.0399118
 Magnitude           :                                                    1.0399118

 L = 2.  Multiply by 1.3450342976 to convert [e a0^2] to [Debye ang]
 Quadrupole XX       :         -5.7960255            0.0000000           -5.7960255
 Quadrupole XY       :          0.0000000            0.0000000            0.0000000
 Quadrupole XZ       :          0.0000000            0.0000000            0.0000000
 Quadrupole YY       :         -5.7960255            0.0000000           -5.7960255
 Quadrupole YZ       :          0.0000000            0.0000000            0.0000000
 Quadrupole ZZ       :        -17.7659177           13.5851290           -4.1807887
 Traceless XX        :          3.9899641           -4.5283763           -0.5384123
 Traceless YY        :          3.9899641           -4.5283763           -0.5384123
 Traceless ZZ        :         -7.9799281            9.0567527            1.0768245

 ------------------------------------------------------------------------------------
  ==> Computing MBIS Charges <==

  Electron Count from Grid (Expected Number): 13.00000 (13.00000)
  Difference:  0.00000

  MBIS Charges: (a.u.)
   Center  Symbol  Z      Pop.       Charge
      1       O    8    8.028058   -0.028058
      2       C    6    4.971943    1.028057

  MBIS Dipoles: [e a0]
   Center  Symbol  Z        X           Y           Z
      1       O    8   -0.000000   -0.000000   -0.267823
      2       C    6   -0.000000    0.000000    0.114577

  MBIS Quadrupoles: [e a0^2]
   Center  Symbol  Z      XX        XY        XZ        YY        YZ        ZZ
      1       O    8   -3.3640   -0.0000    0.0000   -3.3640    0.0000   -3.5801
      2       C    6   -2.4320   -0.0000    0.0000   -2.4320    0.0000   -2.6277

  MBIS Octupoles: [e a0^3]
   Center  Symbol  Z      XXX       XXY       XXZ       XYY       XYZ       XZZ       YYY       YYZ       YZZ       ZZZ
      1       O    8   -0.0000    0.0000   -0.2192   -0.0000   -0.0000    0.0000   -0.0000   -0.2192   -0.0000   -0.4581
      2       C    6    0.0000    0.0000    0.1042    0.0000    0.0000    0.0000    0.0000    0.1042    0.0000    0.0657

  MBIS Radial Moments:
   Center  Symbol  Z      [a0^2]      [a0^3]      [a0^4]
      1       O    8   10.308069   18.100305   37.970943
      2       C    6    7.491764   15.219501   36.872261

  MBIS Valence Widths: [a0]
   Center  Symbol  Z     Width
      1       O    8    0.368578
      2       C    6    0.435880

*** tstop() called on Mac.lan at Sun Aug 10 18:36:24 2025
Module time:
	user time   =       4.75 seconds =       0.08 minutes
	system time =       1.59 seconds =       0.03 minutes
	total time  =          0 seconds =       0.00 minutes
Total time:
	user time   =      19.83 seconds =       0.33 minutes
	system time =       3.70 seconds =       0.06 minutes
	total time  =          2 seconds =       0.03 minutes

    Psi4 stopped on: Sunday, 10 August 2025 06:36PM
    Psi4 wall time for execution: 0:00:02.29

*** Psi4 exiting successfully. Buy a developer a beer!
