                               Psi4 1.9.1 release

  ==> Input File <==

--------------------------------------------------------------------------
molecule {
1 2
O           0.000000           0.000000           0.000000
C           0.000000           0.000000           0.706770
}

set {
basis              cc-pvtz
reference          uks
maxiter            500
DAMPING_PERCENTAGE 1
E_CONVERGENCE      1.0E-8
D_CONVERGENCE      1.0E-8
DIIS_MAX_VECS      400
MBIS_MAXITER       8000
guess              read
}

E, wfn = energy('b3lyp', restart_file='last_wfn', return_wfn=True)
properties('b3lyp','MBIS_CHARGES', wfn=wfn)
wfn.to_file('last_wfn')
--------------------------------------------------------------------------

    Molecular point group: c2v
  Charge       = 1
  Multiplicity = 2
  Basis Set: CC-PVTZ
    Blend: CC-PVTZ
  Basis Set: (CC-PVTZ AUX)
    Blend: CC-PVTZ-JKFIT
  @DF-UKS Final Energy:  -111.64479489210326
    Total Energy =                       -111.6447948921032634
 Dipole X            :          0.0000000            0.0000000            0.0000000
 Dipole Y            :          0.0000000            0.0000000            0.0000000
 Dipole Z            :          0.7171690           -0.0014557            0.7157133
 Magnitude           :                                                    0.7157133
    Molecular point group: c2v

    Geometry (in Angstrom), charge = 1, multiplicity = 2:

       Center              X                  Y                   Z               Mass
    ------------   -----------------  -----------------  -----------------  -----------------
         O            0.000000000000     0.000000000000    -0.302956451743    15.994914619570
         C            0.000000000000     0.000000000000     0.403813548257    12.000000000000

  Charge       = 1
  Multiplicity = 2
  Basis Set: CC-PVTZ
    Blend: CC-PVTZ
  Basis Set: (CC-PVTZ AUX)
    Blend: CC-PVTZ-JKFIT

    Orbital Energies [Eh]
    ---------------------

    Alpha Occupied:

       1A1   -19.614606     2A1   -10.740082     3A1    -1.723128
       1B1    -1.114039     1B2    -1.114039     4A1    -0.929717
       5A1    -0.854717

    Alpha Virtual:

       2B2    -0.212707     2B1    -0.212707     6A1    -0.095860
       7A1    -0.027706     3B1    -0.018078     3B2    -0.018078
       8A1     0.246802     1A2     0.263756     9A1     0.263756
       4B2     0.325437     4B1     0.325437    10A1     0.520150
       5B2     0.702060     5B1     0.702060    11A1     0.987249
       6B2     1.226229     6B1     1.226229    12A1     1.281184
       2A2     1.281184    13A1     1.371255    14A1     1.917125
       7B2     1.932779     7B1     1.932779     8B2     2.199418
       8B1     2.199418    15A1     2.340238     3A2     2.384507
      16A1     2.384507     9B2     2.585672     9B1     2.585672
      17A1     2.752255     4A2     2.766332    18A1     2.766332
      10B2     3.619815    10B1     3.619815    11B2     3.826381
      11B1     3.826381    19A1     4.030796    12B1     4.891567
      12B2     4.891567    20A1     5.469171    21A1     5.831219
       5A2     5.831221    22A1     6.103146     6A2     6.103146
      13B2     6.234331    13B1     6.234331    23A1     6.268527
      24A1     7.158694    14B2     7.385100    14B1     7.385100
      25A1     9.801352    26A1    17.281928

    Beta Occupied:

       1A1   -19.613863     2A1   -10.716290     3A1    -1.717681
       1B1    -1.102490     1B2    -1.102490     4A1    -0.922026

    Beta Virtual:

       5A1    -0.618514     2B2    -0.176239     2B1    -0.176239
       6A1    -0.085577     3B2     0.000237     3B1     0.000237
       7A1     0.010198     8A1     0.266794     1A2     0.282073
       9A1     0.282073     4B2     0.335585     4B1     0.335585
      10A1     0.563099     5B2     0.730025     5B1     0.730025
      11A1     1.004448     6B2     1.245978     6B1     1.245978
       2A2     1.283917    12A1     1.283917    13A1     1.424762
      14A1     1.955186     7B2     1.962582     7B1     1.962582
       8B2     2.231876     8B1     2.231876    15A1     2.416166
       3A2     2.455741    16A1     2.455741     9B2     2.684114
       9B1     2.684114     4A2     2.802632    17A1     2.802633
      18A1     2.836233    10B2     3.627859    10B1     3.627859
      11B2     3.864577    11B1     3.864577    19A1     4.051834
      12B1     4.891917    12B2     4.891917    20A1     5.485430
      21A1     5.827665     5A2     5.827666     6A2     6.114414
      22A1     6.114415    13B2     6.241661    13B1     6.241661
      23A1     6.279323    24A1     7.182399    14B2     7.406246
      14B1     7.406246    25A1     9.819916    26A1    17.311739

    Final Occupation by Irrep:
             A1    A2    B1    B2
    DOCC [     4,    0,    1,    1 ]
    SOCC [     1,    0,    0,    0 ]
    NA   [     5,    0,    1,    1 ]
    NB   [     4,    0,    1,    1 ]

  @DF-UKS Final Energy:  -111.64479489174504

   => Energetics <=

    Nuclear Repulsion Energy =             35.9388572126151402
    One-Electron Energy =                -215.5883717917522233
    Two-Electron Energy =                  79.5900767291610123
    DFT Exchange-Correlation Energy =     -11.5853570417689742
    Empirical Dispersion Energy =           0.0000000000000000
    VV10 Nonlocal Energy =                  0.0000000000000000
    Total Energy =                       -111.6447948917450361

  UHF NO Occupations:
  HONO-2 :    1 B2 1.9993922
  HONO-1 :    1 B1 1.9993922
  HONO-0 :    5 A1 1.0000000
  LUNO+0 :    2 B2 0.0006078
  LUNO+1 :    2 B1 0.0006078
  LUNO+2 :    6 A1 0.0000557
  LUNO+3 :    7 A1 0.0000063

Computation Completed

Properties will be evaluated at   0.000000,   0.000000,   0.000000 [a0]

Properties computed using the B3LYP density matrix

 Multipole Moments:

 ------------------------------------------------------------------------------------
     Multipole            Electronic (a.u.)      Nuclear  (a.u.)        Total (a.u.)
 ------------------------------------------------------------------------------------

 L = 1.  Multiply by 2.5417464519 to convert [e a0] to [Debye]
 Dipole X            :          0.0000000            0.0000000            0.0000000
 Dipole Y            :          0.0000000            0.0000000            0.0000000
 Dipole Z            :          0.7171690           -0.0014557            0.7157133
 Magnitude           :                                                    0.7157133

 L = 2.  Multiply by 1.3450342976 to convert [e a0^2] to [Debye ang]
 Quadrupole XX       :         -4.9382833            0.0000000           -4.9382833
 Quadrupole XY       :          0.0000000            0.0000000            0.0000000
 Quadrupole XZ       :          0.0000000            0.0000000            0.0000000
 Quadrupole YY       :         -4.9382833            0.0000000           -4.9382833
 Quadrupole YZ       :          0.0000000            0.0000000            0.0000000
 Quadrupole ZZ       :        -10.8556208            6.1159955           -4.7396253
 Traceless XX        :          1.9724458           -2.0386652           -0.0662193
 Traceless YY        :          1.9724458           -2.0386652           -0.0662193
 Traceless ZZ        :         -3.9448917            4.0773304            0.1324387

 ------------------------------------------------------------------------------------
  ==> Computing MBIS Charges <==

  Electron Count from Grid (Expected Number): 13.00000 (13.00000)
  Difference:  0.00000

  MBIS Charges: (a.u.)
   Center  Symbol  Z      Pop.       Charge
      1       O    8    8.069210   -0.069210
      2       C    6    4.930791    1.069209

  MBIS Dipoles: [e a0]
   Center  Symbol  Z        X           Y           Z
      1       O    8    0.000000    0.000000   -0.160054
      2       C    6   -0.000000    0.000000    0.020235

  MBIS Quadrupoles: [e a0^2]
   Center  Symbol  Z      XX        XY        XZ        YY        YZ        ZZ
      1       O    8   -2.9194   -0.0000    0.0000   -2.9194    0.0000   -3.2438
      2       C    6   -2.0189    0.0000    0.0000   -2.0189    0.0000   -2.3099

  MBIS Octupoles: [e a0^3]
   Center  Symbol  Z      XXX       XXY       XXZ       XYY       XYZ       XZZ       YYY       YYZ       YZZ       ZZZ
      1       O    8   -0.0000    0.0000   -0.0608   -0.0000    0.0000    0.0000   -0.0000   -0.0608    0.0000    0.0811
      2       C    6   -0.0000    0.0000   -0.0806   -0.0000    0.0000   -0.0000    0.0000   -0.0806    0.0000   -0.3989

  MBIS Radial Moments:
   Center  Symbol  Z      [a0^2]      [a0^3]      [a0^4]
      1       O    8    9.082512   14.965354   29.609517
      2       C    6    6.347761   12.151306   28.062259

  MBIS Valence Widths: [a0]
   Center  Symbol  Z     Width
      1       O    8    0.342342
      2       C    6    0.398487

*** tstop() called on Mac.lan at Sun Aug 10 18:37:26 2025
Module time:
	user time   =       4.13 seconds =       0.07 minutes
	system time =       2.36 seconds =       0.04 minutes
	total time  =          1 seconds =       0.02 minutes
Total time:
	user time   =      96.39 seconds =       1.61 minutes
	system time =       4.93 seconds =       0.08 minutes
	total time  =         11 seconds =       0.18 minutes

    Psi4 stopped on: Sunday, 10 August 2025 06:37PM
    Psi4 wall time for execution: 0:00:11.16

*** Psi4 exiting successfully. Buy a developer a beer!
