                               Psi4 1.9.1 release

  ==> Input File <==

--------------------------------------------------------------------------
molecule {
1 2
O           0.000000           0.000000           0.000000
C           0.000000           0.000000           1.175684
}

set {
basis              cc-pvtz
reference          uks
maxiter            500
DAMPING_PERCENTAGE 1
E_CONVERGENCE      1.0E-8
D_CONVERGENCE      1.0E-8
DIIS_MAX_VECS      400
MBIS_MAXITER       8000
guess              read
}

E, wfn = energy('b3lyp', restart_file='last_wfn', return_wfn=True)
properties('b3lyp','MBIS_CHARGES', wfn=wfn)
wfn.to_file('last_wfn')
--------------------------------------------------------------------------

    Molecular point group: c2v
  Charge       = 1
  Multiplicity = 2
  Basis Set: CC-PVTZ
    Blend: CC-PVTZ
  Basis Set: (CC-PVTZ AUX)
    Blend: CC-PVTZ-JKFIT
  @DF-UKS Final Energy:  -112.82831761598243
    Total Energy =                       -112.8283176159824279
 Dipole X            :          0.0000000            0.0000000            0.0000000
 Dipole Y            :          0.0000000            0.0000000            0.0000000
 Dipole Z            :          1.1117049           -0.0024215            1.1092834
 Magnitude           :                                                    1.1092834
    Molecular point group: c2v

    Geometry (in Angstrom), charge = 1, multiplicity = 2:

       Center              X                  Y                   Z               Mass
    ------------   -----------------  -----------------  -----------------  -----------------
         O            0.000000000000     0.000000000000    -0.503956100303    15.994914619570
         C            0.000000000000     0.000000000000     0.671727899697    12.000000000000

  Charge       = 1
  Multiplicity = 2
  Basis Set: CC-PVTZ
    Blend: CC-PVTZ
  Basis Set: (CC-PVTZ AUX)
    Blend: CC-PVTZ-JKFIT

    Orbital Energies [Eh]
    ---------------------

    Alpha Occupied:

       1A1   -19.660648     2A1   -10.812532     3A1    -1.538751
       4A1    -0.977333     5A1    -0.860864     1B2    -0.843505
       1B1    -0.843505

    Alpha Virtual:

       2B2    -0.455491     2B1    -0.455491     6A1    -0.126646
       7A1    -0.020016     3B1    -0.007610     3B2    -0.007610
       8A1     0.137428     9A1     0.253222    10A1     0.281577
       1A2     0.281577     4B2     0.328538     4B1     0.328538
       5B2     0.468280     5B1     0.468280    11A1     0.769057
      12A1     0.896554     2A2     1.146608    13A1     1.146608
       6B2     1.440894     6B1     1.440894    14A1     1.541306
       7B2     1.619585     7B1     1.619585    15A1     1.952115
       8B2     2.221392     8B1     2.221392    16A1     2.378564
       3A2     2.378564    17A1     2.463653     4A2     2.463653
       9B2     2.478601     9B1     2.478601    18A1     2.668304
      10B2     2.785822    10B1     2.785822    19A1     2.858613
      11B1     3.616212    11B2     3.616212    20A1     3.855137
      12B1     4.709239    12B2     4.709239     5A2     5.033857
      21A1     5.033857    22A1     5.596179    13B1     5.688157
      13B2     5.688157    23A1     5.837313     6A2     5.837332
      24A1     6.214387    14B1     6.337621    14B2     6.337621
      25A1     6.531187    26A1    11.083403

    Beta Occupied:

       1A1   -19.660930     2A1   -10.788207     3A1    -1.530195
       4A1    -0.933968     1B2    -0.840894     1B1    -0.840894

    Beta Virtual:

       5A1    -0.653188     2B2    -0.414786     2B1    -0.414786
       6A1    -0.108356     3B1     0.003094     3B2     0.003094
       7A1     0.018101     8A1     0.185580     9A1     0.259225
      10A1     0.302193     1A2     0.302193     4B2     0.325695
       4B1     0.325695     5B2     0.504977     5B1     0.504977
      11A1     0.791480    12A1     0.916375     2A2     1.145114
      13A1     1.145114     6B2     1.465796     6B1     1.465796
      14A1     1.596434     7B2     1.633611     7B1     1.633611
      15A1     1.996591     8B2     2.256842     8B1     2.256842
      16A1     2.402573     3A2     2.402573    17A1     2.533896
       4A2     2.533897     9B1     2.568313     9B2     2.568313
      18A1     2.751761    10B2     2.818849    10B1     2.818849
      19A1     2.918940    11B1     3.625138    11B2     3.625138
      20A1     3.883555    12B1     4.697600    12B2     4.697600
       5A2     5.035425    21A1     5.035426    22A1     5.616952
      13B1     5.703044    13B2     5.703044    23A1     5.822781
       6A2     5.822801    24A1     6.227201    14B1     6.346985
      14B2     6.346985    25A1     6.548174    26A1    11.101829

    Final Occupation by Irrep:
             A1    A2    B1    B2
    DOCC [     4,    0,    1,    1 ]
    SOCC [     1,    0,    0,    0 ]
    NA   [     5,    0,    1,    1 ]
    NB   [     4,    0,    1,    1 ]

  @DF-UKS Final Energy:  -112.82831761302468

   => Energetics <=

    Nuclear Repulsion Energy =             21.6048752149046877
    One-Electron Energy =                -190.8973610533785177
    Two-Electron Energy =                  67.3558324124624477
    DFT Exchange-Correlation Energy =     -10.8916641870133102
    Empirical Dispersion Energy =           0.0000000000000000
    VV10 Nonlocal Energy =                  0.0000000000000000
    Total Energy =                       -112.8283176130246801

  UHF NO Occupations:
  HONO-2 :    1 B1 1.9955748
  HONO-1 :    1 B2 1.9955748
  HONO-0 :    5 A1 1.0000000
  LUNO+0 :    2 B1 0.0044252
  LUNO+1 :    2 B2 0.0044252
  LUNO+2 :    6 A1 0.0004531
  LUNO+3 :    7 A1 0.0000277

Computation Completed

Properties will be evaluated at   0.000000,   0.000000,   0.000000 [a0]

Properties computed using the B3LYP density matrix

 Multipole Moments:

 ------------------------------------------------------------------------------------
     Multipole            Electronic (a.u.)      Nuclear  (a.u.)        Total (a.u.)
 ------------------------------------------------------------------------------------

 L = 1.  Multiply by 2.5417464519 to convert [e a0] to [Debye]
 Dipole X            :          0.0000000            0.0000000            0.0000000
 Dipole Y            :          0.0000000            0.0000000            0.0000000
 Dipole Z            :          1.1117049           -0.0024215            1.1092834
 Magnitude           :                                                    1.1092834

 L = 2.  Multiply by 1.3450342976 to convert [e a0^2] to [Debye ang]
 Quadrupole XX       :         -6.0414241            0.0000000           -6.0414241
 Quadrupole XY       :          0.0000000            0.0000000            0.0000000
 Quadrupole XZ       :          0.0000000            0.0000000            0.0000000
 Quadrupole YY       :         -6.0414241            0.0000000           -6.0414241
 Quadrupole YZ       :          0.0000000            0.0000000            0.0000000
 Quadrupole ZZ       :        -20.7562955           16.9235770           -3.8327185
 Traceless XX        :          4.9049572           -5.6411923           -0.7362352
 Traceless YY        :          4.9049572           -5.6411923           -0.7362352
 Traceless ZZ        :         -9.8099143           11.2823847            1.4724704

 ------------------------------------------------------------------------------------
  ==> Computing MBIS Charges <==

  Electron Count from Grid (Expected Number): 13.00000 (13.00000)
  Difference:  0.00000

  MBIS Charges: (a.u.)
   Center  Symbol  Z      Pop.       Charge
      1       O    8    7.998224    0.001776
      2       C    6    5.001777    0.998223

  MBIS Dipoles: [e a0]
   Center  Symbol  Z        X           Y           Z
      1       O    8   -0.000000   -0.000000   -0.296460
      2       C    6    0.000000    0.000000    0.140310

  MBIS Quadrupoles: [e a0^2]
   Center  Symbol  Z      XX        XY        XZ        YY        YZ        ZZ
      1       O    8   -3.4676   -0.0000   -0.0000   -3.4676    0.0000   -3.6157
      2       C    6   -2.5738   -0.0000    0.0000   -2.5738    0.0000   -2.7480

  MBIS Octupoles: [e a0^3]
   Center  Symbol  Z      XXX       XXY       XXZ       XYY       XYZ       XZZ       YYY       YYZ       YZZ       ZZZ
      1       O    8    0.0000   -0.0000   -0.2668   -0.0000    0.0000   -0.0000   -0.0000   -0.2668   -0.0000   -0.6436
      2       C    6    0.0000   -0.0000    0.1802    0.0000    0.0000    0.0000    0.0000    0.1802    0.0000    0.2503

  MBIS Radial Moments:
   Center  Symbol  Z      [a0^2]      [a0^3]      [a0^4]
      1       O    8   10.550937   18.825816   40.110901
      2       C    6    7.895582   16.371870   40.421442

  MBIS Valence Widths: [a0]
   Center  Symbol  Z     Width
      1       O    8    0.374079
      2       C    6    0.446925

*** tstop() called on Mac.lan at Sun Aug 10 18:37:38 2025
Module time:
	user time   =       3.80 seconds =       0.06 minutes
	system time =       2.79 seconds =       0.05 minutes
	total time  =          0 seconds =       0.00 minutes
Total time:
	user time   =      19.38 seconds =       0.32 minutes
	system time =       5.50 seconds =       0.09 minutes
	total time  =          2 seconds =       0.03 minutes

    Psi4 stopped on: Sunday, 10 August 2025 06:37PM
    Psi4 wall time for execution: 0:00:02.42

*** Psi4 exiting successfully. Buy a developer a beer!
