                               Psi4 1.9.1 release

  ==> Input File <==

--------------------------------------------------------------------------
molecule {
1 3
N           0.000000           0.000000           0.000000
C           0.000000           0.000000           1.530657
}

set {
basis              cc-pvtz
reference          uks
maxiter            500
DAMPING_PERCENTAGE 1
E_CONVERGENCE      1.0E-8
D_CONVERGENCE      1.0E-8
DIIS_MAX_VECS      400
MBIS_MAXITER       8000
guess              read
}

E, wfn = energy('b3lyp', restart_file='last_wfn', return_wfn=True)
properties('b3lyp','MBIS_CHARGES', wfn=wfn)
wfn.to_file('last_wfn')
--------------------------------------------------------------------------

    Molecular point group: c2v
  Charge       = 1
  Multiplicity = 3
  Basis Set: CC-PVTZ
    Blend: CC-PVTZ
  Basis Set: (CC-PVTZ AUX)
    Blend: CC-PVTZ-JKFIT
  @DF-UKS Final Energy:   -92.16764102134859
    Total Energy =                        -92.1676410213485866
 Dipole X            :          0.0000000            0.0000000            0.0000000
 Dipole Y            :          0.0000000            0.0000000            0.0000000
 Dipole Z            :          0.5801767            0.0020517            0.5822283
 Magnitude           :                                                    0.5822283
    Molecular point group: c2v

    Geometry (in Angstrom), charge = 1, multiplicity = 3:

       Center              X                  Y                   Z               Mass
    ------------   -----------------  -----------------  -----------------  -----------------
         N            0.000000000000     0.000000000000    -0.706373561713    14.003074004430
         C            0.000000000000     0.000000000000     0.824283438287    12.000000000000

  Charge       = 1
  Multiplicity = 3
  Basis Set: CC-PVTZ
    Blend: CC-PVTZ
  Basis Set: (CC-PVTZ AUX)
    Blend: CC-PVTZ-JKFIT

    Orbital Energies [Eh]
    ---------------------

    Alpha Occupied:

       1A1   -14.865799     2A1   -10.789202     3A1    -1.263027
       4A1    -0.933528     5A1    -0.768556     1B1    -0.751262
       1B2    -0.717029

    Alpha Virtual:

       2B1    -0.501313     2B2    -0.467958     6A1    -0.245889
       7A1    -0.007286     3B1     0.017343     3B2     0.030501
       8A1     0.033168     9A1     0.152522     4B1     0.187862
       4B2     0.202247     1A2     0.309816    10A1     0.310202
       5B1     0.365061     5B2     0.387321    11A1     0.547995
      12A1     0.716615     2A2     0.720773    13A1     0.721797
       6B1     1.007150     6B2     1.027521    14A1     1.202458
       7B1     1.570535     7B2     1.597398    15A1     1.787943
       8B1     2.196765     8B2     2.222718    16A1     2.251420
       3A2     2.251953     9B1     2.275248     9B2     2.275471
      17A1     2.370087    10B1     2.506103     4A2     2.525329
      18A1     2.525464    10B2     2.534582    19A1     2.732911
      11B1     2.773280    20A1     2.793202    11B2     2.799365
      12B1     3.461063    12B2     3.461139    21A1     3.603670
       5A2     3.604497    22A1     3.754272    13B1     3.954395
      13B2     3.982745    23A1     4.010907     6A2     4.011139
      24A1     4.326772    14B1     4.453535    14B2     4.478233
      25A1     5.105714    26A1     6.958451

    Beta Occupied:

       1A1   -14.831419     2A1   -10.781206     3A1    -1.177649
       4A1    -0.845995     1B2    -0.678749

    Beta Virtual:

       5A1    -0.594454     1B1    -0.576288     2B2    -0.452571
       2B1    -0.410795     6A1    -0.181927     7A1     0.014370
       3B2     0.023147     3B1     0.031765     8A1     0.061510
       9A1     0.183587     4B2     0.226038     4B1     0.234403
       1A2     0.315948    10A1     0.318524     5B2     0.409185
       5B1     0.417424    11A1     0.586892    12A1     0.754228
       2A2     0.771200    13A1     0.773242     6B2     1.062103
       6B1     1.067867    14A1     1.254658     7B2     1.580878
       7B1     1.596689    15A1     1.835647     8B2     2.250615
       8B1     2.264470     3A2     2.274802     9B2     2.274828
       9B1     2.275980    16A1     2.277966    17A1     2.418721
       4A2     2.526976    18A1     2.532945    10B2     2.568554
      10B1     2.585094    19A1     2.786254    11B2     2.840022
      11B1     2.850929    20A1     2.863281    12B2     3.535308
      12B1     3.536111     5A2     3.673424    21A1     3.676093
      22A1     3.810705    13B2     4.042737    13B1     4.057577
       6A2     4.111576    23A1     4.116243    24A1     4.409335
      14B2     4.544200    14B1     4.553523    25A1     5.168087
      26A1     7.004641

    Final Occupation by Irrep:
             A1    A2    B1    B2
    DOCC [     4,    0,    0,    1 ]
    SOCC [     1,    0,    1,    0 ]
    NA   [     5,    0,    1,    1 ]
    NB   [     4,    0,    0,    1 ]

  @DF-UKS Final Energy:   -92.16764102537944

   => Energetics <=

    Nuclear Repulsion Energy =             14.5201980901926433
    One-Electron Energy =                -148.2059609963125126
    Two-Electron Energy =                  50.9009013933037764
    DFT Exchange-Correlation Energy =      -9.3827795125633511
    Empirical Dispersion Energy =           0.0000000000000000
    VV10 Nonlocal Energy =                  0.0000000000000000
    Total Energy =                        -92.1676410253794387

  UHF NO Occupations:
  HONO-2 :    1 B2 1.9488202
  HONO-1 :    5 A1 1.0000000
  HONO-0 :    1 B1 1.0000000
  LUNO+0 :    2 B2 0.0511798
  LUNO+1 :    6 A1 0.0044005
  LUNO+2 :    7 A1 0.0004472
  LUNO+3 :    8 A1 0.0000008

Computation Completed

Properties will be evaluated at   0.000000,   0.000000,   0.000000 [a0]

Properties computed using the B3LYP density matrix

 Multipole Moments:

 ------------------------------------------------------------------------------------
     Multipole            Electronic (a.u.)      Nuclear  (a.u.)        Total (a.u.)
 ------------------------------------------------------------------------------------

 L = 1.  Multiply by 2.5417464519 to convert [e a0] to [Debye]
 Dipole X            :          0.0000000            0.0000000            0.0000000
 Dipole Y            :          0.0000000            0.0000000            0.0000000
 Dipole Z            :          0.5801778            0.0020517            0.5822295
 Magnitude           :                                                    0.5822295

 L = 2.  Multiply by 1.3450342976 to convert [e a0^2] to [Debye ang]
 Quadrupole XX       :         -6.1011922            0.0000000           -6.1011922
 Quadrupole XY       :          0.0000000            0.0000000            0.0000000
 Quadrupole XZ       :          0.0000000            0.0000000            0.0000000
 Quadrupole YY       :         -7.2500434            0.0000000           -7.2500434
 Quadrupole YZ       :          0.0000000            0.0000000            0.0000000
 Quadrupole ZZ       :        -30.6837885           27.0308338           -3.6529548
 Traceless XX        :          8.5771491           -9.0102779           -0.4331288
 Traceless YY        :          7.4282980           -9.0102779           -1.5819799
 Traceless ZZ        :        -16.0054472           18.0205558            2.0151087

 ------------------------------------------------------------------------------------
  ==> Computing MBIS Charges <==

  Electron Count from Grid (Expected Number): 12.00000 (12.00000)
  Difference: -0.00000

  MBIS Charges: (a.u.)
   Center  Symbol  Z      Pop.       Charge
      1       N    7    6.712814    0.287186
      2       C    6    5.287186    0.712814

  MBIS Dipoles: [e a0]
   Center  Symbol  Z        X           Y           Z
      1       N    7   -0.000000   -0.000000   -0.267009
      2       C    6   -0.000000    0.000000    0.122259

  MBIS Quadrupoles: [e a0^2]
   Center  Symbol  Z      XX        XY        XZ        YY        YZ        ZZ
      1       N    7   -3.2979   -0.0000   -0.0000   -3.8231    0.0000   -3.6276
      2       C    6   -2.8033   -0.0000    0.0000   -3.4269    0.0000   -3.3603

  MBIS Octupoles: [e a0^3]
   Center  Symbol  Z      XXX       XXY       XXZ       XYY       XYZ       XZZ       YYY       YYZ       YZZ       ZZZ
      1       N    7   -0.0000   -0.0000   -0.2021    0.0000    0.0000   -0.0000    0.0000   -0.3813   -0.0000   -0.9130
      2       C    6   -0.0000    0.0000    0.1568   -0.0000    0.0000   -0.0000    0.0000    0.3272    0.0000    0.5928

  MBIS Radial Moments:
   Center  Symbol  Z      [a0^2]      [a0^3]      [a0^4]
      1       N    7   10.748590   21.529831   51.406595
      2       C    6    9.590558   21.102098   55.247869

  MBIS Valence Widths: [a0]
   Center  Symbol  Z     Width
      1       N    7    0.424257
      2       C    6    0.474877

*** tstop() called on Mac.lan at Sun Aug 10 18:34:36 2025
Module time:
	user time   =       4.70 seconds =       0.08 minutes
	system time =       1.68 seconds =       0.03 minutes
	total time  =          0 seconds =       0.00 minutes
Total time:
	user time   =      20.99 seconds =       0.35 minutes
	system time =       3.76 seconds =       0.06 minutes
	total time  =          2 seconds =       0.03 minutes

    Psi4 stopped on: Sunday, 10 August 2025 06:34PM
    Psi4 wall time for execution: 0:00:02.39

*** Psi4 exiting successfully. Buy a developer a beer!
