                               Psi4 1.9.1 release

  ==> Input File <==

--------------------------------------------------------------------------
molecule {
1 2
O           0.000000           0.000000           0.000000
O           0.000000           0.000000           0.663788
}

set {
basis              cc-pvtz
reference          uks
maxiter            500
DAMPING_PERCENTAGE 1
E_CONVERGENCE      1.0E-8
D_CONVERGENCE      1.0E-8
DIIS_MAX_VECS      400
MBIS_MAXITER       8000
guess              read
}

E, wfn = energy('b3lyp', restart_file='last_wfn', return_wfn=True)
properties('b3lyp','MBIS_CHARGES', wfn=wfn)
wfn.to_file('last_wfn')
--------------------------------------------------------------------------

    Molecular point group: d2h
  Charge       = 1
  Multiplicity = 2
  Basis Set: CC-PVTZ
    Blend: CC-PVTZ
  Basis Set: (CC-PVTZ AUX)
    Blend: CC-PVTZ-JKFIT
  @DF-UKS Final Energy:  -148.19709128798581
    Total Energy =                       -148.1970912879858133
 Dipole X            :          0.0000000            0.0000000            0.0000000
 Dipole Y            :          0.0000000            0.0000000            0.0000000
 Dipole Z            :          0.0000000            0.0000000            0.0000000
 Magnitude           :                                                    0.0000000
    Molecular point group: d2h

    Geometry (in Angstrom), charge = 1, multiplicity = 2:

       Center              X                  Y                   Z               Mass
    ------------   -----------------  -----------------  -----------------  -----------------
         O            0.000000000000     0.000000000000    -0.331894000000    15.994914619570
         O            0.000000000000     0.000000000000     0.331894000000    15.994914619570

  Charge       = 1
  Multiplicity = 2
  Basis Set: CC-PVTZ
    Blend: CC-PVTZ
  Basis Set: (CC-PVTZ AUX)
    Blend: CC-PVTZ-JKFIT

    Orbital Energies [Eh]
    ---------------------

    Alpha Occupied:

       1Ag   -19.865275     1B1u  -19.804544     2Ag    -2.396820
       1B3u   -1.480513     1B2u   -1.465196     3Ag    -1.167339
       2B1u   -1.135114     1B2g   -0.412610

    Alpha Virtual:

       1B3g   -0.293715     2B2u    0.020066     2B3u    0.022785
       3B1u    0.037946     4Ag     0.129736     5Ag     0.259551
       2B2g    0.341353     2B3g    0.360141     1B1g    0.646097
       6Ag     0.647481     4B1u    0.841723     5B1u    1.267713
       3B3u    1.312899     3B2u    1.320435     1Au     1.436069
       6B1u    1.438393     7Ag     1.538467     3B2g    1.848276
       3B3g    1.860285     4B2u    2.656808     4B3u    2.659157
       7B1u    3.359067     8Ag     3.688323     4B2g    3.747211
       4B3g    3.756868     5B3u    3.969585     5B2u    3.969719
       8B1u    4.202887     2B1g    4.221038     9Ag     4.222341
       6B3u    4.909605     6B2u    4.914232    10Ag     5.164159
       5B2g    5.218407     5B3g    5.218643     2Au     5.367552
       9B1u    5.370458     6B2g    5.411538     6B3g    5.414463
       3B1g    5.547974    11Ag     5.550696    12Ag     5.579087
      10B1u    6.417091     7B2u    6.909192     7B3u    6.911285
       3Au     7.351958    11B1u    7.353970    12B1u    9.535206
       7B2g    9.888763     7B3g    9.892614    13Ag    11.278160
      13B1u   35.513496

    Beta Occupied:

       1Ag   -19.852649     1B1u  -19.791611     2Ag    -2.383441
       1B2u   -1.454659     1B3u   -1.410078     3Ag    -1.136645
       2B1u   -1.090168

    Beta Virtual:

       1B3g   -0.278141     1B2g   -0.236734     2B2u    0.022612
       2B3u    0.042356     3B1u    0.045032     4Ag     0.134183
       5Ag     0.272778     2B3g    0.367185     2B2g    0.390132
       1B1g    0.666833     6Ag     0.667133     4B1u    0.861009
       5B1u    1.288643     3B2u    1.326483     3B3u    1.359176
       1Au     1.475719     6B1u    1.476519     7Ag     1.545324
       3B3g    1.866750     3B2g    1.891368     4B2u    2.663799
       4B3u    2.699522     7B1u    3.375852     8Ag     3.701267
       4B3g    3.767834     4B2g    3.805349     5B2u    3.994299
       5B3u    3.994318     8B1u    4.235229     2B1g    4.239312
       9Ag     4.239897     6B2u    4.920533     6B3u    4.957948
      10Ag     5.181451     5B3g    5.258784     5B2g    5.258851
       9B1u    5.414984     2Au     5.415277     6B3g    5.419746
       6B2g    5.454931    11Ag     5.586611     3B1g    5.593119
      12Ag     5.599426    10B1u    6.434963     7B2u    6.913745
       7B3u    6.948748     3Au     7.387782    11B1u    7.387922
      12B1u    9.548947     7B3g    9.900751     7B2g    9.939864
      13Ag    11.304063    13B1u   35.528701

    Final Occupation by Irrep:
             Ag   B1g   B2g   B3g    Au   B1u   B2u   B3u
    DOCC [     3,    0,    0,    0,    0,    2,    1,    1 ]
    SOCC [     0,    0,    1,    0,    0,    0,    0,    0 ]
    NA   [     3,    0,    1,    0,    0,    2,    1,    1 ]
    NB   [     3,    0,    0,    0,    0,    2,    1,    1 ]

  @DF-UKS Final Energy:  -148.19709128797945

   => Energetics <=

    Nuclear Repulsion Energy =             51.0213222939854418
    One-Electron Energy =                -293.3882104705630809
    Two-Electron Energy =                 108.4105618656923440
    DFT Exchange-Correlation Energy =     -14.2407649770941429
    Empirical Dispersion Energy =           0.0000000000000000
    VV10 Nonlocal Energy =                  0.0000000000000000
    Total Energy =                       -148.1970912879794184

  UHF NO Occupations:
  HONO-2 :    1B3u 1.9998634
  HONO-1 :    2B1u 1.9998371
  HONO-0 :    1B2g 1.0000000
  LUNO+0 :    3B1u 0.0001629
  LUNO+1 :    2B3u 0.0001366
  LUNO+2 :    4 Ag 0.0001125
  LUNO+3 :    2B2u 0.0000085

Computation Completed

Properties will be evaluated at   0.000000,   0.000000,   0.000000 [a0]

Properties computed using the B3LYP density matrix

 Multipole Moments:

 ------------------------------------------------------------------------------------
     Multipole            Electronic (a.u.)      Nuclear  (a.u.)        Total (a.u.)
 ------------------------------------------------------------------------------------

 L = 1.  Multiply by 2.5417464519 to convert [e a0] to [Debye]
 Dipole X            :          0.0000000            0.0000000            0.0000000
 Dipole Y            :          0.0000000            0.0000000            0.0000000
 Dipole Z            :          0.0000000            0.0000000            0.0000000
 Magnitude           :                                                    0.0000000

 L = 2.  Multiply by 1.3450342976 to convert [e a0^2] to [Debye ang]
 Quadrupole XX       :         -5.5123036            0.0000000           -5.5123036
 Quadrupole XY       :          0.0000000            0.0000000            0.0000000
 Quadrupole XZ       :          0.0000000            0.0000000            0.0000000
 Quadrupole YY       :         -4.7243623            0.0000000           -4.7243623
 Quadrupole YZ       :          0.0000000            0.0000000            0.0000000
 Quadrupole ZZ       :        -12.1376452            6.2938519           -5.8437933
 Traceless XX        :          1.9458001           -2.0979506           -0.1521505
 Traceless YY        :          2.7337414           -2.0979506            0.6357907
 Traceless ZZ        :         -4.6795415            4.1959013           -0.4836402

 ------------------------------------------------------------------------------------
  ==> Computing MBIS Charges <==

  Electron Count from Grid (Expected Number): 15.00000 (15.00000)
  Difference:  0.00000

  MBIS Charges: (a.u.)
   Center  Symbol  Z      Pop.       Charge
      1       O    8    7.500000    0.500000
      2       O    8    7.500000    0.500000

  MBIS Dipoles: [e a0]
   Center  Symbol  Z        X           Y           Z
      1       O    8   -0.000000   -0.000000    0.137557
      2       O    8   -0.000000    0.000000   -0.137557

  MBIS Quadrupoles: [e a0^2]
   Center  Symbol  Z      XX        XY        XZ        YY        YZ        ZZ
      1       O    8   -2.7562   -0.0000   -0.0000   -2.3622   -0.0000   -2.9460
      2       O    8   -2.7562    0.0000   -0.0000   -2.3622    0.0000   -2.9460

  MBIS Octupoles: [e a0^3]
   Center  Symbol  Z      XXX       XXY       XXZ       XYY       XYZ       XZZ       YYY       YYZ       YZZ       ZZZ
      1       O    8   -0.0000   -0.0000    0.3402   -0.0000   -0.0000   -0.0000    0.0000    0.1441    0.0000    0.2663
      2       O    8   -0.0000   -0.0000   -0.3402    0.0000    0.0000   -0.0000   -0.0000   -0.1441    0.0000   -0.2663

  MBIS Radial Moments:
   Center  Symbol  Z      [a0^2]      [a0^3]      [a0^4]
      1       O    8    8.064364   13.441192   27.338426
      2       O    8    8.064364   13.441192   27.338426

  MBIS Valence Widths: [a0]
   Center  Symbol  Z     Width
      1       O    8    0.335881
      2       O    8    0.335881

*** tstop() called on Mac.lan at Sun Aug 10 18:13:22 2025
Module time:
	user time   =       4.18 seconds =       0.07 minutes
	system time =       2.65 seconds =       0.04 minutes
	total time  =          1 seconds =       0.02 minutes
Total time:
	user time   =      18.07 seconds =       0.30 minutes
	system time =       5.12 seconds =       0.09 minutes
	total time  =          3 seconds =       0.05 minutes

    Psi4 stopped on: Sunday, 10 August 2025 06:13PM
    Psi4 wall time for execution: 0:00:02.25

*** Psi4 exiting successfully. Buy a developer a beer!
