                               Psi4 1.9.1 release

  ==> Input File <==

--------------------------------------------------------------------------
molecule {
1 2
O           0.000000           0.000000           0.000000
C           0.000000           0.000000           0.849483
}

set {
basis              cc-pvtz
reference          uks
maxiter            500
DAMPING_PERCENTAGE 1
E_CONVERGENCE      1.0E-8
D_CONVERGENCE      1.0E-8
DIIS_MAX_VECS      400
MBIS_MAXITER       8000
guess              read
}

E, wfn = energy('b3lyp', restart_file='last_wfn', return_wfn=True)
properties('b3lyp','MBIS_CHARGES', wfn=wfn)
wfn.to_file('last_wfn')
--------------------------------------------------------------------------

    Molecular point group: c2v
  Charge       = 1
  Multiplicity = 2
  Basis Set: CC-PVTZ
    Blend: CC-PVTZ
  Basis Set: (CC-PVTZ AUX)
    Blend: CC-PVTZ-JKFIT
  @DF-UKS Final Energy:  -112.51060072016261
    Total Energy =                       -112.5106007201626142
 Dipole X            :          0.0000000            0.0000000            0.0000000
 Dipole Y            :          0.0000000            0.0000000            0.0000000
 Dipole Z            :          0.8757063           -0.0017496            0.8739567
 Magnitude           :                                                    0.8739567
    Molecular point group: c2v

    Geometry (in Angstrom), charge = 1, multiplicity = 2:

       Center              X                  Y                   Z               Mass
    ------------   -----------------  -----------------  -----------------  -----------------
         O            0.000000000000     0.000000000000    -0.364130276464    15.994914619570
         C            0.000000000000     0.000000000000     0.485352723536    12.000000000000

  Charge       = 1
  Multiplicity = 2
  Basis Set: CC-PVTZ
    Blend: CC-PVTZ
  Basis Set: (CC-PVTZ AUX)
    Blend: CC-PVTZ-JKFIT

    Orbital Energies [Eh]
    ---------------------

    Alpha Occupied:

       1A1   -19.614736     2A1   -10.726976     3A1    -1.718318
       1B1    -1.001252     1B2    -1.001252     4A1    -0.932397
       5A1    -0.875425

    Alpha Virtual:

       2B1    -0.298495     2B2    -0.298495     6A1    -0.102244
       7A1    -0.025502     3B1    -0.022613     3B2    -0.022613
       8A1     0.240221     1A2     0.267198     9A1     0.267198
       4B1     0.325146     4B2     0.325146    10A1     0.469117
       5B1     0.606995     5B2     0.606995    11A1     0.902803
      12A1     1.232266     2A2     1.232266    13A1     1.340194
       6B1     1.361065     6B2     1.361065    14A1     1.606499
       7B1     1.754765     7B2     1.754765     8B1     2.205487
       8B2     2.205487    15A1     2.296055     3A2     2.418506
      16A1     2.418506     9B1     2.539581     9B2     2.539581
       4A2     2.627650    17A1     2.627650    18A1     2.661998
      10B2     3.228273    10B1     3.228273    19A1     3.490679
      11B1     3.861773    11B2     3.861773    12B2     4.789127
      12B1     4.789127    20A1     5.082225     5A2     5.617137
      21A1     5.617137     6A2     5.903776    22A1     5.903776
      23A1     5.962836    13B2     6.146089    13B1     6.146089
      24A1     6.661340    14B1     6.801487    14B2     6.801487
      25A1     8.751366    26A1    15.576306

    Beta Occupied:

       1A1   -19.615245     2A1   -10.701921     3A1    -1.711917
       1B1    -0.991846     1B2    -0.991846     4A1    -0.931781

    Beta Virtual:

       5A1    -0.628388     2B1    -0.255050     2B2    -0.255050
       6A1    -0.089406     3B1    -0.010237     3B2    -0.010237
       7A1     0.016596     8A1     0.258643     1A2     0.286784
       9A1     0.286784     4B1     0.328233     4B2     0.328233
      10A1     0.517358     5B1     0.639695     5B2     0.639695
      11A1     0.909191     2A2     1.234798    12A1     1.234798
       6B1     1.381630     6B2     1.381630    13A1     1.410062
      14A1     1.639628     7B1     1.777900     7B2     1.777900
       8B1     2.239731     8B2     2.239731    15A1     2.349795
       3A2     2.479286    16A1     2.479286     9B1     2.646516
       9B2     2.646516     4A2     2.671852    17A1     2.671854
      18A1     2.755799    10B2     3.248672    10B1     3.248672
      19A1     3.538207    11B1     3.883415    11B2     3.883415
      12B2     4.785584    12B1     4.785584    20A1     5.102307
       5A2     5.620614    21A1     5.620615     6A2     5.899114
      22A1     5.899114    23A1     5.979172    13B2     6.147991
      13B1     6.147991    24A1     6.671682    14B1     6.824436
      14B2     6.824436    25A1     8.765295    26A1    15.608789

    Final Occupation by Irrep:
             A1    A2    B1    B2
    DOCC [     4,    0,    1,    1 ]
    SOCC [     1,    0,    0,    0 ]
    NA   [     5,    0,    1,    1 ]
    NB   [     4,    0,    1,    1 ]

  @DF-UKS Final Energy:  -112.51060072019614

   => Energetics <=

    Nuclear Repulsion Energy =             29.9011352930664920
    One-Electron Energy =                -205.8964780162148713
    Two-Electron Energy =                  74.7771656676549981
    DFT Exchange-Correlation Energy =     -11.2924236647027509
    Empirical Dispersion Energy =           0.0000000000000000
    VV10 Nonlocal Energy =                  0.0000000000000000
    Total Energy =                       -112.5106007201961376

  UHF NO Occupations:
  HONO-2 :    1 B1 1.9988191
  HONO-1 :    1 B2 1.9988191
  HONO-0 :    5 A1 1.0000000
  LUNO+0 :    2 B1 0.0011809
  LUNO+1 :    2 B2 0.0011809
  LUNO+2 :    6 A1 0.0000122
  LUNO+3 :    7 A1 0.0000036

Computation Completed

Properties will be evaluated at   0.000000,   0.000000,   0.000000 [a0]

Properties computed using the B3LYP density matrix

 Multipole Moments:

 ------------------------------------------------------------------------------------
     Multipole            Electronic (a.u.)      Nuclear  (a.u.)        Total (a.u.)
 ------------------------------------------------------------------------------------

 L = 1.  Multiply by 2.5417464519 to convert [e a0] to [Debye]
 Dipole X            :          0.0000000            0.0000000            0.0000000
 Dipole Y            :          0.0000000            0.0000000            0.0000000
 Dipole Z            :          0.8757063           -0.0017496            0.8739567
 Magnitude           :                                                    0.8739567

 L = 2.  Multiply by 1.3450342976 to convert [e a0^2] to [Debye ang]
 Quadrupole XX       :         -5.3204247            0.0000000           -5.3204247
 Quadrupole XY       :          0.0000000            0.0000000            0.0000000
 Quadrupole XZ       :          0.0000000            0.0000000            0.0000000
 Quadrupole YY       :         -5.3204247            0.0000000           -5.3204247
 Quadrupole YZ       :          0.0000000            0.0000000            0.0000000
 Quadrupole ZZ       :        -13.4238282            8.8352803           -4.5885480
 Traceless XX        :          2.7011345           -2.9450934           -0.2439589
 Traceless YY        :          2.7011345           -2.9450934           -0.2439589
 Traceless ZZ        :         -5.4022691            5.8901869            0.4879178

 ------------------------------------------------------------------------------------
  ==> Computing MBIS Charges <==

  Electron Count from Grid (Expected Number): 13.00000 (13.00000)
  Difference: -0.00000

  MBIS Charges: (a.u.)
   Center  Symbol  Z      Pop.       Charge
      1       O    8    8.065314   -0.065314
      2       C    6    4.934685    1.065315

  MBIS Dipoles: [e a0]
   Center  Symbol  Z        X           Y           Z
      1       O    8    0.000000   -0.000000   -0.210554
      2       C    6   -0.000000    0.000000    0.062478

  MBIS Quadrupoles: [e a0^2]
   Center  Symbol  Z      XX        XY        XZ        YY        YZ        ZZ
      1       O    8   -3.1353    0.0000   -0.0000   -3.1353   -0.0000   -3.4276
      2       C    6   -2.1851   -0.0000   -0.0000   -2.1851    0.0000   -2.4306

  MBIS Octupoles: [e a0^3]
   Center  Symbol  Z      XXX       XXY       XXZ       XYY       XYZ       XZZ       YYY       YYZ       YZZ       ZZZ
      1       O    8    0.0000    0.0000   -0.1252   -0.0000   -0.0000   -0.0000    0.0000   -0.1252    0.0000   -0.1332
      2       C    6   -0.0000    0.0000   -0.0141   -0.0000    0.0000    0.0000    0.0000   -0.0141    0.0000   -0.2267

  MBIS Radial Moments:
   Center  Symbol  Z      [a0^2]      [a0^3]      [a0^4]
      1       O    8    9.698294   16.466991   33.475534
      2       C    6    6.800723   13.332166   31.332056

  MBIS Valence Widths: [a0]
   Center  Symbol  Z     Width
      1       O    8    0.355287
      2       C    6    0.414610

*** tstop() called on Mac.lan at Sun Aug 10 18:36:56 2025
Module time:
	user time   =       4.53 seconds =       0.08 minutes
	system time =       1.95 seconds =       0.03 minutes
	total time  =          0 seconds =       0.00 minutes
Total time:
	user time   =      20.19 seconds =       0.34 minutes
	system time =       3.73 seconds =       0.06 minutes
	total time  =          2 seconds =       0.03 minutes

    Psi4 stopped on: Sunday, 10 August 2025 06:36PM
    Psi4 wall time for execution: 0:00:02.36

*** Psi4 exiting successfully. Buy a developer a beer!
