                               Psi4 1.9.1 release

  ==> Input File <==

--------------------------------------------------------------------------
molecule {
1 2
H           0.000000           0.000000           0.000000
H           0.000000           0.000000           0.913747
}

set {
basis              cc-pvtz
reference          uks
maxiter            500
DAMPING_PERCENTAGE 1
E_CONVERGENCE      1.0E-8
D_CONVERGENCE      1.0E-8
DIIS_MAX_VECS      400
MBIS_MAXITER       8000
guess              read
}

E, wfn = energy('b3lyp', restart_file='last_wfn', return_wfn=True)
properties('b3lyp','MBIS_CHARGES', wfn=wfn)
wfn.to_file('last_wfn')
--------------------------------------------------------------------------

    Molecular point group: d2h
  Charge       = 1
  Multiplicity = 2
  Basis Set: CC-PVTZ
    Blend: CC-PVTZ
  Basis Set: (CC-PVTZ AUX)
    Blend: CC-PVTZ-JKFIT
  @DF-UKS Final Energy:    -0.60242879301825
    Total Energy =                         -0.6024287930182541
 Dipole X            :          0.0000000            0.0000000            0.0000000
 Dipole Y            :          0.0000000            0.0000000            0.0000000
 Dipole Z            :          0.0000000            0.0000000            0.0000000
 Magnitude           :                                                    0.0000000
    Molecular point group: d2h

    Geometry (in Angstrom), charge = 1, multiplicity = 2:

       Center              X                  Y                   Z               Mass
    ------------   -----------------  -----------------  -----------------  -----------------
         H            0.000000000000     0.000000000000    -0.456873500000     1.007825032230
         H            0.000000000000     0.000000000000     0.456873500000     1.007825032230

  Charge       = 1
  Multiplicity = 2
  Basis Set: CC-PVTZ
    Blend: CC-PVTZ
  Basis Set: (CC-PVTZ AUX)
    Blend: CC-PVTZ-JKFIT

    Orbital Energies [Eh]
    ---------------------

    Alpha Occupied:

       1Ag    -0.975722

    Alpha Virtual:

       1B1u   -0.382030     2Ag    -0.106364     1B2u    0.046837
       1B3u    0.046837     2B1u    0.054135     3Ag     0.437136
       1B3g    0.495972     1B2g    0.495972     3B1u    0.947696
       4Ag     1.621410     4B1u    1.666749     1B1g    2.367724
       5Ag     2.367724     2B2u    2.402102     2B3u    2.402102
       6Ag     2.649586     1Au     3.105869     5B1u    3.105869
       3B2u    3.138292     3B3u    3.138292     2B2g    3.149925
       2B3g    3.149925     6B1u    3.411698     3B2g    4.291917
       3B3g    4.291917     7Ag     4.333805     7B1u    5.416971

    Beta Occupied:

    Beta Virtual:

       1Ag    -0.597932     1B1u   -0.218014     2Ag    -0.017013
       2B1u    0.181533     1B2u    0.190797     1B3u    0.190797
       3Ag     0.564510     1B3g    0.604038     1B2g    0.604038
       3B1u    1.041012     4Ag     1.912760     4B1u    1.945440
       5Ag     2.562765     1B1g    2.562765     2B2u    2.647749
       2B3u    2.647749     6Ag     2.932305     5B1u    3.291351
       1Au     3.291351     3B3u    3.366003     3B2u    3.366003
       2B2g    3.385425     2B3g    3.385425     6B1u    3.615422
       3B3g    4.506829     3B2g    4.506829     7Ag     4.569700
       7B1u    5.722605

    Final Occupation by Irrep:
             Ag   B1g   B2g   B3g    Au   B1u   B2u   B3u
    DOCC [     0,    0,    0,    0,    0,    0,    0,    0 ]
    SOCC [     1,    0,    0,    0,    0,    0,    0,    0 ]
    NA   [     1,    0,    0,    0,    0,    0,    0,    0 ]
    NB   [     0,    0,    0,    0,    0,    0,    0,    0 ]

  @DF-UKS Final Energy:    -0.60242879306731

   => Energetics <=

    Nuclear Repulsion Energy =              0.5791288077224876
    One-Electron Energy =                  -1.1758758597529160
    Two-Electron Energy =                   0.2837345080474615
    DFT Exchange-Correlation Energy =      -0.2894162490843437
    Empirical Dispersion Energy =           0.0000000000000000
    VV10 Nonlocal Energy =                  0.0000000000000000
    Total Energy =                         -0.6024287930673105

  UHF NO Occupations:
  HONO-0 :    1 Ag 1.0000000
  LUNO+0 :    2 Ag 0.0000000
  LUNO+1 :    3 Ag 0.0000000
  LUNO+2 :    4 Ag 0.0000000
  LUNO+3 :    3B3u 0.0000000

Computation Completed

Properties will be evaluated at   0.000000,   0.000000,   0.000000 [a0]

Properties computed using the B3LYP density matrix

 Multipole Moments:

 ------------------------------------------------------------------------------------
     Multipole            Electronic (a.u.)      Nuclear  (a.u.)        Total (a.u.)
 ------------------------------------------------------------------------------------

 L = 1.  Multiply by 2.5417464519 to convert [e a0] to [Debye]
 Dipole X            :          0.0000000            0.0000000            0.0000000
 Dipole Y            :          0.0000000            0.0000000            0.0000000
 Dipole Z            :          0.0000000            0.0000000            0.0000000
 Magnitude           :                                                    0.0000000

 L = 2.  Multiply by 1.3450342976 to convert [e a0^2] to [Debye ang]
 Quadrupole XX       :         -0.5785342            0.0000000           -0.5785342
 Quadrupole XY       :          0.0000000            0.0000000            0.0000000
 Quadrupole XZ       :          0.0000000            0.0000000            0.0000000
 Quadrupole YY       :         -0.5785342            0.0000000           -0.5785342
 Quadrupole YZ       :          0.0000000            0.0000000            0.0000000
 Quadrupole ZZ       :         -0.9486615            1.4908010            0.5421395
 Traceless XX        :          0.1233758           -0.4969337           -0.3735579
 Traceless YY        :          0.1233758           -0.4969337           -0.3735579
 Traceless ZZ        :         -0.2467515            0.9938673            0.7471158

 ------------------------------------------------------------------------------------
  ==> Computing MBIS Charges <==

  Electron Count from Grid (Expected Number):  1.00000 ( 1.00000)
  Difference:  0.00000

  MBIS Charges: (a.u.)
   Center  Symbol  Z      Pop.       Charge
      1       H    1    0.500000    0.500000
      2       H    1    0.500000    0.500000

  MBIS Dipoles: [e a0]
   Center  Symbol  Z        X           Y           Z
      1       H    1    0.000000    0.000000   -0.091156
      2       H    1   -0.000000    0.000000    0.091156

  MBIS Quadrupoles: [e a0^2]
   Center  Symbol  Z      XX        XY        XZ        YY        YZ        ZZ
      1       H    1   -0.2893   -0.0000   -0.0000   -0.2893   -0.0000   -0.2590
      2       H    1   -0.2893   -0.0000   -0.0000   -0.2893    0.0000   -0.2590

  MBIS Octupoles: [e a0^3]
   Center  Symbol  Z      XXX       XXY       XXZ       XYY       XYZ       XZZ       YYY       YYZ       YZZ       ZZZ
      1       H    1   -0.0000    0.0000   -0.0554   -0.0000    0.0000    0.0000    0.0000   -0.0554    0.0000   -0.1040
      2       H    1   -0.0000    0.0000    0.0554   -0.0000   -0.0000    0.0000    0.0000    0.0554    0.0000    0.1040

  MBIS Radial Moments:
   Center  Symbol  Z      [a0^2]      [a0^3]      [a0^4]
      1       H    1    0.837567    1.507946    3.225507
      2       H    1    0.837567    1.507946    3.225507

  MBIS Valence Widths: [a0]
   Center  Symbol  Z     Width
      1       H    1    0.379898
      2       H    1    0.379898

*** tstop() called on Mac.lan at Sun Aug 10 18:11:19 2025
Module time:
	user time   =       0.54 seconds =       0.01 minutes
	system time =       1.40 seconds =       0.02 minutes
	total time  =          1 seconds =       0.02 minutes
Total time:
	user time   =       1.38 seconds =       0.02 minutes
	system time =       3.60 seconds =       0.06 minutes
	total time  =          1 seconds =       0.02 minutes

    Psi4 stopped on: Sunday, 10 August 2025 06:11PM
    Psi4 wall time for execution: 0:00:00.73

*** Psi4 exiting successfully. Buy a developer a beer!
