                               Psi4 1.9.1 release

  ==> Input File <==

--------------------------------------------------------------------------
molecule {
1 2
O           0.000000           0.000000           0.000000
O           0.000000           0.000000           0.887309
}

set {
basis              cc-pvtz
reference          uks
maxiter            500
DAMPING_PERCENTAGE 1
E_CONVERGENCE      1.0E-8
D_CONVERGENCE      1.0E-8
DIIS_MAX_VECS      400
MBIS_MAXITER       8000
guess              read
}

E, wfn = energy('b3lyp', restart_file='last_wfn', return_wfn=True)
properties('b3lyp','MBIS_CHARGES', wfn=wfn)
wfn.to_file('last_wfn')
--------------------------------------------------------------------------

    Molecular point group: d2h
  Charge       = 1
  Multiplicity = 2
  Basis Set: CC-PVTZ
    Blend: CC-PVTZ
  Basis Set: (CC-PVTZ AUX)
    Blend: CC-PVTZ-JKFIT
  @DF-UKS Final Energy:  -149.71985687368260
    Total Energy =                       -149.7198568736826019
 Dipole X            :          0.0000000            0.0000000            0.0000000
 Dipole Y            :          0.0000000            0.0000000            0.0000000
 Dipole Z            :          0.0000000            0.0000000            0.0000000
 Magnitude           :                                                    0.0000000
    Molecular point group: d2h

    Geometry (in Angstrom), charge = 1, multiplicity = 2:

       Center              X                  Y                   Z               Mass
    ------------   -----------------  -----------------  -----------------  -----------------
         O            0.000000000000     0.000000000000    -0.443654500000    15.994914619570
         O            0.000000000000     0.000000000000     0.443654500000    15.994914619570

  Charge       = 1
  Multiplicity = 2
  Basis Set: CC-PVTZ
    Blend: CC-PVTZ
  Basis Set: (CC-PVTZ AUX)
    Blend: CC-PVTZ-JKFIT

    Orbital Energies [Eh]
    ---------------------

    Alpha Occupied:

       1Ag   -19.798307     1B1u  -19.793828     2Ag    -2.143175
       1B3u   -1.212902     2B1u   -1.190612     1B2u   -1.184763
       3Ag    -1.073619     1B2g   -0.617886

    Alpha Virtual:

       1B3g   -0.489346     3B1u    0.043920     2B2u    0.093529
       2B3u    0.095316     4Ag     0.165482     5Ag     0.254219
       2B2g    0.300273     2B3g    0.311364     4B1u    0.564464
       1B1g    0.695098     6Ag     0.696405     5B1u    0.852355
       3B3u    1.104331     3B2u    1.106259     1Au     1.336428
       6B1u    1.338296     7Ag     1.740436     3B2g    1.865870
       3B3g    1.871782     7B1u    2.208077     4B3u    2.915938
       4B2u    2.927680     8Ag     3.370678     4B2g    3.509170
       4B3g    3.519696     8B1u    3.933479     2B1g    4.096178
       9Ag     4.097427     5B3u    4.153787     5B2u    4.154006
       6B2u    4.422257     6B3u    4.425496     5B2g    4.929183
       5B3g    4.929476    10Ag     4.982399     6B2g    5.465483
       6B3g    5.471154     3B1g    5.503733    11Ag     5.507550
       2Au     5.686353     9B1u    5.690211    10B1u    5.882883
      12Ag     6.091213     3Au     6.181935    11B1u    6.183716
       7B2u    6.398312     7B3u    6.398574    12B1u    7.489571
       7B2g    8.425104     7B3g    8.425781    13Ag     8.791551
      13B1u   24.666064

    Beta Occupied:

       1Ag   -19.782297     1B1u  -19.777656     2Ag    -2.122432
       1B2u   -1.171821     2B1u   -1.144596     1B3u   -1.125318
       3Ag    -1.045976

    Beta Virtual:

       1B3g   -0.471483     1B2g   -0.423634     3B1u    0.050993
       2B2u    0.096604     2B3u    0.115695     4Ag     0.167409
       5Ag     0.267701     2B3g    0.316984     2B2g    0.336946
       4B1u    0.586297     1B1g    0.715754     6Ag     0.715999
       5B1u    0.871010     3B2u    1.110048     3B3u    1.142017
       1Au     1.371806     6B1u    1.371975     7Ag     1.751410
       3B3g    1.876916     3B2g    1.902671     7B1u    2.223666
       4B2u    2.938550     4B3u    2.977998     8Ag     3.382918
       4B3g    3.531685     4B2g    3.573232     8B1u    3.958235
       2B1g    4.114019     9Ag     4.114454     5B2u    4.185701
       5B3u    4.185738     6B2u    4.427040     6B3u    4.462552
       5B3g    4.969787     5B2g    4.969810    10Ag     4.997467
       6B3g    5.475885     6B2g    5.509766    11Ag     5.560482
       3B1g    5.560644     9B1u    5.742687     2Au     5.744163
      10B1u    5.903341    12Ag     6.115161     3Au     6.211548
      11B1u    6.212543     7B2u    6.403479     7B3u    6.441653
      12B1u    7.508053     7B3g    8.432333     7B2g    8.470871
      13Ag     8.813150    13B1u   24.686748

    Final Occupation by Irrep:
             Ag   B1g   B2g   B3g    Au   B1u   B2u   B3u
    DOCC [     3,    0,    0,    0,    0,    2,    1,    1 ]
    SOCC [     0,    0,    1,    0,    0,    0,    0,    0 ]
    NA   [     3,    0,    1,    0,    0,    2,    1,    1 ]
    NB   [     3,    0,    0,    0,    0,    2,    1,    1 ]

  @DF-UKS Final Energy:  -149.71985687514652

   => Energetics <=

    Nuclear Repulsion Energy =             38.1685990820334382
    One-Electron Energy =                -272.7413880155955894
    Two-Electron Energy =                  98.5801324967898580
    DFT Exchange-Correlation Energy =     -13.7272004383742008
    Empirical Dispersion Energy =           0.0000000000000000
    VV10 Nonlocal Energy =                  0.0000000000000000
    Total Energy =                       -149.7198568751464904

  UHF NO Occupations:
  HONO-2 :    2B1u 1.9997715
  HONO-1 :    1B3u 1.9995658
  HONO-0 :    1B2g 1.0000000
  LUNO+0 :    2B3u 0.0004342
  LUNO+1 :    3B1u 0.0002285
  LUNO+2 :    4 Ag 0.0001381
  LUNO+3 :    2B2u 0.0000193

Computation Completed

Properties will be evaluated at   0.000000,   0.000000,   0.000000 [a0]

Properties computed using the B3LYP density matrix

 Multipole Moments:

 ------------------------------------------------------------------------------------
     Multipole            Electronic (a.u.)      Nuclear  (a.u.)        Total (a.u.)
 ------------------------------------------------------------------------------------

 L = 1.  Multiply by 2.5417464519 to convert [e a0] to [Debye]
 Dipole X            :          0.0000000            0.0000000            0.0000000
 Dipole Y            :          0.0000000            0.0000000            0.0000000
 Dipole Z            :          0.0000000            0.0000000            0.0000000
 Magnitude           :                                                    0.0000000

 L = 2.  Multiply by 1.3450342976 to convert [e a0^2] to [Debye ang]
 Quadrupole XX       :         -5.7971784            0.0000000           -5.7971784
 Quadrupole XY       :          0.0000000            0.0000000            0.0000000
 Quadrupole XZ       :          0.0000000            0.0000000            0.0000000
 Quadrupole YY       :         -5.2059450            0.0000000           -5.2059450
 Quadrupole YZ       :          0.0000000            0.0000000            0.0000000
 Quadrupole ZZ       :        -16.7630027           11.2462439           -5.5167588
 Traceless XX        :          3.4581970           -3.7487480           -0.2905510
 Traceless YY        :          4.0494304           -3.7487480            0.3006824
 Traceless ZZ        :         -7.5076274            7.4974960           -0.0101314

 ------------------------------------------------------------------------------------
  ==> Computing MBIS Charges <==

  Electron Count from Grid (Expected Number): 15.00000 (15.00000)
  Difference: -0.00000

  MBIS Charges: (a.u.)
   Center  Symbol  Z      Pop.       Charge
      1       O    8    7.500000    0.500000
      2       O    8    7.500000    0.500000

  MBIS Dipoles: [e a0]
   Center  Symbol  Z        X           Y           Z
      1       O    8   -0.000000   -0.000000    0.071400
      2       O    8   -0.000000    0.000000   -0.071400

  MBIS Quadrupoles: [e a0^2]
   Center  Symbol  Z      XX        XY        XZ        YY        YZ        ZZ
      1       O    8   -2.8986    0.0000    0.0000   -2.6030   -0.0000   -2.9901
      2       O    8   -2.8986    0.0000   -0.0000   -2.6030    0.0000   -2.9901

  MBIS Octupoles: [e a0^3]
   Center  Symbol  Z      XXX       XXY       XXZ       XYY       XYZ       XZZ       YYY       YYZ       YZZ       ZZZ
      1       O    8   -0.0000   -0.0000    0.1560   -0.0000   -0.0000   -0.0000    0.0000    0.0490    0.0000    0.0314
      2       O    8   -0.0000   -0.0000   -0.1560    0.0000    0.0000   -0.0000    0.0000   -0.0490    0.0000   -0.0314

  MBIS Radial Moments:
   Center  Symbol  Z      [a0^2]      [a0^3]      [a0^4]
      1       O    8    8.491665   14.185543   28.499872
      2       O    8    8.491665   14.185543   28.499872

  MBIS Valence Widths: [a0]
   Center  Symbol  Z     Width
      1       O    8    0.347605
      2       O    8    0.347605

*** tstop() called on Mac.lan at Sun Aug 10 18:12:54 2025
Module time:
	user time   =       3.80 seconds =       0.06 minutes
	system time =       2.18 seconds =       0.04 minutes
	total time  =          1 seconds =       0.02 minutes
Total time:
	user time   =      15.01 seconds =       0.25 minutes
	system time =       4.04 seconds =       0.07 minutes
	total time  =          2 seconds =       0.03 minutes

    Psi4 stopped on: Sunday, 10 August 2025 06:12PM
    Psi4 wall time for execution: 0:00:01.87

*** Psi4 exiting successfully. Buy a developer a beer!
