                               Psi4 1.9.1 release

  ==> Input File <==

--------------------------------------------------------------------------
molecule {
1 1
C           0.000000           0.000000           0.000000
H           0.000000           0.000000           0.682029
}

set {
basis              cc-pvtz
reference          uks
maxiter            500
DAMPING_PERCENTAGE 1
E_CONVERGENCE      1.0E-8
D_CONVERGENCE      1.0E-8
DIIS_MAX_VECS      400
MBIS_MAXITER       8000
guess              read
}

E, wfn = energy('b3lyp', restart_file='last_wfn', return_wfn=True)
properties('b3lyp','MBIS_CHARGES', wfn=wfn)
wfn.to_file('last_wfn')
--------------------------------------------------------------------------

    Molecular point group: c2v
  Charge       = 1
  Multiplicity = 1
  Basis Set: CC-PVTZ
    Blend: CC-PVTZ
  Basis Set: (CC-PVTZ AUX)
    Blend: CC-PVTZ-JKFIT
  @DF-UKS Final Energy:   -37.80865852801325
    Total Energy =                        -37.8086585280132468
 Dipole X            :          0.0000000            0.0000000            0.0000000
 Dipole Y            :          0.0000000            0.0000000            0.0000000
 Dipole Z            :          0.1049930            0.5898431            0.6948361
 Magnitude           :                                                    0.6948361
    Molecular point group: c2v

    Geometry (in Angstrom), charge = 1, multiplicity = 1:

       Center              X                  Y                   Z               Mass
    ------------   -----------------  -----------------  -----------------  -----------------
         C            0.000000000000     0.000000000000    -0.052842492669    12.000000000000
         H            0.000000000000     0.000000000000     0.629186507331     1.007825032230

  Charge       = 1
  Multiplicity = 1
  Basis Set: CC-PVTZ
    Blend: CC-PVTZ
  Basis Set: (CC-PVTZ AUX)
    Blend: CC-PVTZ-JKFIT

    Orbital Energies [Eh]
    ---------------------

    Alpha Occupied:

       1A1   -10.794589     2A1    -1.233255     3A1    -0.751284

    Alpha Virtual:

       1B1    -0.571481     1B2    -0.571481     4A1    -0.175470
       5A1    -0.001796     2B2     0.000609     2B1     0.000609
       6A1     0.090578     3B2     0.275421     3B1     0.275421
       7A1     0.304930     1A2     0.304930     8A1     0.327362
       9A1     0.699564     4B2     0.783021     4B1     0.783021
      10A1     1.448665     5B2     1.483499     5B1     1.483499
      11A1     1.626098    12A1     1.907177    13A1     2.181395
       2A2     2.181395     6B2     2.230638     6B1     2.230638
       7B2     2.290207     7B1     2.290207    14A1     2.434854
       3A2     2.434854     8B2     2.650755     8B1     2.650755
      15A1     2.674018    16A1     3.568450     4A2     3.723958
      17A1     3.723958     9B1     3.754888     9B2     3.754888
      18A1     5.308159    10B2     5.434571    10B1     5.434571
      19A1     6.392669    20A1    14.494719

    Beta Occupied:

       1A1   -10.794589     2A1    -1.233255     3A1    -0.751284

    Beta Virtual:

       1B1    -0.571481     1B2    -0.571481     4A1    -0.175470
       5A1    -0.001796     2B2     0.000609     2B1     0.000609
       6A1     0.090578     3B2     0.275421     3B1     0.275421
       7A1     0.304930     1A2     0.304930     8A1     0.327362
       9A1     0.699564     4B2     0.783021     4B1     0.783021
      10A1     1.448665     5B2     1.483499     5B1     1.483499
      11A1     1.626098    12A1     1.907177    13A1     2.181395
       2A2     2.181395     6B2     2.230638     6B1     2.230638
       7B2     2.290207     7B1     2.290207    14A1     2.434854
       3A2     2.434854     8B2     2.650755     8B1     2.650755
      15A1     2.674018    16A1     3.568450     4A2     3.723958
      17A1     3.723958     9B1     3.754888     9B2     3.754888
      18A1     5.308159    10B2     5.434571    10B1     5.434571
      19A1     6.392669    20A1    14.494719

    Final Occupation by Irrep:
             A1    A2    B1    B2
    DOCC [     3,    0,    0,    0 ]
    SOCC [     0,    0,    0,    0 ]
    NA   [     3,    0,    0,    0 ]
    NB   [     3,    0,    0,    0 ]

  @DF-UKS Final Energy:   -37.80865852837981

   => Energetics <=

    Nuclear Repulsion Energy =              4.6553200289430512
    One-Electron Energy =                 -56.1606800821606100
    Two-Electron Energy =                  18.1383212678203840
    DFT Exchange-Correlation Energy =      -4.4416197429826338
    Empirical Dispersion Energy =           0.0000000000000000
    VV10 Nonlocal Energy =                  0.0000000000000000
    Total Energy =                        -37.8086585283798016

  UHF NO Occupations:
  HONO-2 :    1 A1 2.0000000
  HONO-1 :    2 A1 2.0000000
  HONO-0 :    3 A1 2.0000000
  LUNO+0 :    4 A1 0.0000000
  LUNO+1 :    5 A1 0.0000000
  LUNO+2 :    6 A1 0.0000000
  LUNO+3 :    7 A1 0.0000000

Computation Completed

Properties will be evaluated at   0.000000,   0.000000,   0.000000 [a0]

Properties computed using the B3LYP density matrix

 Multipole Moments:

 ------------------------------------------------------------------------------------
     Multipole            Electronic (a.u.)      Nuclear  (a.u.)        Total (a.u.)
 ------------------------------------------------------------------------------------

 L = 1.  Multiply by 2.5417464519 to convert [e a0] to [Debye]
 Dipole X            :          0.0000000            0.0000000            0.0000000
 Dipole Y            :          0.0000000            0.0000000            0.0000000
 Dipole Z            :          0.1049930            0.5898431            0.6948361
 Magnitude           :                                                    0.6948361

 L = 2.  Multiply by 1.3450342976 to convert [e a0^2] to [Debye ang]
 Quadrupole XX       :         -2.6156072            0.0000000           -2.6156072
 Quadrupole XY       :          0.0000000            0.0000000            0.0000000
 Quadrupole XZ       :          0.0000000            0.0000000            0.0000000
 Quadrupole YY       :         -2.6156072            0.0000000           -2.6156072
 Quadrupole YZ       :          0.0000000            0.0000000            0.0000000
 Quadrupole ZZ       :         -5.0707482            1.4735272           -3.5972210
 Traceless XX        :          0.8183803           -0.4911757            0.3272046
 Traceless YY        :          0.8183803           -0.4911757            0.3272046
 Traceless ZZ        :         -1.6367606            0.9823515           -0.6544092

 ------------------------------------------------------------------------------------
  ==> Computing MBIS Charges <==

  Electron Count from Grid (Expected Number):  6.00000 ( 6.00000)
  Difference:  0.00000

  MBIS Charges: (a.u.)
   Center  Symbol  Z      Pop.       Charge
      1       C    6    5.111336    0.888664
      2       H    1    0.888665    0.111335

  MBIS Dipoles: [e a0]
   Center  Symbol  Z        X           Y           Z
      1       C    6   -0.000000   -0.000000    0.626015
      2       H    1    0.000000    0.000000    0.025184

  MBIS Quadrupoles: [e a0^2]
   Center  Symbol  Z      XX        XY        XZ        YY        YZ        ZZ
      1       C    6   -2.3833    0.0000    0.0000   -2.3833    0.0000   -3.4640
      2       H    1   -0.2323   -0.0000   -0.0000   -0.2323   -0.0000   -0.2343

  MBIS Octupoles: [e a0^3]
   Center  Symbol  Z      XXX       XXY       XXZ       XYY       XYZ       XZZ       YYY       YYZ       YZZ       ZZZ
      1       C    6   -0.0000    0.0000    0.7271   -0.0000   -0.0000   -0.0000    0.0000    0.7271   -0.0000    1.8433
      2       H    1    0.0000   -0.0000   -0.0012    0.0000    0.0000    0.0000    0.0000   -0.0012   -0.0000    0.0020

  MBIS Radial Moments:
   Center  Symbol  Z      [a0^2]      [a0^3]      [a0^4]
      1       C    6    8.230510   17.209715   42.825069
      2       H    1    0.699043    0.861269    1.268254

  MBIS Valence Widths: [a0]
   Center  Symbol  Z     Width
      1       C    6    0.449004
      2       H    1    0.261356

*** tstop() called on Mac.lan at Sun Aug 10 18:27:08 2025
Module time:
	user time   =       4.09 seconds =       0.07 minutes
	system time =       1.70 seconds =       0.03 minutes
	total time  =          0 seconds =       0.00 minutes
Total time:
	user time   =      11.76 seconds =       0.20 minutes
	system time =       4.09 seconds =       0.07 minutes
	total time  =          1 seconds =       0.02 minutes

    Psi4 stopped on: Sunday, 10 August 2025 06:27PM
    Psi4 wall time for execution: 0:00:01.56

*** Psi4 exiting successfully. Buy a developer a beer!
