                               Psi4 1.9.1 release

  ==> Input File <==

--------------------------------------------------------------------------
molecule {
1 2
H           0.000000           0.000000           0.000000
H           0.000000           0.000000           1.527457
}

set {
basis              cc-pvtz
reference          uks
maxiter            500
DAMPING_PERCENTAGE 1
E_CONVERGENCE      1.0E-8
D_CONVERGENCE      1.0E-8
DIIS_MAX_VECS      400
MBIS_MAXITER       8000
guess              read
}

E, wfn = energy('b3lyp', restart_file='last_wfn', return_wfn=True)
properties('b3lyp','MBIS_CHARGES', wfn=wfn)
wfn.to_file('last_wfn')
--------------------------------------------------------------------------

    Molecular point group: d2h
  Charge       = 1
  Multiplicity = 2
  Basis Set: CC-PVTZ
    Blend: CC-PVTZ
  Basis Set: (CC-PVTZ AUX)
    Blend: CC-PVTZ-JKFIT
  @DF-UKS Final Energy:    -0.59770383930878
    Total Energy =                         -0.5977038393087807
 Dipole X            :          0.0000000            0.0000000            0.0000000
 Dipole Y            :          0.0000000            0.0000000            0.0000000
 Dipole Z            :          0.0000000            0.0000000            0.0000000
 Magnitude           :                                                    0.0000000
    Molecular point group: d2h

    Geometry (in Angstrom), charge = 1, multiplicity = 2:

       Center              X                  Y                   Z               Mass
    ------------   -----------------  -----------------  -----------------  -----------------
         H            0.000000000000     0.000000000000    -0.763728500000     1.007825032230
         H            0.000000000000     0.000000000000     0.763728500000     1.007825032230

  Charge       = 1
  Multiplicity = 2
  Basis Set: CC-PVTZ
    Blend: CC-PVTZ
  Basis Set: (CC-PVTZ AUX)
    Blend: CC-PVTZ-JKFIT

    Orbital Energies [Eh]
    ---------------------

    Alpha Occupied:

       1Ag    -0.787157

    Alpha Virtual:

       1B1u   -0.515206     2Ag    -0.049951     2B1u    0.012558
       1B2u    0.113343     1B3u    0.113343     3Ag     0.215869
       1B2g    0.377268     1B3g    0.377268     3B1u    0.759696
       4Ag     1.724315     4B1u    1.902056     5Ag     2.393988
       2B3u    2.458577     2B2u    2.458577     1B1g    2.687606
       6Ag     2.687607     1Au     2.798786     5B1u    2.798787
       2B3g    2.989302     2B2g    2.989302     3B3u    3.077721
       3B2u    3.077721     6B1u    3.173426     3B2g    3.327721
       3B3g    3.327721     7Ag     3.435430     7B1u    4.257315

    Beta Occupied:

    Beta Virtual:

       1Ag    -0.487052     1B1u   -0.297423     2Ag     0.044578
       2B1u    0.117842     1B3u    0.245416     1B2u    0.245416
       3Ag     0.368527     1B2g    0.501017     1B3g    0.501017
       3B1u    0.890329     4Ag     2.036285     4B1u    2.194006
       5Ag     2.596926     2B2u    2.647699     2B3u    2.647699
       6Ag     2.870868     1B1g    2.870871     5B1u    2.982027
       1Au     2.982030     2B3g    3.217546     2B2g    3.217546
       3B3u    3.330390     3B2u    3.330390     6B1u    3.434777
       3B3g    3.541927     3B2g    3.541927     7Ag     3.684170
       7B1u    4.465414

    Final Occupation by Irrep:
             Ag   B1g   B2g   B3g    Au   B1u   B2u   B3u
    DOCC [     0,    0,    0,    0,    0,    0,    0,    0 ]
    SOCC [     1,    0,    0,    0,    0,    0,    0,    0 ]
    NA   [     1,    0,    0,    0,    0,    0,    0,    0 ]
    NB   [     0,    0,    0,    0,    0,    0,    0,    0 ]

  @DF-UKS Final Energy:    -0.59770383928602

   => Energetics <=

    Nuclear Repulsion Energy =              0.3464432783836141
    One-Electron Energy =                  -0.9251845186666481
    Two-Electron Energy =                   0.2199372062461658
    DFT Exchange-Correlation Energy =      -0.2388998052491511
    Empirical Dispersion Energy =           0.0000000000000000
    VV10 Nonlocal Energy =                  0.0000000000000000
    Total Energy =                         -0.5977038392860192

  UHF NO Occupations:
  HONO-0 :    1 Ag 1.0000000
  LUNO+0 :    2 Ag 0.0000000
  LUNO+1 :    3 Ag 0.0000000
  LUNO+2 :    4 Ag 0.0000000
  LUNO+3 :    3B3u 0.0000000

Computation Completed

Properties will be evaluated at   0.000000,   0.000000,   0.000000 [a0]

Properties computed using the B3LYP density matrix

 Multipole Moments:

 ------------------------------------------------------------------------------------
     Multipole            Electronic (a.u.)      Nuclear  (a.u.)        Total (a.u.)
 ------------------------------------------------------------------------------------

 L = 1.  Multiply by 2.5417464519 to convert [e a0] to [Debye]
 Dipole X            :          0.0000000            0.0000000            0.0000000
 Dipole Y            :          0.0000000            0.0000000            0.0000000
 Dipole Z            :          0.0000000            0.0000000            0.0000000
 Magnitude           :                                                    0.0000000

 L = 2.  Multiply by 1.3450342976 to convert [e a0^2] to [Debye ang]
 Quadrupole XX       :         -0.7607303            0.0000000           -0.7607303
 Quadrupole XY       :          0.0000000            0.0000000            0.0000000
 Quadrupole XZ       :          0.0000000            0.0000000            0.0000000
 Quadrupole YY       :         -0.7607303            0.0000000           -0.7607303
 Quadrupole YZ       :          0.0000000            0.0000000            0.0000000
 Quadrupole ZZ       :         -2.1164492            4.1658701            2.0494209
 Traceless XX        :          0.4519063           -1.3886234           -0.9367171
 Traceless YY        :          0.4519063           -1.3886234           -0.9367171
 Traceless ZZ        :         -0.9038126            2.7772467            1.8734341

 ------------------------------------------------------------------------------------
  ==> Computing MBIS Charges <==

  Electron Count from Grid (Expected Number):  1.00000 ( 1.00000)
  Difference: -0.00000

  MBIS Charges: (a.u.)
   Center  Symbol  Z      Pop.       Charge
      1       H    1    0.500000    0.500000
      2       H    1    0.500000    0.500000

  MBIS Dipoles: [e a0]
   Center  Symbol  Z        X           Y           Z
      1       H    1    0.000000   -0.000000   -0.134729
      2       H    1    0.000000    0.000000    0.134729

  MBIS Quadrupoles: [e a0^2]
   Center  Symbol  Z      XX        XY        XZ        YY        YZ        ZZ
      1       H    1   -0.3804    0.0000   -0.0000   -0.3804   -0.0000   -0.4056
      2       H    1   -0.3804    0.0000    0.0000   -0.3804   -0.0000   -0.4056

  MBIS Octupoles: [e a0^3]
   Center  Symbol  Z      XXX       XXY       XXZ       XYY       XYZ       XZZ       YYY       YYZ       YZZ       ZZZ
      1       H    1    0.0000    0.0000   -0.1124   -0.0000    0.0000    0.0000   -0.0000   -0.1124   -0.0000   -0.2738
      2       H    1    0.0000   -0.0000    0.1124   -0.0000   -0.0000    0.0000    0.0000    0.1124    0.0000    0.2738

  MBIS Radial Moments:
   Center  Symbol  Z      [a0^2]      [a0^3]      [a0^4]
      1       H    1    1.166380    2.471205    6.203186
      2       H    1    1.166380    2.471205    6.203186

  MBIS Valence Widths: [a0]
   Center  Symbol  Z     Width
      1       H    1    0.448149
      2       H    1    0.448149

*** tstop() called on Mac.lan at Sun Aug 10 18:11:53 2025
Module time:
	user time   =       0.59 seconds =       0.01 minutes
	system time =       1.19 seconds =       0.02 minutes
	total time  =          0 seconds =       0.00 minutes
Total time:
	user time   =       1.59 seconds =       0.03 minutes
	system time =       3.00 seconds =       0.05 minutes
	total time  =          1 seconds =       0.02 minutes

    Psi4 stopped on: Sunday, 10 August 2025 06:11PM
    Psi4 wall time for execution: 0:00:00.60

*** Psi4 exiting successfully. Buy a developer a beer!
