                               Psi4 1.9.1 release

  ==> Input File <==

--------------------------------------------------------------------------
molecule {
1 2
N           0.000000           0.000000           0.000000
N           0.000000           0.000000           0.906366
}

set {
basis              cc-pvtz
reference          uks
maxiter            500
DAMPING_PERCENTAGE 1
E_CONVERGENCE      1.0E-8
D_CONVERGENCE      1.0E-8
DIIS_MAX_VECS      400
MBIS_MAXITER       8000
guess              read
}

E, wfn = energy('b3lyp', restart_file='last_wfn', return_wfn=True)
properties('b3lyp','MBIS_CHARGES', wfn=wfn)
wfn.to_file('last_wfn')
--------------------------------------------------------------------------

    Molecular point group: d2h
  Charge       = 1
  Multiplicity = 2
  Basis Set: CC-PVTZ
    Blend: CC-PVTZ
  Basis Set: (CC-PVTZ AUX)
    Blend: CC-PVTZ-JKFIT
  @DF-UKS Final Energy:  -108.81878914798462
    Total Energy =                       -108.8187891479846172
 Dipole X            :          0.0000000            0.0000000            0.0000000
 Dipole Y            :          0.0000000            0.0000000            0.0000000
 Dipole Z            :          0.0000000            0.0000000            0.0000000
 Magnitude           :                                                    0.0000000
    Molecular point group: d2h

    Geometry (in Angstrom), charge = 1, multiplicity = 2:

       Center              X                  Y                   Z               Mass
    ------------   -----------------  -----------------  -----------------  -----------------
         N            0.000000000000     0.000000000000    -0.453183000000    14.003074004430
         N            0.000000000000     0.000000000000     0.453183000000    14.003074004430

  Charge       = 1
  Multiplicity = 2
  Basis Set: CC-PVTZ
    Blend: CC-PVTZ
  Basis Set: (CC-PVTZ AUX)
    Blend: CC-PVTZ-JKFIT

    Orbital Energies [Eh]
    ---------------------

    Alpha Occupied:

       1Ag   -14.882708     1B1u  -14.871840     2Ag    -1.705968
       1B3u   -0.986322     1B2u   -0.986322     2B1u   -0.973650
       3Ag    -0.928281

    Alpha Virtual:

       1B2g   -0.344114     1B3g   -0.344114     3B1u    0.020456
       2B3u    0.043785     2B2u    0.043785     4Ag     0.081954
       5Ag     0.131582     2B2g    0.242282     2B3g    0.242282
       4B1u    0.445552     6Ag     0.447219     1B1g    0.447220
       5B1u    0.758602     3B3u    0.815830     3B2u    0.815830
       6B1u    0.962161     1Au     0.962161     7Ag     1.233154
       3B3g    1.323409     3B2g    1.323409     7B1u    1.964573
       4B3u    2.251160     4B2u    2.251160     8Ag     2.639749
       4B3g    2.852224     4B2g    2.852224     8B1u    2.918004
       5B2u    3.086828     5B3u    3.086828     9Ag     3.106510
       2B1g    3.106510     6B2u    3.338877     6B3u    3.338877
      10Ag     3.643802     5B3g    3.826067     5B2g    3.826067
       6B3g    3.848356     6B2g    3.848356    11Ag     3.950188
       3B1g    3.950189     9B1u    4.019782     2Au     4.019783
      12Ag     4.396420    10B1u    4.610291     7B2u    4.827604
       7B3u    4.827604    11B1u    4.971984     3Au     4.971984
      12B1u    5.961476     7B3g    6.792484     7B2g    6.792484
      13Ag     7.527253    13B1u   22.686761

    Beta Occupied:

       1Ag   -14.868644     1B1u  -14.858416     2Ag    -1.674997
       1B3u   -0.972086     1B2u   -0.972086     2B1u   -0.877789

    Beta Virtual:

       3Ag    -0.748026     1B2g   -0.317568     1B3g   -0.317568
       3B1u    0.032613     2B3u    0.048347     2B2u    0.048347
       4Ag     0.098345     5Ag     0.161314     2B2g    0.249501
       2B3g    0.249501     6Ag     0.452887     1B1g    0.452887
       4B1u    0.478953     5B1u    0.783029     3B3u    0.848389
       3B2u    0.848389     6B1u    0.975104     1Au     0.975104
       7Ag     1.271545     3B3g    1.345740     3B2g    1.345740
       7B1u    2.011662     4B3u    2.261738     4B2u    2.261738
       8Ag     2.670538     4B3g    2.862891     4B2g    2.862891
       8B1u    2.961057     5B2u    3.093164     5B3u    3.093164
       9Ag     3.116661     2B1g    3.116661     6B2u    3.381767
       6B3u    3.381767    10Ag     3.724547     5B3g    3.836889
       5B2g    3.836889     6B3g    3.908704     6B2g    3.908704
      11Ag     3.976598     3B1g    3.976599     9B1u    4.046268
       2Au     4.046269    12Ag     4.436335    10B1u    4.663643
       7B2u    4.876741     7B3u    4.876741    11B1u    4.990268
       3Au     4.990269    12B1u    6.020239     7B3g    6.828718
       7B2g    6.828718    13Ag     7.554065    13B1u   22.708068

    Final Occupation by Irrep:
             Ag   B1g   B2g   B3g    Au   B1u   B2u   B3u
    DOCC [     2,    0,    0,    0,    0,    2,    1,    1 ]
    SOCC [     1,    0,    0,    0,    0,    0,    0,    0 ]
    NA   [     3,    0,    0,    0,    0,    2,    1,    1 ]
    NB   [     2,    0,    0,    0,    0,    2,    1,    1 ]

  @DF-UKS Final Energy:  -108.81878914812845

   => Energetics <=

    Nuclear Repulsion Energy =             28.6084024807086692
    One-Electron Energy =                -197.3965715937985408
    Two-Electron Energy =                  70.9544791211998955
    DFT Exchange-Correlation Energy =     -10.9850991562384586
    Empirical Dispersion Energy =           0.0000000000000000
    VV10 Nonlocal Energy =                  0.0000000000000000
    Total Energy =                       -108.8187891481284453

  UHF NO Occupations:
  HONO-2 :    2 Ag 1.9999176
  HONO-1 :    2B1u 1.9990231
  HONO-0 :    3 Ag 1.0000000
  LUNO+0 :    3B1u 0.0009769
  LUNO+1 :    4 Ag 0.0000824
  LUNO+2 :    2B3u 0.0000658
  LUNO+3 :    2B2u 0.0000658

Computation Completed

Properties will be evaluated at   0.000000,   0.000000,   0.000000 [a0]

Properties computed using the B3LYP density matrix

 Multipole Moments:

 ------------------------------------------------------------------------------------
     Multipole            Electronic (a.u.)      Nuclear  (a.u.)        Total (a.u.)
 ------------------------------------------------------------------------------------

 L = 1.  Multiply by 2.5417464519 to convert [e a0] to [Debye]
 Dipole X            :          0.0000000            0.0000000            0.0000000
 Dipole Y            :          0.0000000            0.0000000            0.0000000
 Dipole Z            :          0.0000000            0.0000000            0.0000000
 Magnitude           :                                                    0.0000000

 L = 2.  Multiply by 1.3450342976 to convert [e a0^2] to [Debye ang]
 Quadrupole XX       :         -5.6842081            0.0000000           -5.6842081
 Quadrupole XY       :          0.0000000            0.0000000            0.0000000
 Quadrupole XZ       :          0.0000000            0.0000000            0.0000000
 Quadrupole YY       :         -5.6842081            0.0000000           -5.6842081
 Quadrupole YZ       :          0.0000000            0.0000000            0.0000000
 Quadrupole ZZ       :        -15.1067505           10.2676957           -4.8390547
 Traceless XX        :          3.1408474           -3.4225652           -0.2817178
 Traceless YY        :          3.1408474           -3.4225652           -0.2817178
 Traceless ZZ        :         -6.2816949            6.8451305            0.5634356

 ------------------------------------------------------------------------------------
  ==> Computing MBIS Charges <==

  Electron Count from Grid (Expected Number): 13.00000 (13.00000)
  Difference: -0.00000

  MBIS Charges: (a.u.)
   Center  Symbol  Z      Pop.       Charge
      1       N    7    6.500000    0.500000
      2       N    7    6.500000    0.500000

  MBIS Dipoles: [e a0]
   Center  Symbol  Z        X           Y           Z
      1       N    7   -0.000000    0.000000   -0.162439
      2       N    7    0.000000    0.000000    0.162439

  MBIS Quadrupoles: [e a0^2]
   Center  Symbol  Z      XX        XY        XZ        YY        YZ        ZZ
      1       N    7   -2.8421   -0.0000   -0.0000   -2.8421   -0.0000   -3.0645
      2       N    7   -2.8421   -0.0000    0.0000   -2.8421    0.0000   -3.0645

  MBIS Octupoles: [e a0^3]
   Center  Symbol  Z      XXX       XXY       XXZ       XYY       XYZ       XZZ       YYY       YYZ       YZZ       ZZZ
      1       N    7    0.0000    0.0000   -0.0803    0.0000    0.0000    0.0000    0.0000   -0.0803    0.0000   -0.1104
      2       N    7    0.0000    0.0000    0.0803    0.0000   -0.0000    0.0000    0.0000    0.0803    0.0000    0.1104

  MBIS Radial Moments:
   Center  Symbol  Z      [a0^2]      [a0^3]      [a0^4]
      1       N    7    8.748662   16.052106   35.214301
      2       N    7    8.748662   16.052106   35.214301

  MBIS Valence Widths: [a0]
   Center  Symbol  Z     Width
      1       N    7    0.388382
      2       N    7    0.388382

*** tstop() called on Mac.lan at Sun Aug 10 18:24:29 2025
Module time:
	user time   =       4.16 seconds =       0.07 minutes
	system time =       1.92 seconds =       0.03 minutes
	total time  =          0 seconds =       0.00 minutes
Total time:
	user time   =      21.58 seconds =       0.36 minutes
	system time =       4.12 seconds =       0.07 minutes
	total time  =          2 seconds =       0.03 minutes

    Psi4 stopped on: Sunday, 10 August 2025 06:24PM
    Psi4 wall time for execution: 0:00:02.57

*** Psi4 exiting successfully. Buy a developer a beer!
