                               Psi4 1.9.1 release

  ==> Input File <==

--------------------------------------------------------------------------
molecule {
1 3
O           0.000000           0.000000           0.000000
H           0.000000           0.000000           0.642067
}

set {
basis              cc-pvtz
reference          uks
maxiter            500
DAMPING_PERCENTAGE 1
E_CONVERGENCE      1.0E-8
D_CONVERGENCE      1.0E-8
DIIS_MAX_VECS      400
MBIS_MAXITER       8000
guess              read
}

E, wfn = energy('b3lyp', restart_file='last_wfn', return_wfn=True)
properties('b3lyp','MBIS_CHARGES', wfn=wfn)
wfn.to_file('last_wfn')
--------------------------------------------------------------------------

    Molecular point group: c2v
  Charge       = 1
  Multiplicity = 3
  Basis Set: CC-PVTZ
    Blend: CC-PVTZ
  Basis Set: (CC-PVTZ AUX)
    Blend: CC-PVTZ-JKFIT
  @DF-UKS Final Energy:   -75.00773958069709
    Total Energy =                        -75.0077395806970912
 Dipole X            :          0.0000000            0.0000000            0.0000000
 Dipole Y            :          0.0000000            0.0000000            0.0000000
 Dipole Z            :          0.0301263            0.5660571            0.5961834
 Magnitude           :                                                    0.5961834
    Molecular point group: c2v

    Geometry (in Angstrom), charge = 1, multiplicity = 3:

       Center              X                  Y                   Z               Mass
    ------------   -----------------  -----------------  -----------------  -----------------
         O            0.000000000000     0.000000000000    -0.038058054656    15.994914619570
         H            0.000000000000     0.000000000000     0.604008945344     1.007825032230

  Charge       = 1
  Multiplicity = 3
  Basis Set: CC-PVTZ
    Blend: CC-PVTZ
  Basis Set: (CC-PVTZ AUX)
    Blend: CC-PVTZ-JKFIT

    Orbital Energies [Eh]
    ---------------------

    Alpha Occupied:

       1A1   -19.843774     2A1    -1.761890     3A1    -1.091176
       1B1    -1.009514     1B2    -1.009514

    Alpha Virtual:

       4A1    -0.229830     5A1     0.119021     2B1     0.122277
       2B2     0.122277     6A1     0.201731     3B1     0.357639
       3B2     0.357639     7A1     0.413376     8A1     0.886735
       1A2     0.886735     9A1     1.227366     4B1     1.372409
       4B2     1.372409    10A1     1.548785    11A1     2.290624
       5B1     2.825293     5B2     2.825293     2A2     2.873741
      12A1     2.873741     6B1     3.097707     6B2     3.097707
      13A1     3.445848     7B1     3.983735     7B2     3.983735
      14A1     4.113800     8B2     4.450100     8B1     4.450100
      15A1     5.319852     3A2     5.319852    16A1     5.329765
      17A1     5.449668     4A2     5.449668     9B1     5.570515
       9B2     5.570515    18A1     7.147622    19A1     7.319510
      10B1     7.678798    10B2     7.678798    20A1    14.046630

    Beta Occupied:

       1A1   -19.787682     2A1    -1.626133     3A1    -1.018864

    Beta Virtual:

       1B1    -0.701672     1B2    -0.701672     4A1    -0.219234
       5A1     0.129924     2B1     0.183587     2B2     0.183587
       6A1     0.221981     3B1     0.384789     3B2     0.384789
       7A1     0.450155     1A2     0.999612     8A1     0.999612
       9A1     1.268613     4B1     1.421302     4B2     1.421302
      10A1     1.595136    11A1     2.306923     5B1     2.893837
       5B2     2.893837    12A1     2.910920     2A2     2.910920
       6B1     3.193282     6B2     3.193282    13A1     3.481542
       7B1     4.029301     7B2     4.029301    14A1     4.174997
       8B2     4.602653     8B1     4.602653    15A1     5.407166
       3A2     5.407166    16A1     5.411889     9B1     5.648031
       9B2     5.648031     4A2     5.668180    17A1     5.668181
      18A1     7.194339    19A1     7.349232    10B1     7.760128
      10B2     7.760128    20A1    14.105739

    Final Occupation by Irrep:
             A1    A2    B1    B2
    DOCC [     3,    0,    0,    0 ]
    SOCC [     0,    0,    1,    1 ]
    NA   [     3,    0,    1,    1 ]
    NB   [     3,    0,    0,    0 ]

  @DF-UKS Final Energy:   -75.00773958093208

   => Energetics <=

    Nuclear Repulsion Energy =              6.5934204457790226
    One-Electron Energy =                -110.9937086297223345
    Two-Electron Energy =                  36.4375414239133804
    DFT Exchange-Correlation Energy =      -7.0449928209021353
    Empirical Dispersion Energy =           0.0000000000000000
    VV10 Nonlocal Energy =                  0.0000000000000000
    Total Energy =                        -75.0077395809320819

  UHF NO Occupations:
  HONO-2 :    3 A1 1.9987962
  HONO-1 :    1 B2 1.0000000
  HONO-0 :    1 B1 1.0000000
  LUNO+0 :    4 A1 0.0012038
  LUNO+1 :    5 A1 0.0002312
  LUNO+2 :    6 A1 0.0000015
  LUNO+3 :    7 A1 0.0000000

Computation Completed

Properties will be evaluated at   0.000000,   0.000000,   0.000000 [a0]

Properties computed using the B3LYP density matrix

 Multipole Moments:

 ------------------------------------------------------------------------------------
     Multipole            Electronic (a.u.)      Nuclear  (a.u.)        Total (a.u.)
 ------------------------------------------------------------------------------------

 L = 1.  Multiply by 2.5417464519 to convert [e a0] to [Debye]
 Dipole X            :          0.0000000            0.0000000            0.0000000
 Dipole Y            :          0.0000000            0.0000000            0.0000000
 Dipole Z            :          0.0301263            0.5660571            0.5961834
 Magnitude           :                                                    0.5961834

 L = 2.  Multiply by 1.3450342976 to convert [e a0^2] to [Debye ang]
 Quadrupole XX       :         -2.7861396            0.0000000           -2.7861396
 Quadrupole XY       :          0.0000000            0.0000000            0.0000000
 Quadrupole XZ       :          0.0000000            0.0000000            0.0000000
 Quadrupole YY       :         -2.7861396            0.0000000           -2.7861396
 Quadrupole YZ       :          0.0000000            0.0000000            0.0000000
 Quadrupole ZZ       :         -3.8669642            1.3441993           -2.5227649
 Traceless XX        :          0.3602749           -0.4480664           -0.0877915
 Traceless YY        :          0.3602749           -0.4480664           -0.0877915
 Traceless ZZ        :         -0.7205497            0.8961328            0.1755831

 ------------------------------------------------------------------------------------
  ==> Computing MBIS Charges <==

  Electron Count from Grid (Expected Number):  8.00000 ( 8.00000)
  Difference:  0.00000

  MBIS Charges: (a.u.)
   Center  Symbol  Z      Pop.       Charge
      1       O    8    7.416334    0.583666
      2       H    1    0.583666    0.416334

  MBIS Dipoles: [e a0]
   Center  Symbol  Z        X           Y           Z
      1       O    8    0.000000   -0.000000    0.137009
      2       H    1    0.000000    0.000000    0.025943

  MBIS Quadrupoles: [e a0^2]
   Center  Symbol  Z      XX        XY        XZ        YY        YZ        ZZ
      1       O    8   -2.6516   -0.0000    0.0000   -2.6516   -0.0000   -2.9757
      2       H    1   -0.1346   -0.0000    0.0000   -0.1346   -0.0000   -0.1320

  MBIS Octupoles: [e a0^3]
   Center  Symbol  Z      XXX       XXY       XXZ       XYY       XYZ       XZZ       YYY       YYZ       YZZ       ZZZ
      1       O    8   -0.0000   -0.0000    0.1237   -0.0000   -0.0000    0.0000   -0.0000    0.1237   -0.0000    0.2873
      2       H    1    0.0000   -0.0000    0.0035    0.0000   -0.0000    0.0000   -0.0000    0.0035   -0.0000    0.0067

  MBIS Radial Moments:
   Center  Symbol  Z      [a0^2]      [a0^3]      [a0^4]
      1       O    8    8.278904   13.714662   27.281942
      2       H    1    0.401082    0.471444    0.666201

  MBIS Valence Widths: [a0]
   Center  Symbol  Z     Width
      1       O    8    0.346015
      2       H    1    0.242117

*** tstop() called on Mac.lan at Sun Aug 10 18:29:12 2025
Module time:
	user time   =       2.43 seconds =       0.04 minutes
	system time =       2.58 seconds =       0.04 minutes
	total time  =          0 seconds =       0.00 minutes
Total time:
	user time   =      20.60 seconds =       0.34 minutes
	system time =       5.75 seconds =       0.10 minutes
	total time  =          3 seconds =       0.05 minutes

    Psi4 stopped on: Sunday, 10 August 2025 06:29PM
    Psi4 wall time for execution: 0:00:02.84

*** Psi4 exiting successfully. Buy a developer a beer!
