                               Psi4 1.9.1 release

  ==> Input File <==

--------------------------------------------------------------------------
molecule {
1 3
O           0.000000           0.000000           0.000000
H           0.000000           0.000000           1.271419
}

set {
basis              cc-pvtz
reference          uks
maxiter            500
DAMPING_PERCENTAGE 1
E_CONVERGENCE      1.0E-8
D_CONVERGENCE      1.0E-8
DIIS_MAX_VECS      400
MBIS_MAXITER       8000
guess              read
}

E, wfn = energy('b3lyp', restart_file='last_wfn', return_wfn=True)
properties('b3lyp','MBIS_CHARGES', wfn=wfn)
wfn.to_file('last_wfn')
--------------------------------------------------------------------------

    Molecular point group: c2v
  Charge       = 1
  Multiplicity = 3
  Basis Set: CC-PVTZ
    Blend: CC-PVTZ
  Basis Set: (CC-PVTZ AUX)
    Blend: CC-PVTZ-JKFIT
  @DF-UKS Final Energy:   -75.26149908884915
    Total Energy =                        -75.2614990888491491
 Dipole X            :          0.0000000            0.0000000            0.0000000
 Dipole Y            :          0.0000000            0.0000000            0.0000000
 Dipole Z            :          0.0323206            1.1209044            1.1532250
 Magnitude           :                                                    1.1532250
    Molecular point group: c2v

    Geometry (in Angstrom), charge = 1, multiplicity = 3:

       Center              X                  Y                   Z               Mass
    ------------   -----------------  -----------------  -----------------  -----------------
         O            0.000000000000     0.000000000000    -0.075362436930    15.994914619570
         H            0.000000000000     0.000000000000     1.196056563070     1.007825032230

  Charge       = 1
  Multiplicity = 3
  Basis Set: CC-PVTZ
    Blend: CC-PVTZ
  Basis Set: (CC-PVTZ AUX)
    Blend: CC-PVTZ-JKFIT

    Orbital Energies [Eh]
    ---------------------

    Alpha Occupied:

       1A1   -19.791178     2A1    -1.503070     3A1    -0.914852
       1B1    -0.914158     1B2    -0.914158

    Alpha Virtual:

       4A1    -0.409289     5A1    -0.030729     2B2     0.131659
       2B1     0.131659     6A1     0.208638     3B2     0.329493
       3B1     0.329493     7A1     0.463670     8A1     0.699336
       9A1     0.954336     1A2     0.954336     4B2     1.157882
       4B1     1.157882    10A1     1.628123    11A1     1.932926
       2A2     2.765479    12A1     2.765481     5B2     2.772024
       5B1     2.772024    13A1     2.792562     6B2     3.172357
       6B1     3.172357     7B1     3.310624     7B2     3.310624
      14A1     3.417873    15A1     4.294626     8B1     4.534413
       8B2     4.534413    16A1     4.610549     3A2     4.610549
       9B1     5.048071     9B2     5.048071    17A1     5.462048
      18A1     5.547189     4A2     5.547192    10B1     5.863082
      10B2     5.863082    19A1     6.371340    20A1     7.465548

    Beta Occupied:

       1A1   -19.733943     2A1    -1.339978     3A1    -0.864627

    Beta Virtual:

       1B1    -0.612064     1B2    -0.612064     4A1    -0.399599
       5A1    -0.033458     2B2     0.185628     2B1     0.185628
       6A1     0.228026     3B2     0.347875     3B1     0.347875
       7A1     0.511496     8A1     0.718380     1A2     1.066929
       9A1     1.066929     4B2     1.212550     4B1     1.212550
      10A1     1.667706    11A1     1.911001     2A2     2.753503
      12A1     2.753505    13A1     2.808610     5B2     2.818094
       5B1     2.818094     6B2     3.225538     6B1     3.225538
       7B1     3.341703     7B2     3.341703    14A1     3.424958
      15A1     4.332938     8B1     4.686004     8B2     4.686004
       3A2     4.710219    16A1     4.710219     9B1     5.124320
       9B2     5.124320    17A1     5.514097    18A1     5.761626
       4A2     5.761629    10B1     5.969944    10B2     5.969944
      19A1     6.461979    20A1     7.544632

    Final Occupation by Irrep:
             A1    A2    B1    B2
    DOCC [     3,    0,    0,    0 ]
    SOCC [     0,    0,    1,    1 ]
    NA   [     3,    0,    1,    1 ]
    NB   [     3,    0,    0,    0 ]

  @DF-UKS Final Energy:   -75.26149909012322

   => Energetics <=

    Nuclear Repulsion Energy =              3.3296794253979214
    One-Electron Energy =                -106.3039481567036262
    Two-Electron Energy =                  34.5316759042018830
    DFT Exchange-Correlation Energy =      -6.8189062630194179
    Empirical Dispersion Energy =           0.0000000000000000
    VV10 Nonlocal Energy =                  0.0000000000000000
    Total Energy =                        -75.2614990901232375

  UHF NO Occupations:
  HONO-2 :    3 A1 1.9955035
  HONO-1 :    1 B1 1.0000000
  HONO-0 :    1 B2 1.0000000
  LUNO+0 :    4 A1 0.0044965
  LUNO+1 :    5 A1 0.0008623
  LUNO+2 :    6 A1 0.0000014
  LUNO+3 :    7 A1 0.0000000

Computation Completed

Properties will be evaluated at   0.000000,   0.000000,   0.000000 [a0]

Properties computed using the B3LYP density matrix

 Multipole Moments:

 ------------------------------------------------------------------------------------
     Multipole            Electronic (a.u.)      Nuclear  (a.u.)        Total (a.u.)
 ------------------------------------------------------------------------------------

 L = 1.  Multiply by 2.5417464519 to convert [e a0] to [Debye]
 Dipole X            :          0.0000000            0.0000000            0.0000000
 Dipole Y            :          0.0000000            0.0000000            0.0000000
 Dipole Z            :          0.0323206            1.1209044            1.1532250
 Magnitude           :                                                    1.1532250

 L = 2.  Multiply by 1.3450342976 to convert [e a0^2] to [Debye ang]
 Quadrupole XX       :         -3.1603563            0.0000000           -3.1603563
 Quadrupole XY       :          0.0000000            0.0000000            0.0000000
 Quadrupole XZ       :          0.0000000            0.0000000            0.0000000
 Quadrupole YY       :         -3.1603563            0.0000000           -3.1603563
 Quadrupole YZ       :          0.0000000            0.0000000            0.0000000
 Quadrupole ZZ       :         -5.7236712            5.2708463           -0.4528249
 Traceless XX        :          0.8544383           -1.7569488           -0.9025105
 Traceless YY        :          0.8544383           -1.7569488           -0.9025105
 Traceless ZZ        :         -1.7088766            3.5138975            1.8050209

 ------------------------------------------------------------------------------------
  ==> Computing MBIS Charges <==

  Electron Count from Grid (Expected Number):  8.00000 ( 8.00000)
  Difference:  0.00000

  MBIS Charges: (a.u.)
   Center  Symbol  Z      Pop.       Charge
      1       O    8    7.562995    0.437005
      2       H    1    0.437005    0.562995

  MBIS Dipoles: [e a0]
   Center  Symbol  Z        X           Y           Z
      1       O    8    0.000000   -0.000000   -0.126037
      2       H    1    0.000000    0.000000    0.069005

  MBIS Quadrupoles: [e a0^2]
   Center  Symbol  Z      XX        XY        XZ        YY        YZ        ZZ
      1       O    8   -2.9204    0.0000   -0.0000   -2.9204    0.0000   -3.4664
      2       H    1   -0.2400   -0.0000    0.0000   -0.2400    0.0000   -0.2192

  MBIS Octupoles: [e a0^3]
   Center  Symbol  Z      XXX       XXY       XXZ       XYY       XYZ       XZZ       YYY       YYZ       YZZ       ZZZ
      1       O    8   -0.0000   -0.0000   -0.0992   -0.0000   -0.0000    0.0000    0.0000   -0.0992   -0.0000   -0.3902
      2       H    1    0.0000    0.0000    0.0255    0.0000   -0.0000    0.0000    0.0000    0.0255    0.0000    0.0845

  MBIS Radial Moments:
   Center  Symbol  Z      [a0^2]      [a0^3]      [a0^4]
      1       O    8    9.307154   16.151314   33.505413
      2       H    1    0.699191    1.233553    2.589501

  MBIS Valence Widths: [a0]
   Center  Symbol  Z     Width
      1       O    8    0.363766
      2       H    1    0.371206

*** tstop() called on Mac.lan at Sun Aug 10 18:29:57 2025
Module time:
	user time   =      10.34 seconds =       0.17 minutes
	system time =       1.91 seconds =       0.03 minutes
	total time  =          1 seconds =       0.02 minutes
Total time:
	user time   =      35.50 seconds =       0.59 minutes
	system time =       4.80 seconds =       0.08 minutes
	total time  =          4 seconds =       0.07 minutes

    Psi4 stopped on: Sunday, 10 August 2025 06:29PM
    Psi4 wall time for execution: 0:00:04.22

*** Psi4 exiting successfully. Buy a developer a beer!
