                               Psi4 1.9.1 release

  ==> Input File <==

--------------------------------------------------------------------------
molecule {
1 3
O           0.000000           0.000000           0.000000
H           0.000000           0.000000           0.947207
}

set {
basis              cc-pvtz
reference          uks
maxiter            500
DAMPING_PERCENTAGE 1
E_CONVERGENCE      1.0E-8
D_CONVERGENCE      1.0E-8
DIIS_MAX_VECS      400
MBIS_MAXITER       8000
guess              read
}

E, wfn = energy('b3lyp', restart_file='last_wfn', return_wfn=True)
properties('b3lyp','MBIS_CHARGES', wfn=wfn)
wfn.to_file('last_wfn')
--------------------------------------------------------------------------

    Molecular point group: c2v
  Charge       = 1
  Multiplicity = 3
  Basis Set: CC-PVTZ
    Blend: CC-PVTZ
  Basis Set: (CC-PVTZ AUX)
    Blend: CC-PVTZ-JKFIT
  @DF-UKS Final Energy:   -75.27507160530683
    Total Energy =                        -75.2750716053068629
 Dipole X            :          0.0000000            0.0000000            0.0000000
 Dipole Y            :          0.0000000            0.0000000            0.0000000
 Dipole Z            :         -0.0154302            0.8350736            0.8196434
 Magnitude           :                                                    0.8196434
    Molecular point group: c2v

    Geometry (in Angstrom), charge = 1, multiplicity = 3:

       Center              X                  Y                   Z               Mass
    ------------   -----------------  -----------------  -----------------  -----------------
         O            0.000000000000     0.000000000000    -0.056145006326    15.994914619570
         H            0.000000000000     0.000000000000     0.891061993674     1.007825032230

  Charge       = 1
  Multiplicity = 3
  Basis Set: CC-PVTZ
    Blend: CC-PVTZ
  Basis Set: (CC-PVTZ AUX)
    Blend: CC-PVTZ-JKFIT

    Orbital Energies [Eh]
    ---------------------

    Alpha Occupied:

       1A1   -19.825453     2A1    -1.595398     3A1    -1.004251
       1B1    -0.960210     1B2    -0.960210

    Alpha Virtual:

       4A1    -0.291515     5A1     0.017043     2B2     0.135076
       2B1     0.135076     6A1     0.159876     3B1     0.323556
       3B2     0.323556     7A1     0.460106     8A1     0.886848
       9A1     0.914180     1A2     0.914180     4B2     1.296728
       4B1     1.296728    10A1     1.437791    11A1     2.000630
      12A1     2.757760     2A2     2.757761     5B1     2.822256
       5B2     2.822256     6B1     3.144252     6B2     3.144252
      13A1     3.259237     7B2     3.614923     7B1     3.614923
      14A1     3.873789    15A1     4.169938     8B2     4.491224
       8B1     4.491224    16A1     4.823456     3A2     4.823456
       4A2     5.520983    17A1     5.520983     9B2     5.745563
       9B1     5.745563    18A1     5.888087    10B2     6.122386
      10B1     6.122386    19A1     6.476856    20A1     9.844568

    Beta Occupied:

       1A1   -19.769391     2A1    -1.445698     3A1    -0.947629

    Beta Virtual:

       1B1    -0.656811     1B2    -0.656811     4A1    -0.275316
       5A1     0.027531     6A1     0.172620     2B2     0.204121
       2B1     0.204121     3B1     0.338192     3B2     0.338192
       7A1     0.509912     8A1     0.908217     9A1     1.026020
       1A2     1.026020     4B2     1.350184     4B1     1.350184
      10A1     1.466389    11A1     2.013619    12A1     2.771035
       2A2     2.771035     5B1     2.904333     5B2     2.904333
       6B1     3.192245     6B2     3.192245    13A1     3.269318
       7B2     3.655893     7B1     3.655893    14A1     3.922668
      15A1     4.229080     8B2     4.643534     8B1     4.643534
      16A1     4.920300     3A2     4.920300     4A2     5.732926
      17A1     5.732926     9B2     5.857676     9B1     5.857676
      18A1     5.938952    10B2     6.179804    10B1     6.179804
      19A1     6.533440    20A1     9.916575

    Final Occupation by Irrep:
             A1    A2    B1    B2
    DOCC [     3,    0,    0,    0 ]
    SOCC [     0,    0,    1,    1 ]
    NA   [     3,    0,    1,    1 ]
    NB   [     3,    0,    0,    0 ]

  @DF-UKS Final Energy:   -75.27507160529125

   => Energetics <=

    Nuclear Repulsion Energy =              4.4693690876017600
    One-Electron Energy =                -108.0268404551058410
    Two-Electron Energy =                  35.1753666764228043
    DFT Exchange-Correlation Energy =      -6.8929669142099597
    Empirical Dispersion Energy =           0.0000000000000000
    VV10 Nonlocal Energy =                  0.0000000000000000
    Total Energy =                        -75.2750716052912452

  UHF NO Occupations:
  HONO-2 :    3 A1 1.9984214
  HONO-1 :    1 B1 1.0000000
  HONO-0 :    1 B2 1.0000000
  LUNO+0 :    4 A1 0.0015786
  LUNO+1 :    5 A1 0.0005331
  LUNO+2 :    6 A1 0.0000015
  LUNO+3 :    7 A1 0.0000000

Computation Completed

Properties will be evaluated at   0.000000,   0.000000,   0.000000 [a0]

Properties computed using the B3LYP density matrix

 Multipole Moments:

 ------------------------------------------------------------------------------------
     Multipole            Electronic (a.u.)      Nuclear  (a.u.)        Total (a.u.)
 ------------------------------------------------------------------------------------

 L = 1.  Multiply by 2.5417464519 to convert [e a0] to [Debye]
 Dipole X            :          0.0000000            0.0000000            0.0000000
 Dipole Y            :          0.0000000            0.0000000            0.0000000
 Dipole Z            :         -0.0154302            0.8350736            0.8196434
 Magnitude           :                                                    0.8196434

 L = 2.  Multiply by 1.3450342976 to convert [e a0^2] to [Debye ang]
 Quadrupole XX       :         -2.9928292            0.0000000           -2.9928292
 Quadrupole XY       :          0.0000000            0.0000000            0.0000000
 Quadrupole XZ       :          0.0000000            0.0000000            0.0000000
 Quadrupole YY       :         -2.9928292            0.0000000           -2.9928292
 Quadrupole YZ       :          0.0000000            0.0000000            0.0000000
 Quadrupole ZZ       :         -4.7484902            2.9254505           -1.8230397
 Traceless XX        :          0.5852203           -0.9751502           -0.3899298
 Traceless YY        :          0.5852203           -0.9751502           -0.3899298
 Traceless ZZ        :         -1.1704407            1.9503003            0.7798597

 ------------------------------------------------------------------------------------
  ==> Computing MBIS Charges <==

  Electron Count from Grid (Expected Number):  8.00000 ( 8.00000)
  Difference: -0.00000

  MBIS Charges: (a.u.)
   Center  Symbol  Z      Pop.       Charge
      1       O    8    7.501028    0.498972
      2       H    1    0.498972    0.501028

  MBIS Dipoles: [e a0]
   Center  Symbol  Z        X           Y           Z
      1       O    8    0.000000   -0.000000   -0.016756
      2       H    1   -0.000000    0.000000    0.045678

  MBIS Quadrupoles: [e a0^2]
   Center  Symbol  Z      XX        XY        XZ        YY        YZ        ZZ
      1       O    8   -2.8020   -0.0000    0.0000   -2.8020    0.0000   -3.2227
      2       H    1   -0.1908   -0.0000   -0.0000   -0.1908    0.0000   -0.1840

  MBIS Octupoles: [e a0^3]
   Center  Symbol  Z      XXX       XXY       XXZ       XYY       XYZ       XZZ       YYY       YYZ       YZZ       ZZZ
      1       O    8   -0.0000   -0.0000    0.0009    0.0000   -0.0000   -0.0000   -0.0000    0.0009    0.0000   -0.0526
      2       H    1   -0.0000   -0.0000    0.0063   -0.0000    0.0000   -0.0000    0.0000    0.0063    0.0000    0.0285

  MBIS Radial Moments:
   Center  Symbol  Z      [a0^2]      [a0^3]      [a0^4]
      1       O    8    8.826674   14.944899   30.310636
      2       H    1    0.565637    0.851691    1.535443

  MBIS Valence Widths: [a0]
   Center  Symbol  Z     Width
      1       O    8    0.355842
      2       H    1    0.311063

*** tstop() called on Mac.lan at Sun Aug 10 18:28:36 2025
Module time:
	user time   =       4.81 seconds =       0.08 minutes
	system time =       0.78 seconds =       0.01 minutes
	total time  =          1 seconds =       0.02 minutes
Total time:
	user time   =      25.71 seconds =       0.43 minutes
	system time =       2.09 seconds =       0.03 minutes
	total time  =          3 seconds =       0.05 minutes

    Psi4 stopped on: Sunday, 10 August 2025 06:28PM
    Psi4 wall time for execution: 0:00:02.88

*** Psi4 exiting successfully. Buy a developer a beer!
