                               Psi4 1.9.1 release

  ==> Input File <==

--------------------------------------------------------------------------
molecule {
1 2
N           0.000000           0.000000           0.000000
N           0.000000           0.000000           1.291909
}

set {
basis              cc-pvtz
reference          uks
maxiter            500
DAMPING_PERCENTAGE 1
E_CONVERGENCE      1.0E-8
D_CONVERGENCE      1.0E-8
DIIS_MAX_VECS      400
MBIS_MAXITER       8000
guess              read
}

E, wfn = energy('b3lyp', restart_file='last_wfn', return_wfn=True)
properties('b3lyp','MBIS_CHARGES', wfn=wfn)
wfn.to_file('last_wfn')
--------------------------------------------------------------------------

    Molecular point group: d2h
  Charge       = 1
  Multiplicity = 2
  Basis Set: CC-PVTZ
    Blend: CC-PVTZ
  Basis Set: (CC-PVTZ AUX)
    Blend: CC-PVTZ-JKFIT
  @DF-UKS Final Energy:  -108.93024073545088
    Total Energy =                       -108.9302407354508659
 Dipole X            :          0.0000000            0.0000000            0.0000000
 Dipole Y            :          0.0000000            0.0000000            0.0000000
 Dipole Z            :          0.0000000            0.0000000            0.0000000
 Magnitude           :                                                    0.0000000
    Molecular point group: d2h

    Geometry (in Angstrom), charge = 1, multiplicity = 2:

       Center              X                  Y                   Z               Mass
    ------------   -----------------  -----------------  -----------------  -----------------
         N            0.000000000000     0.000000000000    -0.645954500000    14.003074004430
         N            0.000000000000     0.000000000000     0.645954500000    14.003074004430

  Charge       = 1
  Multiplicity = 2
  Basis Set: CC-PVTZ
    Blend: CC-PVTZ
  Basis Set: (CC-PVTZ AUX)
    Blend: CC-PVTZ-JKFIT

    Orbital Energies [Eh]
    ---------------------

    Alpha Occupied:

       1Ag   -14.944616     1B1u  -14.944141     2Ag    -1.452271
       2B1u   -1.049606     3Ag    -0.887698     1B3u   -0.821475
       1B2u   -0.821475

    Alpha Virtual:

       1B2g   -0.513675     1B3g   -0.513675     3B1u   -0.137520
       2B2u    0.098529     2B3u    0.098529     4B1u    0.098842
       4Ag     0.120451     5Ag     0.138814     2B3g    0.211010
       2B2g    0.211010     1B1g    0.498338     6Ag     0.498338
       5B1u    0.543383     3B3u    0.595645     3B2u    0.595645
       1Au     0.842280     6B1u    0.842280     7Ag     1.245336
       3B2g    1.257811     3B3g    1.257811     7B1u    1.287366
       4B2u    2.299458     4B3u    2.299458     8Ag     2.409019
       4B3g    2.535146     4B2g    2.535146     2B1g    3.038060
       9Ag     3.038061     5B3u    3.086389     5B2u    3.086389
       8B1u    3.139903    10Ag     3.264470     6B2u    3.303006
       6B3u    3.303006     5B3g    3.560900     5B2g    3.560900
       9B1u    3.827275    11Ag     3.906915     3B1g    3.906916
      10B1u    3.958914     2Au     3.958915     6B2g    4.126742
       6B3g    4.126742     3Au     4.182345    11B1u    4.182345
       7B3u    4.277767     7B2u    4.277767    12B1u    4.682614
      12Ag     4.911976    13Ag     5.127466     7B2g    5.248884
       7B3g    5.248884    13B1u   10.157810

    Beta Occupied:

       1Ag   -14.931875     1B1u  -14.931553     2Ag    -1.421525
       2B1u   -0.967318     1B3u   -0.809173     1B2u   -0.809173

    Beta Virtual:

       3Ag    -0.706640     1B2g   -0.494053     1B3g   -0.494053
       3B1u   -0.100199     2B2u    0.102370     2B3u    0.102370
       4Ag     0.145532     4B1u    0.146166     5Ag     0.157042
       2B3g    0.215630     2B2g    0.215630     1B1g    0.501286
       6Ag     0.501286     5B1u    0.552839     3B3u    0.626606
       3B2u    0.626606     1Au     0.849534     6B1u    0.849534
       7Ag     1.285544     3B2g    1.286390     3B3g    1.286390
       7B1u    1.327365     4B2u    2.312303     4B3u    2.312303
       8Ag     2.457169     4B3g    2.543147     4B2g    2.543147
       2B1g    3.062927     9Ag     3.062927     5B3u    3.116676
       5B2u    3.116676     8B1u    3.186533     6B2u    3.307166
       6B3u    3.307166    10Ag     3.323985     5B3g    3.565322
       5B2g    3.565322     9B1u    3.883829    11Ag     3.916124
       3B1g    3.916127    10B1u    3.959105     2Au     3.959107
       6B2g    4.181222     6B3g    4.181222     3Au     4.215247
      11B1u    4.215248     7B3u    4.333938     7B2u    4.333938
      12B1u    4.744847    12Ag     4.928700    13Ag     5.198494
       7B2g    5.287094     7B3g    5.287094    13B1u   10.179093

    Final Occupation by Irrep:
             Ag   B1g   B2g   B3g    Au   B1u   B2u   B3u
    DOCC [     2,    0,    0,    0,    0,    2,    1,    1 ]
    SOCC [     1,    0,    0,    0,    0,    0,    0,    0 ]
    NA   [     3,    0,    0,    0,    0,    2,    1,    1 ]
    NB   [     2,    0,    0,    0,    0,    2,    1,    1 ]

  @DF-UKS Final Energy:  -108.93024073545344

   => Energetics <=

    Nuclear Repulsion Energy =             20.0708279939453931
    One-Electron Energy =                -181.5808987668685290
    Two-Electron Energy =                  63.1711444786197234
    DFT Exchange-Correlation Energy =     -10.5913144411500184
    Empirical Dispersion Energy =           0.0000000000000000
    VV10 Nonlocal Energy =                  0.0000000000000000
    Total Energy =                       -108.9302407354534381

  UHF NO Occupations:
  HONO-2 :    2 Ag 1.9998476
  HONO-1 :    2B1u 1.9971294
  HONO-0 :    3 Ag 1.0000000
  LUNO+0 :    3B1u 0.0028706
  LUNO+1 :    4 Ag 0.0001524
  LUNO+2 :    2B3u 0.0001053
  LUNO+3 :    2B2u 0.0001053

Computation Completed

Properties will be evaluated at   0.000000,   0.000000,   0.000000 [a0]

Properties computed using the B3LYP density matrix

 Multipole Moments:

 ------------------------------------------------------------------------------------
     Multipole            Electronic (a.u.)      Nuclear  (a.u.)        Total (a.u.)
 ------------------------------------------------------------------------------------

 L = 1.  Multiply by 2.5417464519 to convert [e a0] to [Debye]
 Dipole X            :          0.0000000            0.0000000            0.0000000
 Dipole Y            :          0.0000000            0.0000000            0.0000000
 Dipole Z            :          0.0000000            0.0000000            0.0000000
 Magnitude           :                                                    0.0000000

 L = 2.  Multiply by 1.3450342976 to convert [e a0^2] to [Debye ang]
 Quadrupole XX       :         -6.5315161            0.0000000           -6.5315161
 Quadrupole XY       :          0.0000000            0.0000000            0.0000000
 Quadrupole XZ       :          0.0000000            0.0000000            0.0000000
 Quadrupole YY       :         -6.5315161            0.0000000           -6.5315161
 Quadrupole YZ       :          0.0000000            0.0000000            0.0000000
 Quadrupole ZZ       :        -24.6345006           20.8607360           -3.7737647
 Traceless XX        :          6.0343282           -6.9535787           -0.9192505
 Traceless YY        :          6.0343282           -6.9535787           -0.9192505
 Traceless ZZ        :        -12.0686564           13.9071573            1.8385009

 ------------------------------------------------------------------------------------
  ==> Computing MBIS Charges <==

  Electron Count from Grid (Expected Number): 13.00000 (13.00000)
  Difference:  0.00000

  MBIS Charges: (a.u.)
   Center  Symbol  Z      Pop.       Charge
      1       N    7    6.500000    0.500000
      2       N    7    6.500000    0.500000

  MBIS Dipoles: [e a0]
   Center  Symbol  Z        X           Y           Z
      1       N    7   -0.000000    0.000000   -0.268762
      2       N    7    0.000000   -0.000000    0.268762

  MBIS Quadrupoles: [e a0^2]
   Center  Symbol  Z      XX        XY        XZ        YY        YZ        ZZ
      1       N    7   -3.2658    0.0000    0.0000   -3.2658   -0.0000   -3.2881
      2       N    7   -3.2658    0.0000   -0.0000   -3.2658    0.0000   -3.2881

  MBIS Octupoles: [e a0^3]
   Center  Symbol  Z      XXX       XXY       XXZ       XYY       XYZ       XZZ       YYY       YYZ       YZZ       ZZZ
      1       N    7   -0.0000   -0.0000   -0.3061   -0.0000    0.0000   -0.0000   -0.0000   -0.3061   -0.0000   -0.7707
      2       N    7   -0.0000   -0.0000    0.3061   -0.0000   -0.0000   -0.0000   -0.0000    0.3061   -0.0000    0.7707

  MBIS Radial Moments:
   Center  Symbol  Z      [a0^2]      [a0^3]      [a0^4]
      1       N    7    9.819568   19.130311   44.415278
      2       N    7    9.819568   19.130311   44.415278

  MBIS Valence Widths: [a0]
   Center  Symbol  Z     Width
      1       N    7    0.414034
      2       N    7    0.414034

*** tstop() called on Mac.lan at Sun Aug 10 18:25:20 2025
Module time:
	user time   =       4.14 seconds =       0.07 minutes
	system time =       1.92 seconds =       0.03 minutes
	total time  =          0 seconds =       0.00 minutes
Total time:
	user time   =      16.37 seconds =       0.27 minutes
	system time =       4.41 seconds =       0.07 minutes
	total time  =          2 seconds =       0.03 minutes

    Psi4 stopped on: Sunday, 10 August 2025 06:25PM
    Psi4 wall time for execution: 0:00:02.03

*** Psi4 exiting successfully. Buy a developer a beer!
