                               Psi4 1.9.1 release

  ==> Input File <==

--------------------------------------------------------------------------
molecule {
1 3
N           0.000000           0.000000           0.000000
C           0.000000           0.000000           1.621139
}

set {
basis              cc-pvtz
reference          uks
maxiter            500
DAMPING_PERCENTAGE 1
E_CONVERGENCE      1.0E-8
D_CONVERGENCE      1.0E-8
DIIS_MAX_VECS      400
MBIS_MAXITER       8000
guess              read
}

E, wfn = energy('b3lyp', restart_file='last_wfn', return_wfn=True)
properties('b3lyp','MBIS_CHARGES', wfn=wfn)
wfn.to_file('last_wfn')
--------------------------------------------------------------------------

    Molecular point group: c2v
  Charge       = 1
  Multiplicity = 3
  Basis Set: CC-PVTZ
    Blend: CC-PVTZ
  Basis Set: (CC-PVTZ AUX)
    Blend: CC-PVTZ-JKFIT
  @DF-UKS Final Energy:   -92.14585021527976
    Total Energy =                        -92.1458502152797791
 Dipole X            :          0.0000000            0.0000000            0.0000000
 Dipole Y            :          0.0000000            0.0000000            0.0000000
 Dipole Z            :          0.5406248            0.0021730            0.5427977
 Magnitude           :                                                    0.5427977
    Molecular point group: c2v

    Geometry (in Angstrom), charge = 1, multiplicity = 3:

       Center              X                  Y                   Z               Mass
    ------------   -----------------  -----------------  -----------------  -----------------
         N            0.000000000000     0.000000000000    -0.748129547941    14.003074004430
         C            0.000000000000     0.000000000000     0.873009452059    12.000000000000

  Charge       = 1
  Multiplicity = 3
  Basis Set: CC-PVTZ
    Blend: CC-PVTZ
  Basis Set: (CC-PVTZ AUX)
    Blend: CC-PVTZ-JKFIT

    Orbital Energies [Eh]
    ---------------------

    Alpha Occupied:

       1A1   -14.860088     2A1   -10.778204     3A1    -1.237968
       4A1    -0.928992     5A1    -0.754160     1B1    -0.738705
       1B2    -0.715517

    Alpha Virtual:

       2B1    -0.499732     2B2    -0.458548     6A1    -0.296674
       7A1    -0.000161     3B1     0.024971     3B2     0.041942
       8A1     0.046343     9A1     0.155483     4B1     0.184239
       4B2     0.195056     1A2     0.327530    10A1     0.327754
       5B1     0.354563     5B2     0.377670    11A1     0.527617
       2A2     0.707722    12A1     0.707754    13A1     0.717024
       6B1     0.974599     6B2     0.992924    14A1     1.153248
       7B1     1.572062     7B2     1.606837    15A1     1.812325
       8B1     2.194304     8B2     2.218981    16A1     2.261293
       3A2     2.266852     9B1     2.296926     9B2     2.297262
      17A1     2.298371    10B1     2.510508    10B2     2.537203
      18A1     2.545271     4A2     2.546120    19A1     2.718121
      11B1     2.726713    11B2     2.756430    20A1     2.891040
      12B1     3.455942    12B2     3.455968    21A1     3.549499
       5A2     3.551725    22A1     3.581731    13B1     3.851463
      13B2     3.871838    23A1     3.993505     6A2     3.993629
      24A1     4.204872    14B1     4.369263    14B2     4.387167
      25A1     5.120732    26A1     6.297612

    Beta Occupied:

       1A1   -14.817305     2A1   -10.777664     3A1    -1.138211
       4A1    -0.855869     1B2    -0.662802

    Beta Virtual:

       5A1    -0.582222     1B1    -0.559755     2B2    -0.453955
       2B1    -0.417395     6A1    -0.227129     7A1     0.019389
       3B2     0.024100     3B1     0.035127     8A1     0.065605
       9A1     0.189930     4B2     0.232772     4B1     0.237139
       1A2     0.318731    10A1     0.322344     5B2     0.392524
       5B1     0.402030    11A1     0.572585    12A1     0.750548
       2A2     0.771910    13A1     0.773180     6B2     1.034362
       6B1     1.038749    14A1     1.211915     7B2     1.565403
       7B1     1.587623    15A1     1.855292     8B2     2.246599
       8B1     2.258812     9B2     2.272623     3A2     2.273097
       9B1     2.274472    16A1     2.277332    17A1     2.332327
       4A2     2.515204    18A1     2.523816    10B2     2.573302
      10B1     2.588430    19A1     2.784956    11B2     2.786073
      11B1     2.799465    20A1     2.934481    12B2     3.551540
      12B1     3.551831    21A1     3.636775     5A2     3.636800
      22A1     3.638873    13B2     3.947227    13B1     3.955254
       6A2     4.124082    23A1     4.126438    24A1     4.298219
      14B2     4.479179    14B1     4.485267    25A1     5.193897
      26A1     6.354266

    Final Occupation by Irrep:
             A1    A2    B1    B2
    DOCC [     4,    0,    0,    1 ]
    SOCC [     1,    0,    1,    0 ]
    NA   [     5,    0,    1,    1 ]
    NB   [     4,    0,    0,    1 ]

  @DF-UKS Final Energy:   -92.14585021531835

   => Energetics <=

    Nuclear Repulsion Energy =             13.7097700124048583
    One-Electron Energy =                -146.6794102312902623
    Two-Electron Energy =                  50.2065127267515621
    DFT Exchange-Correlation Energy =      -9.3827227231845072
    Empirical Dispersion Energy =           0.0000000000000000
    VV10 Nonlocal Energy =                  0.0000000000000000
    Total Energy =                        -92.1458502153183758

  UHF NO Occupations:
  HONO-2 :    1 B2 1.8089866
  HONO-1 :    1 B1 1.0000000
  HONO-0 :    5 A1 1.0000000
  LUNO+0 :    2 B2 0.1910134
  LUNO+1 :    6 A1 0.0065736
  LUNO+2 :    7 A1 0.0005671
  LUNO+3 :    8 A1 0.0000011

Computation Completed

Properties will be evaluated at   0.000000,   0.000000,   0.000000 [a0]

Properties computed using the B3LYP density matrix

 Multipole Moments:

 ------------------------------------------------------------------------------------
     Multipole            Electronic (a.u.)      Nuclear  (a.u.)        Total (a.u.)
 ------------------------------------------------------------------------------------

 L = 1.  Multiply by 2.5417464519 to convert [e a0] to [Debye]
 Dipole X            :          0.0000000            0.0000000            0.0000000
 Dipole Y            :          0.0000000            0.0000000            0.0000000
 Dipole Z            :          0.5406248            0.0021730            0.5427977
 Magnitude           :                                                    0.5427977

 L = 2.  Multiply by 1.3450342976 to convert [e a0^2] to [Debye ang]
 Quadrupole XX       :         -6.1452816            0.0000000           -6.1452816
 Quadrupole XY       :          0.0000000            0.0000000            0.0000000
 Quadrupole XZ       :          0.0000000            0.0000000            0.0000000
 Quadrupole YY       :         -7.3129725            0.0000000           -7.3129725
 Quadrupole YZ       :          0.0000000            0.0000000            0.0000000
 Quadrupole ZZ       :        -33.7071949           30.3210464           -3.3861485
 Traceless XX        :          9.5765347          -10.1070155           -0.5304807
 Traceless YY        :          8.4088439          -10.1070155           -1.6981716
 Traceless ZZ        :        -17.9853786           20.2140309            2.2286524

 ------------------------------------------------------------------------------------
  ==> Computing MBIS Charges <==

  Electron Count from Grid (Expected Number): 12.00000 (12.00000)
  Difference: -0.00000

  MBIS Charges: (a.u.)
   Center  Symbol  Z      Pop.       Charge
      1       N    7    6.687625    0.312375
      2       C    6    5.312375    0.687625

  MBIS Dipoles: [e a0]
   Center  Symbol  Z        X           Y           Z
      1       N    7   -0.000000   -0.000000   -0.257159
      2       C    6   -0.000000    0.000000    0.107171

  MBIS Quadrupoles: [e a0^2]
   Center  Symbol  Z      XX        XY        XZ        YY        YZ        ZZ
      1       N    7   -3.3385    0.0000   -0.0000   -3.7510    0.0000   -3.5674
      2       C    6   -2.8068    0.0000    0.0000   -3.5620    0.0000   -3.3953

  MBIS Octupoles: [e a0^3]
   Center  Symbol  Z      XXX       XXY       XXZ       XYY       XYZ       XZZ       YYY       YYZ       YZZ       ZZZ
      1       N    7   -0.0000   -0.0000   -0.1804   -0.0000    0.0000    0.0000   -0.0000   -0.3655   -0.0000   -0.9212
      2       C    6   -0.0000   -0.0000    0.1658   -0.0000   -0.0000   -0.0000    0.0000    0.2890    0.0000    0.6403

  MBIS Radial Moments:
   Center  Symbol  Z      [a0^2]      [a0^3]      [a0^4]
      1       N    7   10.656907   21.333201   50.934311
      2       C    6    9.764069   21.629983   57.037168

  MBIS Valence Widths: [a0]
   Center  Symbol  Z     Width
      1       N    7    0.423361
      2       C    6    0.477620

*** tstop() called on Mac.lan at Sun Aug 10 18:34:48 2025
Module time:
	user time   =       3.75 seconds =       0.06 minutes
	system time =       2.14 seconds =       0.04 minutes
	total time  =          0 seconds =       0.00 minutes
Total time:
	user time   =      19.78 seconds =       0.33 minutes
	system time =       4.63 seconds =       0.08 minutes
	total time  =          2 seconds =       0.03 minutes

    Psi4 stopped on: Sunday, 10 August 2025 06:34PM
    Psi4 wall time for execution: 0:00:02.36

*** Psi4 exiting successfully. Buy a developer a beer!
