                               Psi4 1.9.1 release

  ==> Input File <==

--------------------------------------------------------------------------
molecule {
1 2
O           0.000000           0.000000           0.000000
O           0.000000           0.000000           0.806028
}

set {
basis              cc-pvtz
reference          uks
maxiter            500
DAMPING_PERCENTAGE 1
E_CONVERGENCE      1.0E-8
D_CONVERGENCE      1.0E-8
DIIS_MAX_VECS      400
MBIS_MAXITER       8000
guess              read
}

E, wfn = energy('b3lyp', restart_file='last_wfn', return_wfn=True)
properties('b3lyp','MBIS_CHARGES', wfn=wfn)
wfn.to_file('last_wfn')
--------------------------------------------------------------------------

    Molecular point group: d2h
  Charge       = 1
  Multiplicity = 2
  Basis Set: CC-PVTZ
    Blend: CC-PVTZ
  Basis Set: (CC-PVTZ AUX)
    Blend: CC-PVTZ-JKFIT
  @DF-UKS Final Energy:  -149.43154465719570
    Total Energy =                       -149.4315446571957011
 Dipole X            :          0.0000000            0.0000000            0.0000000
 Dipole Y            :          0.0000000            0.0000000            0.0000000
 Dipole Z            :          0.0000000            0.0000000            0.0000000
 Magnitude           :                                                    0.0000000
    Molecular point group: d2h

    Geometry (in Angstrom), charge = 1, multiplicity = 2:

       Center              X                  Y                   Z               Mass
    ------------   -----------------  -----------------  -----------------  -----------------
         O            0.000000000000     0.000000000000    -0.403014000000    15.994914619570
         O            0.000000000000     0.000000000000     0.403014000000    15.994914619570

  Charge       = 1
  Multiplicity = 2
  Basis Set: CC-PVTZ
    Blend: CC-PVTZ
  Basis Set: (CC-PVTZ AUX)
    Blend: CC-PVTZ-JKFIT

    Orbital Energies [Eh]
    ---------------------

    Alpha Occupied:

       1Ag   -19.797996     1B1u  -19.786686     2Ag    -2.249152
       1B3u   -1.290435     1B2u   -1.266353     2B1u   -1.169019
       3Ag    -1.100068     1B2g   -0.553212

    Alpha Virtual:

       1B3g   -0.426368     3B1u    0.046269     2B2u    0.070186
       2B3u    0.072881     4Ag     0.152680     5Ag     0.254945
       2B2g    0.310477     2B3g    0.323578     1B1g    0.675866
       6Ag     0.677197     4B1u    0.720565     5B1u    0.971614
       3B3u    1.183128     3B2u    1.186618     1Au     1.375993
       6B1u    1.377969     7Ag     1.672366     3B2g    1.859680
       3B3g    1.867422     7B1u    2.525250     4B3u    2.855266
       4B2u    2.862381     8Ag     3.499310     4B2g    3.607230
       4B3g    3.617146     8B1u    3.974724     5B3u    4.077135
       5B2u    4.077329     2B1g    4.147671     9Ag     4.148955
       6B2u    4.586060     6B3u    4.586530     5B2g    5.026426
       5B3g    5.026705    10Ag     5.092319     6B2g    5.321569
       6B3g    5.326190     3B1g    5.507823    11Ag     5.511327
       2Au     5.625727     9B1u    5.629251    12Ag     5.849490
      10B1u    6.165976     3Au     6.525908    11B1u    6.527883
       7B2u    6.530443     7B3u    6.532021    12B1u    7.980347
       7B2g    9.002377     7B3g    9.004262    13Ag     9.819336
      13B1u   29.209630

    Beta Occupied:

       1Ag   -19.782707     1B1u  -19.771191     2Ag    -2.230943
       1B2u   -1.253986     1B3u   -1.207386     2B1u   -1.123128
       3Ag    -1.070804

    Beta Virtual:

       1B3g   -0.409016     1B2g   -0.362612     3B1u    0.052625
       2B2u    0.072986     2B3u    0.092074     4Ag     0.155008
       5Ag     0.268670     2B3g    0.329597     2B2g    0.350396
       1B1g    0.696503     6Ag     0.696772     4B1u    0.738332
       5B1u    0.994884     3B2u    1.191092     3B3u    1.223585
       1Au     1.412680     6B1u    1.412995     7Ag     1.681698
       3B3g    1.872961     3B2g    1.898300     7B1u    2.542578
       4B2u    2.872126     4B3u    2.910589     8Ag     3.511894
       4B3g    3.628891     4B2g    3.669515     8B1u    4.002008
       5B2u    4.106826     5B3u    4.106847     2B1g    4.165479
       9Ag     4.165990     6B2u    4.591521     6B3u    4.628683
       5B3g    5.067232     5B2g    5.067262    10Ag     5.108060
       6B3g    5.330860     6B2g    5.364591    11Ag     5.561371
       3B1g    5.561646     9B1u    5.678968     2Au     5.679571
      12Ag     5.869743    10B1u    6.185774     7B2u    6.535288
       3Au     6.558887    11B1u    6.559415     7B3u    6.572589
      12B1u    7.997958     7B3g    9.011491     7B2g    9.051088
      13Ag     9.843611    13B1u   29.228373

    Final Occupation by Irrep:
             Ag   B1g   B2g   B3g    Au   B1u   B2u   B3u
    DOCC [     3,    0,    0,    0,    0,    2,    1,    1 ]
    SOCC [     0,    0,    1,    0,    0,    0,    0,    0 ]
    NA   [     3,    0,    1,    0,    0,    2,    1,    1 ]
    NB   [     3,    0,    0,    0,    0,    2,    1,    1 ]

  @DF-UKS Final Energy:  -149.43154465711609

   => Energetics <=

    Nuclear Repulsion Energy =             42.0175744302679419
    One-Electron Energy =                -279.2889815063563219
    Two-Electron Energy =                 101.7220001122373532
    DFT Exchange-Correlation Energy =     -13.8821376932650402
    Empirical Dispersion Energy =           0.0000000000000000
    VV10 Nonlocal Energy =                  0.0000000000000000
    Total Energy =                       -149.4315446571160635

  UHF NO Occupations:
  HONO-2 :    2B1u 1.9997937
  HONO-1 :    1B3u 1.9996943
  HONO-0 :    1B2g 1.0000000
  LUNO+0 :    2B3u 0.0003057
  LUNO+1 :    3B1u 0.0002063
  LUNO+2 :    4 Ag 0.0001330
  LUNO+3 :    2B2u 0.0000152

Computation Completed

Properties will be evaluated at   0.000000,   0.000000,   0.000000 [a0]

Properties computed using the B3LYP density matrix

 Multipole Moments:

 ------------------------------------------------------------------------------------
     Multipole            Electronic (a.u.)      Nuclear  (a.u.)        Total (a.u.)
 ------------------------------------------------------------------------------------

 L = 1.  Multiply by 2.5417464519 to convert [e a0] to [Debye]
 Dipole X            :          0.0000000            0.0000000            0.0000000
 Dipole Y            :          0.0000000            0.0000000            0.0000000
 Dipole Z            :          0.0000000            0.0000000            0.0000000
 Magnitude           :                                                    0.0000000

 L = 2.  Multiply by 1.3450342976 to convert [e a0^2] to [Debye ang]
 Quadrupole XX       :         -5.6717406            0.0000000           -5.6717406
 Quadrupole XY       :          0.0000000            0.0000000            0.0000000
 Quadrupole XZ       :          0.0000000            0.0000000            0.0000000
 Quadrupole YY       :         -5.0383739            0.0000000           -5.0383739
 Quadrupole YZ       :          0.0000000            0.0000000            0.0000000
 Quadrupole ZZ       :        -14.9173617            9.2802138           -5.6371479
 Traceless XX        :          2.8707515           -3.0934046           -0.2226532
 Traceless YY        :          3.5041181           -3.0934046            0.4107135
 Traceless ZZ        :         -6.3748696            6.1868092           -0.1880604

 ------------------------------------------------------------------------------------
  ==> Computing MBIS Charges <==

  Electron Count from Grid (Expected Number): 15.00000 (15.00000)
  Difference: -0.00000

  MBIS Charges: (a.u.)
   Center  Symbol  Z      Pop.       Charge
      1       O    8    7.500000    0.500000
      2       O    8    7.500000    0.500000

  MBIS Dipoles: [e a0]
   Center  Symbol  Z        X           Y           Z
      1       O    8   -0.000000    0.000000    0.094855
      2       O    8    0.000000   -0.000000   -0.094855

  MBIS Quadrupoles: [e a0^2]
   Center  Symbol  Z      XX        XY        XZ        YY        YZ        ZZ
      1       O    8   -2.8359    0.0000    0.0000   -2.5192   -0.0000   -2.9641
      2       O    8   -2.8359    0.0000   -0.0000   -2.5192    0.0000   -2.9641

  MBIS Octupoles: [e a0^3]
   Center  Symbol  Z      XXX       XXY       XXZ       XYY       XYZ       XZZ       YYY       YYZ       YZZ       ZZZ
      1       O    8   -0.0000   -0.0000    0.2111   -0.0000   -0.0000   -0.0000    0.0000    0.0826    0.0000    0.1121
      2       O    8   -0.0000   -0.0000   -0.2111   -0.0000    0.0000   -0.0000    0.0000   -0.0826    0.0000   -0.1121

  MBIS Radial Moments:
   Center  Symbol  Z      [a0^2]      [a0^3]      [a0^4]
      1       O    8    8.319158   13.814810   27.668669
      2       O    8    8.319158   13.814810   27.668669

  MBIS Valence Widths: [a0]
   Center  Symbol  Z     Width
      1       O    8    0.343288
      2       O    8    0.343288

*** tstop() called on Mac.lan at Sun Aug 10 18:13:04 2025
Module time:
	user time   =       3.78 seconds =       0.06 minutes
	system time =       2.51 seconds =       0.04 minutes
	total time  =          0 seconds =       0.00 minutes
Total time:
	user time   =      16.62 seconds =       0.28 minutes
	system time =       4.75 seconds =       0.08 minutes
	total time  =          2 seconds =       0.03 minutes

    Psi4 stopped on: Sunday, 10 August 2025 06:13PM
    Psi4 wall time for execution: 0:00:02.09

*** Psi4 exiting successfully. Buy a developer a beer!
