                               Psi4 1.9.1 release

  ==> Input File <==

--------------------------------------------------------------------------
molecule {
1 2
O           0.000000           0.000000           0.000000
C           0.000000           0.000000           1.114522
}

set {
basis              cc-pvtz
reference          uks
maxiter            500
DAMPING_PERCENTAGE 1
E_CONVERGENCE      1.0E-8
D_CONVERGENCE      1.0E-8
DIIS_MAX_VECS      400
MBIS_MAXITER       8000
guess              read
}

E, wfn = energy('b3lyp', restart_file='last_wfn', return_wfn=True)
properties('b3lyp','MBIS_CHARGES', wfn=wfn)
wfn.to_file('last_wfn')
--------------------------------------------------------------------------

    Molecular point group: c2v
  Charge       = 1
  Multiplicity = 2
  Basis Set: CC-PVTZ
    Blend: CC-PVTZ
  Basis Set: (CC-PVTZ AUX)
    Blend: CC-PVTZ-JKFIT
  @DF-UKS Final Energy:  -112.83721142486408
    Total Energy =                       -112.8372114248640798
 Dipole X            :          0.0000000            0.0000000            0.0000000
 Dipole Y            :          0.0000000            0.0000000            0.0000000
 Dipole Z            :          1.0798450           -0.0022955            1.0775495
 Magnitude           :                                                    1.0775495
    Molecular point group: c2v

    Geometry (in Angstrom), charge = 1, multiplicity = 2:

       Center              X                  Y                   Z               Mass
    ------------   -----------------  -----------------  -----------------  -----------------
         O            0.000000000000     0.000000000000    -0.477739053030    15.994914619570
         C            0.000000000000     0.000000000000     0.636782946970    12.000000000000

  Charge       = 1
  Multiplicity = 2
  Basis Set: CC-PVTZ
    Blend: CC-PVTZ
  Basis Set: (CC-PVTZ AUX)
    Blend: CC-PVTZ-JKFIT

    Orbital Energies [Eh]
    ---------------------

    Alpha Occupied:

       1A1   -19.654253     2A1   -10.797091     3A1    -1.573918
       4A1    -0.968743     1B1    -0.866168     1B2    -0.866168
       5A1    -0.865168

    Alpha Virtual:

       2B2    -0.432886     2B1    -0.432886     6A1    -0.118591
       7A1    -0.021662     3B2    -0.010709     3B1    -0.010709
       8A1     0.199419     9A1     0.266308    10A1     0.278381
       1A2     0.278381     4B1     0.329613     4B2     0.329613
       5B1     0.488076     5B2     0.488076    11A1     0.790409
      12A1     0.941210     2A2     1.157920    13A1     1.157920
       6B2     1.475486     6B1     1.475486    14A1     1.513405
       7B1     1.612713     7B2     1.612713    15A1     2.038070
       8B1     2.218602     8B2     2.218602    16A1     2.410309
       3A2     2.410309    17A1     2.465361     4A2     2.465362
       9B2     2.483484     9B1     2.483484    18A1     2.652284
      10B2     2.832563    10B1     2.832563    19A1     2.934130
      11B2     3.683312    11B1     3.683312    20A1     4.055863
      12B2     4.712774    12B1     4.712774     5A2     5.114017
      21A1     5.114019    22A1     5.714104    23A1     5.849629
       6A2     5.849637    13B2     5.855405    13B1     5.855405
      14B2     6.347924    14B1     6.347924    24A1     6.373968
      25A1     6.627333    26A1    11.981877

    Beta Occupied:

       1A1   -19.654864     2A1   -10.772222     3A1    -1.565934
       4A1    -0.934203     1B1    -0.862065     1B2    -0.862065

    Beta Virtual:

       5A1    -0.648980     2B2    -0.391055     2B1    -0.391055
       6A1    -0.102810     3B2     0.000031     3B1     0.000031
       7A1     0.018145     8A1     0.249272     9A1     0.273208
      10A1     0.298960     1A2     0.298960     4B1     0.327033
       4B2     0.327033     5B1     0.525272     5B2     0.525272
      11A1     0.801987    12A1     0.972173     2A2     1.157514
      13A1     1.157514     6B1     1.502107     6B2     1.502107
      14A1     1.570175     7B2     1.624116     7B1     1.624116
      15A1     2.082854     8B1     2.254310     8B2     2.254310
      16A1     2.430196     3A2     2.430196    17A1     2.542026
       4A2     2.542026     9B2     2.583586     9B1     2.583586
      18A1     2.731790    10B2     2.858601    10B1     2.858601
      19A1     3.002003    11B2     3.694478    11B1     3.694478
      20A1     4.081653    12B2     4.702576    12B1     4.702576
       5A2     5.115521    21A1     5.115522    22A1     5.735052
      23A1     5.836717     6A2     5.836726    13B2     5.869465
      13B1     5.869465    14B2     6.356173    14B1     6.356173
      24A1     6.382429    25A1     6.642802    26A1    12.003577

    Final Occupation by Irrep:
             A1    A2    B1    B2
    DOCC [     4,    0,    1,    1 ]
    SOCC [     1,    0,    0,    0 ]
    NA   [     5,    0,    1,    1 ]
    NB   [     4,    0,    1,    1 ]

  @DF-UKS Final Energy:  -112.83721142682363

   => Energetics <=

    Nuclear Repulsion Energy =             22.7904932447811746
    One-Electron Energy =                -193.1391319195385563
    Two-Electron Energy =                  68.4566602480987996
    DFT Exchange-Correlation Energy =     -10.9452330001650413
    Empirical Dispersion Energy =           0.0000000000000000
    VV10 Nonlocal Energy =                  0.0000000000000000
    Total Energy =                       -112.8372114268236288

  UHF NO Occupations:
  HONO-2 :    1 B2 1.9964829
  HONO-1 :    1 B1 1.9964829
  HONO-0 :    5 A1 1.0000000
  LUNO+0 :    2 B2 0.0035171
  LUNO+1 :    2 B1 0.0035171
  LUNO+2 :    6 A1 0.0002671
  LUNO+3 :    7 A1 0.0000209

Computation Completed

Properties will be evaluated at   0.000000,   0.000000,   0.000000 [a0]

Properties computed using the B3LYP density matrix

 Multipole Moments:

 ------------------------------------------------------------------------------------
     Multipole            Electronic (a.u.)      Nuclear  (a.u.)        Total (a.u.)
 ------------------------------------------------------------------------------------

 L = 1.  Multiply by 2.5417464519 to convert [e a0] to [Debye]
 Dipole X            :          0.0000000            0.0000000            0.0000000
 Dipole Y            :          0.0000000            0.0000000            0.0000000
 Dipole Z            :          1.0798450           -0.0022955            1.0775495
 Magnitude           :                                                    1.0775495

 L = 2.  Multiply by 1.3450342976 to convert [e a0^2] to [Debye ang]
 Quadrupole XX       :         -5.9225425            0.0000000           -5.9225425
 Quadrupole XY       :          0.0000000            0.0000000            0.0000000
 Quadrupole XZ       :          0.0000000            0.0000000            0.0000000
 Quadrupole YY       :         -5.9225425            0.0000000           -5.9225425
 Quadrupole YZ       :          0.0000000            0.0000000            0.0000000
 Quadrupole ZZ       :        -19.2240461           15.2085650           -4.0154811
 Traceless XX        :          4.4338345           -5.0695217           -0.6356872
 Traceless YY        :          4.4338345           -5.0695217           -0.6356872
 Traceless ZZ        :         -8.8676690           10.1390433            1.2713743

 ------------------------------------------------------------------------------------
  ==> Computing MBIS Charges <==

  Electron Count from Grid (Expected Number): 13.00000 (13.00000)
  Difference:  0.00000

  MBIS Charges: (a.u.)
   Center  Symbol  Z      Pop.       Charge
      1       O    8    8.013604   -0.013604
      2       C    6    4.986396    1.013604

  MBIS Dipoles: [e a0]
   Center  Symbol  Z        X           Y           Z
      1       O    8    0.000000   -0.000000   -0.282649
      2       C    6    0.000000   -0.000000    0.128202

  MBIS Quadrupoles: [e a0^2]
   Center  Symbol  Z      XX        XY        XZ        YY        YZ        ZZ
      1       O    8   -3.4185   -0.0000    0.0000   -3.4185    0.0000   -3.6031
      2       C    6   -2.5040   -0.0000    0.0000   -2.5040    0.0000   -2.6879

  MBIS Octupoles: [e a0^3]
   Center  Symbol  Z      XXX       XXY       XXZ       XYY       XYZ       XZZ       YYY       YYZ       YZZ       ZZZ
      1       O    8   -0.0000   -0.0000   -0.2443   -0.0000    0.0000   -0.0000   -0.0000   -0.2443   -0.0000   -0.5527
      2       C    6    0.0000   -0.0000    0.1424    0.0000    0.0000    0.0000    0.0000    0.1424    0.0000    0.1583

  MBIS Radial Moments:
   Center  Symbol  Z      [a0^2]      [a0^3]      [a0^4]
      1       O    8   10.440105   18.486358   39.095248
      2       C    6    7.696004   15.798164   38.640425

  MBIS Valence Widths: [a0]
   Center  Symbol  Z     Width
      1       O    8    0.371540
      2       C    6    0.441590

*** tstop() called on Mac.lan at Sun Aug 10 18:36:11 2025
Module time:
	user time   =       4.54 seconds =       0.08 minutes
	system time =       2.70 seconds =       0.05 minutes
	total time  =          1 seconds =       0.02 minutes
Total time:
	user time   =      60.29 seconds =       1.00 minutes
	system time =       4.13 seconds =       0.07 minutes
	total time  =          7 seconds =       0.12 minutes

    Psi4 stopped on: Sunday, 10 August 2025 06:36PM
    Psi4 wall time for execution: 0:00:06.53

*** Psi4 exiting successfully. Buy a developer a beer!
