                               Psi4 1.9.1 release

  ==> Input File <==

--------------------------------------------------------------------------
molecule {
1 1
C           0.000000           0.000000           0.000000
H           0.000000           0.000000           0.702907
}

set {
basis              cc-pvtz
reference          uks
maxiter            500
DAMPING_PERCENTAGE 1
E_CONVERGENCE      1.0E-8
D_CONVERGENCE      1.0E-8
DIIS_MAX_VECS      400
MBIS_MAXITER       8000
guess              read
}

E, wfn = energy('b3lyp', restart_file='last_wfn', return_wfn=True)
properties('b3lyp','MBIS_CHARGES', wfn=wfn)
wfn.to_file('last_wfn')
--------------------------------------------------------------------------

    Molecular point group: c2v
  Charge       = 1
  Multiplicity = 1
  Basis Set: CC-PVTZ
    Blend: CC-PVTZ
  Basis Set: (CC-PVTZ AUX)
    Blend: CC-PVTZ-JKFIT
  @DF-UKS Final Energy:   -37.84823094627082
    Total Energy =                        -37.8482309462708031
 Dipole X            :          0.0000000            0.0000000            0.0000000
 Dipole Y            :          0.0000000            0.0000000            0.0000000
 Dipole Z            :          0.0891419            0.6078992            0.6970411
 Magnitude           :                                                    0.6970411
    Molecular point group: c2v

    Geometry (in Angstrom), charge = 1, multiplicity = 1:

       Center              X                  Y                   Z               Mass
    ------------   -----------------  -----------------  -----------------  -----------------
         C            0.000000000000     0.000000000000    -0.054460086000    12.000000000000
         H            0.000000000000     0.000000000000     0.648446914000     1.007825032230

  Charge       = 1
  Multiplicity = 1
  Basis Set: CC-PVTZ
    Blend: CC-PVTZ
  Basis Set: (CC-PVTZ AUX)
    Blend: CC-PVTZ-JKFIT

    Orbital Energies [Eh]
    ---------------------

    Alpha Occupied:

       1A1   -10.792675     2A1    -1.223717     3A1    -0.749783

    Alpha Virtual:

       1B1    -0.569854     1B2    -0.569854     4A1    -0.175265
       5A1    -0.000132     2B2     0.001257     2B1     0.001257
       6A1     0.084025     3B1     0.272866     3B2     0.272866
       7A1     0.305357     1A2     0.305357     8A1     0.318314
       9A1     0.696542     4B1     0.779107     4B2     0.779107
      10A1     1.455236     5B2     1.490740     5B1     1.490740
      11A1     1.606637    12A1     1.878288    13A1     2.176563
       2A2     2.176563     6B2     2.231425     6B1     2.231425
       7B2     2.288353     7B1     2.288353    14A1     2.440474
       3A2     2.440474     8B2     2.642185     8B1     2.642185
      15A1     2.666101    16A1     3.538750     4A2     3.689816
      17A1     3.689816     9B1     3.727400     9B2     3.727400
      18A1     5.304180    10B2     5.373268    10B1     5.373268
      19A1     6.187462    20A1    14.067559

    Beta Occupied:

       1A1   -10.792675     2A1    -1.223717     3A1    -0.749783

    Beta Virtual:

       1B1    -0.569854     1B2    -0.569854     4A1    -0.175265
       5A1    -0.000132     2B2     0.001257     2B1     0.001257
       6A1     0.084025     3B1     0.272866     3B2     0.272866
       7A1     0.305357     1A2     0.305357     8A1     0.318314
       9A1     0.696542     4B1     0.779107     4B2     0.779107
      10A1     1.455236     5B2     1.490740     5B1     1.490740
      11A1     1.606637    12A1     1.878288    13A1     2.176563
       2A2     2.176563     6B2     2.231425     6B1     2.231425
       7B2     2.288353     7B1     2.288353    14A1     2.440474
       3A2     2.440474     8B2     2.642185     8B1     2.642185
      15A1     2.666101    16A1     3.538750     4A2     3.689816
      17A1     3.689816     9B1     3.727400     9B2     3.727400
      18A1     5.304180    10B2     5.373268    10B1     5.373268
      19A1     6.187462    20A1    14.067559

    Final Occupation by Irrep:
             A1    A2    B1    B2
    DOCC [     3,    0,    0,    0 ]
    SOCC [     0,    0,    0,    0 ]
    NA   [     3,    0,    0,    0 ]
    NB   [     3,    0,    0,    0 ]

  @DF-UKS Final Energy:   -37.84823094671057

   => Energetics <=

    Nuclear Repulsion Energy =              4.5170460160732508
    One-Electron Energy =                 -55.9967874426373413
    Two-Electron Energy =                  18.0624564113719259
    DFT Exchange-Correlation Energy =      -4.4309459315184077
    Empirical Dispersion Energy =           0.0000000000000000
    VV10 Nonlocal Energy =                  0.0000000000000000
    Total Energy =                        -37.8482309467105722

  UHF NO Occupations:
  HONO-2 :    1 A1 2.0000000
  HONO-1 :    2 A1 2.0000000
  HONO-0 :    3 A1 2.0000000
  LUNO+0 :    4 A1 0.0000000
  LUNO+1 :    5 A1 0.0000000
  LUNO+2 :    6 A1 0.0000000
  LUNO+3 :    7 A1 0.0000000

Computation Completed

Properties will be evaluated at   0.000000,   0.000000,   0.000000 [a0]

Properties computed using the B3LYP density matrix

 Multipole Moments:

 ------------------------------------------------------------------------------------
     Multipole            Electronic (a.u.)      Nuclear  (a.u.)        Total (a.u.)
 ------------------------------------------------------------------------------------

 L = 1.  Multiply by 2.5417464519 to convert [e a0] to [Debye]
 Dipole X            :          0.0000000            0.0000000            0.0000000
 Dipole Y            :          0.0000000            0.0000000            0.0000000
 Dipole Z            :          0.0891419            0.6078992            0.6970411
 Magnitude           :                                                    0.6970411

 L = 2.  Multiply by 1.3450342976 to convert [e a0^2] to [Debye ang]
 Quadrupole XX       :         -2.6284918            0.0000000           -2.6284918
 Quadrupole XY       :          0.0000000            0.0000000            0.0000000
 Quadrupole XZ       :          0.0000000            0.0000000            0.0000000
 Quadrupole YY       :         -2.6284918            0.0000000           -2.6284918
 Quadrupole YZ       :          0.0000000            0.0000000            0.0000000
 Quadrupole ZZ       :         -5.1568769            1.5651220           -3.5917548
 Traceless XX        :          0.8427950           -0.5217073            0.3210877
 Traceless YY        :          0.8427950           -0.5217073            0.3210877
 Traceless ZZ        :         -1.6855901            1.0434147           -0.6421754

 ------------------------------------------------------------------------------------
  ==> Computing MBIS Charges <==

  Electron Count from Grid (Expected Number):  6.00000 ( 6.00000)
  Difference:  0.00000

  MBIS Charges: (a.u.)
   Center  Symbol  Z      Pop.       Charge
      1       C    6    5.116727    0.883273
      2       H    1    0.883273    0.116727

  MBIS Dipoles: [e a0]
   Center  Symbol  Z        X           Y           Z
      1       C    6   -0.000000   -0.000000    0.615737
      2       H    1    0.000000    0.000000    0.029170

  MBIS Quadrupoles: [e a0^2]
   Center  Symbol  Z      XX        XY        XZ        YY        YZ        ZZ
      1       C    6   -2.3906    0.0000    0.0000   -2.3906    0.0000   -3.4811
      2       H    1   -0.2379   -0.0000    0.0000   -0.2379    0.0000   -0.2401

  MBIS Octupoles: [e a0^3]
   Center  Symbol  Z      XXX       XXY       XXZ       XYY       XYZ       XZZ       YYY       YYZ       YZZ       ZZZ
      1       C    6   -0.0000    0.0000    0.7160   -0.0000   -0.0000   -0.0000    0.0000    0.7160   -0.0000    1.8133
      2       H    1    0.0000    0.0000   -0.0008   -0.0000   -0.0000    0.0000    0.0000   -0.0008    0.0000    0.0032

  MBIS Radial Moments:
   Center  Symbol  Z      [a0^2]      [a0^3]      [a0^4]
      1       C    6    8.262195   17.296030   43.098288
      2       H    1    0.715924    0.895020    1.337244

  MBIS Valence Widths: [a0]
   Center  Symbol  Z     Width
      1       C    6    0.449490
      2       H    1    0.265344

*** tstop() called on Mac.lan at Sun Aug 10 18:27:06 2025
Module time:
	user time   =       3.04 seconds =       0.05 minutes
	system time =       1.82 seconds =       0.03 minutes
	total time  =          0 seconds =       0.00 minutes
Total time:
	user time   =      10.66 seconds =       0.18 minutes
	system time =       3.97 seconds =       0.07 minutes
	total time  =          1 seconds =       0.02 minutes

    Psi4 stopped on: Sunday, 10 August 2025 06:27PM
    Psi4 wall time for execution: 0:00:01.44

*** Psi4 exiting successfully. Buy a developer a beer!
