                               Psi4 1.9.1 release

  ==> Input File <==

--------------------------------------------------------------------------
molecule {
1 1
C           0.000000           0.000000           0.000000
H           0.000000           0.000000           0.744664
}

set {
basis              cc-pvtz
reference          uks
maxiter            500
DAMPING_PERCENTAGE 1
E_CONVERGENCE      1.0E-8
D_CONVERGENCE      1.0E-8
DIIS_MAX_VECS      400
MBIS_MAXITER       8000
guess              read
}

E, wfn = energy('b3lyp', restart_file='last_wfn', return_wfn=True)
properties('b3lyp','MBIS_CHARGES', wfn=wfn)
wfn.to_file('last_wfn')
--------------------------------------------------------------------------

    Molecular point group: c2v
  Charge       = 1
  Multiplicity = 1
  Basis Set: CC-PVTZ
    Blend: CC-PVTZ
  Basis Set: (CC-PVTZ AUX)
    Blend: CC-PVTZ-JKFIT
  @DF-UKS Final Energy:   -37.91359281478930
    Total Energy =                        -37.9135928147893040
 Dipole X            :          0.0000000            0.0000000            0.0000000
 Dipole Y            :          0.0000000            0.0000000            0.0000000
 Dipole Z            :          0.0564488            0.6440121            0.7004610
 Magnitude           :                                                    0.7004610
    Molecular point group: c2v

    Geometry (in Angstrom), charge = 1, multiplicity = 1:

       Center              X                  Y                   Z               Mass
    ------------   -----------------  -----------------  -----------------  -----------------
         C            0.000000000000     0.000000000000    -0.057695350140    12.000000000000
         H            0.000000000000     0.000000000000     0.686968649860     1.007825032230

  Charge       = 1
  Multiplicity = 1
  Basis Set: CC-PVTZ
    Blend: CC-PVTZ
  Basis Set: (CC-PVTZ AUX)
    Blend: CC-PVTZ-JKFIT

    Orbital Energies [Eh]
    ---------------------

    Alpha Occupied:

       1A1   -10.790463     2A1    -1.204473     3A1    -0.747008

    Alpha Virtual:

       1B2    -0.566793     1B1    -0.566793     4A1    -0.175202
       2B2     0.002436     2B1     0.002436     5A1     0.002854
       6A1     0.071711     3B2     0.267595     3B1     0.267595
       7A1     0.299082     8A1     0.306286     1A2     0.306286
       9A1     0.690326     4B1     0.772183     4B2     0.772183
      10A1     1.465403     5B1     1.504186     5B2     1.504186
      11A1     1.563439    12A1     1.829989    13A1     2.166604
       2A2     2.166604     6B2     2.233033     6B1     2.233033
       7B1     2.283342     7B2     2.283342    14A1     2.450704
       3A2     2.450705     8B1     2.630340     8B2     2.630340
      15A1     2.650775    16A1     3.479488     4A2     3.624818
      17A1     3.624819     9B1     3.678554     9B2     3.678554
      10B1     5.256638    10B2     5.256638    18A1     5.265485
      19A1     5.827858    20A1    13.254567

    Beta Occupied:

       1A1   -10.790463     2A1    -1.204473     3A1    -0.747008

    Beta Virtual:

       1B2    -0.566793     1B1    -0.566793     4A1    -0.175202
       2B2     0.002436     2B1     0.002436     5A1     0.002854
       6A1     0.071711     3B2     0.267595     3B1     0.267595
       7A1     0.299082     8A1     0.306286     1A2     0.306286
       9A1     0.690326     4B1     0.772183     4B2     0.772183
      10A1     1.465403     5B1     1.504186     5B2     1.504186
      11A1     1.563439    12A1     1.829989    13A1     2.166604
       2A2     2.166604     6B2     2.233033     6B1     2.233033
       7B1     2.283342     7B2     2.283342    14A1     2.450704
       3A2     2.450705     8B1     2.630340     8B2     2.630340
      15A1     2.650775    16A1     3.479488     4A2     3.624818
      17A1     3.624819     9B1     3.678554     9B2     3.678554
      10B1     5.256638    10B2     5.256638    18A1     5.265485
      19A1     5.827858    20A1    13.254567

    Final Occupation by Irrep:
             A1    A2    B1    B2
    DOCC [     3,    0,    0,    0 ]
    SOCC [     0,    0,    0,    0 ]
    NA   [     3,    0,    0,    0 ]
    NB   [     3,    0,    0,    0 ]

  @DF-UKS Final Energy:   -37.91359281474890

   => Energetics <=

    Nuclear Repulsion Energy =              4.2637528657488506
    One-Electron Energy =                 -55.6840340468193560
    Two-Electron Energy =                  17.9170833631173494
    DFT Exchange-Correlation Energy =      -4.4103949967957465
    Empirical Dispersion Energy =           0.0000000000000000
    VV10 Nonlocal Energy =                  0.0000000000000000
    Total Energy =                        -37.9135928147489025

  UHF NO Occupations:
  HONO-2 :    1 A1 2.0000000
  HONO-1 :    2 A1 2.0000000
  HONO-0 :    3 A1 2.0000000
  LUNO+0 :    4 A1 0.0000000
  LUNO+1 :    5 A1 0.0000000
  LUNO+2 :    6 A1 0.0000000
  LUNO+3 :    7 A1 0.0000000

Computation Completed

Properties will be evaluated at   0.000000,   0.000000,   0.000000 [a0]

Properties computed using the B3LYP density matrix

 Multipole Moments:

 ------------------------------------------------------------------------------------
     Multipole            Electronic (a.u.)      Nuclear  (a.u.)        Total (a.u.)
 ------------------------------------------------------------------------------------

 L = 1.  Multiply by 2.5417464519 to convert [e a0] to [Debye]
 Dipole X            :          0.0000000            0.0000000            0.0000000
 Dipole Y            :          0.0000000            0.0000000            0.0000000
 Dipole Z            :          0.0564488            0.6440121            0.7004610
 Magnitude           :                                                    0.7004610

 L = 2.  Multiply by 1.3450342976 to convert [e a0^2] to [Debye ang]
 Quadrupole XX       :         -2.6546617            0.0000000           -2.6546617
 Quadrupole XY       :          0.0000000            0.0000000            0.0000000
 Quadrupole XZ       :          0.0000000            0.0000000            0.0000000
 Quadrupole YY       :         -2.6546617            0.0000000           -2.6546617
 Quadrupole YZ       :          0.0000000            0.0000000            0.0000000
 Quadrupole ZZ       :         -5.3326724            1.7566012           -3.5760712
 Traceless XX        :          0.8926703           -0.5855337            0.3071365
 Traceless YY        :          0.8926703           -0.5855337            0.3071365
 Traceless ZZ        :         -1.7853405            1.1710675           -0.6142730

 ------------------------------------------------------------------------------------
  ==> Computing MBIS Charges <==

  Electron Count from Grid (Expected Number):  6.00000 ( 6.00000)
  Difference:  0.00000

  MBIS Charges: (a.u.)
   Center  Symbol  Z      Pop.       Charge
      1       C    6    5.126851    0.873149
      2       H    1    0.873149    0.126851

  MBIS Dipoles: [e a0]
   Center  Symbol  Z        X           Y           Z
      1       C    6   -0.000000    0.000000    0.594104
      2       H    1   -0.000000   -0.000000    0.036880

  MBIS Quadrupoles: [e a0^2]
   Center  Symbol  Z      XX        XY        XZ        YY        YZ        ZZ
      1       C    6   -2.4049    0.0000    0.0000   -2.4049    0.0000   -3.5141
      2       H    1   -0.2498   -0.0000   -0.0000   -0.2498   -0.0000   -0.2524

  MBIS Octupoles: [e a0^3]
   Center  Symbol  Z      XXX       XXY       XXZ       XYY       XYZ       XZZ       YYY       YYZ       YZZ       ZZZ
      1       C    6   -0.0000    0.0000    0.6919   -0.0000   -0.0000   -0.0000    0.0000    0.6919   -0.0000    1.7495
      2       H    1    0.0000    0.0000    0.0001   -0.0000    0.0000   -0.0000    0.0000    0.0001    0.0000    0.0057

  MBIS Radial Moments:
   Center  Symbol  Z      [a0^2]      [a0^3]      [a0^4]
      1       C    6    8.323842   17.463194   43.630107
      2       H    1    0.751915    0.968346    1.490404

  MBIS Valence Widths: [a0]
   Center  Symbol  Z     Width
      1       C    6    0.450478
      2       H    1    0.273577

*** tstop() called on Mac.lan at Sun Aug 10 18:27:02 2025
Module time:
	user time   =       2.83 seconds =       0.05 minutes
	system time =       1.71 seconds =       0.03 minutes
	total time  =          0 seconds =       0.00 minutes
Total time:
	user time   =      12.43 seconds =       0.21 minutes
	system time =       4.28 seconds =       0.07 minutes
	total time  =          1 seconds =       0.02 minutes

    Psi4 stopped on: Sunday, 10 August 2025 06:27PM
    Psi4 wall time for execution: 0:00:01.66

*** Psi4 exiting successfully. Buy a developer a beer!
