                               Psi4 1.9.1 release

  ==> Input File <==

--------------------------------------------------------------------------
molecule {
1 3
O           0.000000           0.000000           0.000000
H           0.000000           0.000000           0.889993
}

set {
basis              cc-pvtz
reference          uks
maxiter            500
DAMPING_PERCENTAGE 1
E_CONVERGENCE      1.0E-8
D_CONVERGENCE      1.0E-8
DIIS_MAX_VECS      400
MBIS_MAXITER       8000
guess              read
}

E, wfn = energy('b3lyp', restart_file='last_wfn', return_wfn=True)
properties('b3lyp','MBIS_CHARGES', wfn=wfn)
wfn.to_file('last_wfn')
--------------------------------------------------------------------------

    Molecular point group: c2v
  Charge       = 1
  Multiplicity = 3
  Basis Set: CC-PVTZ
    Blend: CC-PVTZ
  Basis Set: (CC-PVTZ AUX)
    Blend: CC-PVTZ-JKFIT
  @DF-UKS Final Energy:   -75.26249627977928
    Total Energy =                        -75.2624962797792705
 Dipole X            :          0.0000000            0.0000000            0.0000000
 Dipole Y            :          0.0000000            0.0000000            0.0000000
 Dipole Z            :         -0.0135594            0.7846328            0.7710735
 Magnitude           :                                                    0.7710735
    Molecular point group: c2v

    Geometry (in Angstrom), charge = 1, multiplicity = 3:

       Center              X                  Y                   Z               Mass
    ------------   -----------------  -----------------  -----------------  -----------------
         O            0.000000000000     0.000000000000    -0.052753688069    15.994914619570
         H            0.000000000000     0.000000000000     0.837239311931     1.007825032230

  Charge       = 1
  Multiplicity = 3
  Basis Set: CC-PVTZ
    Blend: CC-PVTZ
  Basis Set: (CC-PVTZ AUX)
    Blend: CC-PVTZ-JKFIT

    Orbital Energies [Eh]
    ---------------------

    Alpha Occupied:

       1A1   -19.829771     2A1    -1.619245     3A1    -1.020968
       1B1    -0.968953     1B2    -0.968953

    Alpha Virtual:

       4A1    -0.272960     5A1     0.040086     2B1     0.135125
       2B2     0.135125     6A1     0.152713     3B1     0.326028
       3B2     0.326028     7A1     0.446033     8A1     0.908114
       1A2     0.908114     9A1     0.949338     4B1     1.318741
       4B2     1.318741    10A1     1.408463    11A1     2.038099
       2A2     2.769966    12A1     2.769966     5B1     2.845528
       5B2     2.845528     6B1     3.126848     6B2     3.126848
      13A1     3.318547     7B1     3.672128     7B2     3.672128
      14A1     3.947817    15A1     4.271395     8B2     4.483283
       8B1     4.483283    16A1     4.893386     3A2     4.893386
       4A2     5.512855    17A1     5.512855     9B1     5.769861
       9B2     5.769861    18A1     6.050560    10B1     6.321065
      10B2     6.321065    19A1     6.586821    20A1    10.400625

    Beta Occupied:

       1A1   -19.773809     2A1    -1.472321     3A1    -0.961906

    Beta Virtual:

       1B1    -0.665056     1B2    -0.665056     4A1    -0.257854
       5A1     0.053549     6A1     0.164778     2B1     0.204803
       2B2     0.204803     3B1     0.341567     3B2     0.341567
       7A1     0.492675     8A1     0.974752     9A1     1.020082
       1A2     1.020082     4B1     1.371778     4B2     1.371778
      10A1     1.438978    11A1     2.053399     2A2     2.787698
      12A1     2.787699     5B1     2.928918     5B2     2.928918
       6B1     3.181903     6B2     3.181903    13A1     3.329861
       7B1     3.710955     7B2     3.710955    14A1     4.005613
      15A1     4.330454     8B2     4.635704     8B1     4.635704
      16A1     4.990232     3A2     4.990232    17A1     5.724151
       4A2     5.724151     9B1     5.876881     9B2     5.876881
      18A1     6.100685    10B1     6.381424    10B2     6.381424
      19A1     6.637797    20A1    10.470216

    Final Occupation by Irrep:
             A1    A2    B1    B2
    DOCC [     3,    0,    0,    0 ]
    SOCC [     0,    0,    1,    1 ]
    NA   [     3,    0,    1,    1 ]
    NB   [     3,    0,    0,    0 ]

  @DF-UKS Final Energy:   -75.26249627978954

   => Energetics <=

    Nuclear Repulsion Energy =              4.7566864968151439
    One-Electron Energy =                -108.4542722038857363
    Two-Electron Energy =                  35.3486930994433308
    DFT Exchange-Correlation Energy =      -6.9136036721622789
    Empirical Dispersion Energy =           0.0000000000000000
    VV10 Nonlocal Energy =                  0.0000000000000000
    Total Energy =                        -75.2624962797895307

  UHF NO Occupations:
  HONO-2 :    3 A1 1.9985297
  HONO-1 :    1 B2 1.0000000
  HONO-0 :    1 B1 1.0000000
  LUNO+0 :    4 A1 0.0014703
  LUNO+1 :    5 A1 0.0004549
  LUNO+2 :    6 A1 0.0000015
  LUNO+3 :    7 A1 0.0000000

Computation Completed

Properties will be evaluated at   0.000000,   0.000000,   0.000000 [a0]

Properties computed using the B3LYP density matrix

 Multipole Moments:

 ------------------------------------------------------------------------------------
     Multipole            Electronic (a.u.)      Nuclear  (a.u.)        Total (a.u.)
 ------------------------------------------------------------------------------------

 L = 1.  Multiply by 2.5417464519 to convert [e a0] to [Debye]
 Dipole X            :          0.0000000            0.0000000            0.0000000
 Dipole Y            :          0.0000000            0.0000000            0.0000000
 Dipole Z            :         -0.0135594            0.7846328            0.7710735
 Magnitude           :                                                    0.7710735

 L = 2.  Multiply by 1.3450342976 to convert [e a0^2] to [Debye ang]
 Quadrupole XX       :         -2.9577776            0.0000000           -2.9577776
 Quadrupole XY       :          0.0000000            0.0000000            0.0000000
 Quadrupole XZ       :          0.0000000            0.0000000            0.0000000
 Quadrupole YY       :         -2.9577776            0.0000000           -2.9577776
 Quadrupole YZ       :          0.0000000            0.0000000            0.0000000
 Quadrupole ZZ       :         -4.5804990            2.5827129           -1.9977861
 Traceless XX        :          0.5409071           -0.8609043           -0.3199972
 Traceless YY        :          0.5409071           -0.8609043           -0.3199972
 Traceless ZZ        :         -1.0818142            1.7218086            0.6399944

 ------------------------------------------------------------------------------------
  ==> Computing MBIS Charges <==

  Electron Count from Grid (Expected Number):  8.00000 ( 8.00000)
  Difference: -0.00000

  MBIS Charges: (a.u.)
   Center  Symbol  Z      Pop.       Charge
      1       O    8    7.487608    0.512392
      2       H    1    0.512392    0.487608

  MBIS Dipoles: [e a0]
   Center  Symbol  Z        X           Y           Z
      1       O    8    0.000000   -0.000000    0.008997
      2       H    1    0.000000    0.000000    0.041686

  MBIS Quadrupoles: [e a0^2]
   Center  Symbol  Z      XX        XY        XZ        YY        YZ        ZZ
      1       O    8   -2.7773   -0.0000    0.0000   -2.7773   -0.0000   -3.1775
      2       H    1   -0.1805   -0.0000    0.0000   -0.1805   -0.0000   -0.1760

  MBIS Octupoles: [e a0^3]
   Center  Symbol  Z      XXX       XXY       XXZ       XYY       XYZ       XZZ       YYY       YYZ       YZZ       ZZZ
      1       O    8    0.0000   -0.0000    0.0224    0.0000   -0.0000    0.0000   -0.0000    0.0224   -0.0000    0.0100
      2       H    1    0.0000   -0.0000    0.0050    0.0000   -0.0000    0.0000    0.0000    0.0050   -0.0000    0.0210

  MBIS Radial Moments:
   Center  Symbol  Z      [a0^2]      [a0^3]      [a0^4]
      1       O    8    8.732086   14.726397   29.770007
      2       H    1    0.537046    0.779265    1.355845

  MBIS Valence Widths: [a0]
   Center  Symbol  Z     Width
      1       O    8    0.354168
      2       H    1    0.298921

*** tstop() called on Mac.lan at Sun Aug 10 18:28:42 2025
Module time:
	user time   =       3.02 seconds =       0.05 minutes
	system time =       1.98 seconds =       0.03 minutes
	total time  =          0 seconds =       0.00 minutes
Total time:
	user time   =      11.69 seconds =       0.19 minutes
	system time =       4.14 seconds =       0.07 minutes
	total time  =          1 seconds =       0.02 minutes

    Psi4 stopped on: Sunday, 10 August 2025 06:28PM
    Psi4 wall time for execution: 0:00:01.54

*** Psi4 exiting successfully. Buy a developer a beer!
