                               Psi4 1.9.1 release

  ==> Input File <==

--------------------------------------------------------------------------
molecule {
1 2
O           0.000000           0.000000           0.000000
C           0.000000           0.000000           1.359173
}

set {
basis              cc-pvtz
reference          uks
maxiter            500
DAMPING_PERCENTAGE 1
E_CONVERGENCE      1.0E-8
D_CONVERGENCE      1.0E-8
DIIS_MAX_VECS      400
MBIS_MAXITER       8000
guess              read
}

E, wfn = energy('b3lyp', restart_file='last_wfn', return_wfn=True)
properties('b3lyp','MBIS_CHARGES', wfn=wfn)
wfn.to_file('last_wfn')
--------------------------------------------------------------------------

    Molecular point group: c2v
  Charge       = 1
  Multiplicity = 2
  Basis Set: CC-PVTZ
    Blend: CC-PVTZ
  Basis Set: (CC-PVTZ AUX)
    Blend: CC-PVTZ-JKFIT
  @DF-UKS Final Energy:  -112.75312854869621
    Total Energy =                       -112.7531285486962105
 Dipole X            :          0.0000000            0.0000000            0.0000000
 Dipole Y            :          0.0000000            0.0000000            0.0000000
 Dipole Z            :          1.1733463           -0.0027994            1.1705469
 Magnitude           :                                                    1.1705469
    Molecular point group: c2v

    Geometry (in Angstrom), charge = 1, multiplicity = 2:

       Center              X                  Y                   Z               Mass
    ------------   -----------------  -----------------  -----------------  -----------------
         O            0.000000000000     0.000000000000    -0.582608528072    15.994914619570
         C            0.000000000000     0.000000000000     0.776564471928    12.000000000000

  Charge       = 1
  Multiplicity = 2
  Basis Set: CC-PVTZ
    Blend: CC-PVTZ
  Basis Set: (CC-PVTZ AUX)
    Blend: CC-PVTZ-JKFIT

    Orbital Energies [Eh]
    ---------------------

    Alpha Occupied:

       1A1   -19.670209     2A1   -10.846304     3A1    -1.448846
       4A1    -0.997907     5A1    -0.846704     1B1    -0.788720
       1B2    -0.788720

    Alpha Virtual:

       2B1    -0.505932     2B2    -0.505932     6A1    -0.206905
       7A1    -0.010738     3B1     0.000907     3B2     0.000907
       8A1     0.005454     9A1     0.245179     1A2     0.292205
      10A1     0.292205     4B1     0.315807     4B2     0.315807
       5B2     0.428417     5B1     0.428417    11A1     0.696456
      12A1     0.867260    13A1     1.126148     2A2     1.126148
       6B1     1.343404     6B2     1.343404     7B1     1.605716
       7B2     1.605716    14A1     1.647438    15A1     1.731596
       8B2     2.229133     8B1     2.229133     3A2     2.300610
      16A1     2.300610     9B1     2.448118     9B2     2.448118
       4A2     2.465334    17A1     2.465336    18A1     2.600879
      10B2     2.705341    10B1     2.705341    19A1     2.748934
      20A1     3.425341    11B1     3.435290    11B2     3.435290
      12B1     4.713895    12B2     4.713895    21A1     4.857605
       5A2     4.857607    22A1     4.972438    13B2     5.281569
      13B1     5.281569     6A2     5.806722    23A1     5.806726
      24A1     5.809970    14B2     6.231162    14B1     6.231162
      25A1     6.756257    26A1     8.887536

    Beta Occupied:

       1A1   -19.667944     2A1   -10.825476     3A1    -1.435675
       4A1    -0.933196     1B1    -0.789919     1B2    -0.789919

    Beta Virtual:

       5A1    -0.660435     2B1    -0.470216     2B2    -0.470216
       6A1    -0.166862     7A1     0.007044     3B1     0.010825
       3B2     0.010825     8A1     0.048102     9A1     0.258734
       1A2     0.311273    10A1     0.311273     4B1     0.316036
       4B2     0.316036     5B2     0.459104     5B1     0.459104
      11A1     0.736361    12A1     0.873028    13A1     1.121877
       2A2     1.121878     6B2     1.367674     6B1     1.367674
       7B1     1.624838     7B2     1.624838    14A1     1.677837
      15A1     1.791361     8B2     2.260163     8B1     2.260163
       3A2     2.331862    16A1     2.331862     9B1     2.498393
       9B2     2.498393     4A2     2.516480    17A1     2.516481
      18A1     2.663085    10B2     2.764531    10B1     2.764531
      19A1     2.819846    11B1     3.437038    11B2     3.437038
      20A1     3.463132    12B1     4.699745    12B2     4.699745
      21A1     4.862536     5A2     4.862538    22A1     4.992032
      13B2     5.301447    13B1     5.301447     6A2     5.789700
      23A1     5.789704    24A1     5.848067    14B2     6.251926
      14B1     6.251926    25A1     6.781533    26A1     8.899292

    Final Occupation by Irrep:
             A1    A2    B1    B2
    DOCC [     4,    0,    1,    1 ]
    SOCC [     1,    0,    0,    0 ]
    NA   [     5,    0,    1,    1 ]
    NB   [     4,    0,    1,    1 ]

  @DF-UKS Final Energy:  -112.75312854866499

   => Energetics <=

    Nuclear Repulsion Energy =             18.6882068082282409
    One-Electron Energy =                -185.2960875637875517
    Two-Electron Energy =                  64.6285099067359567
    DFT Exchange-Correlation Energy =     -10.7737576998416351
    Empirical Dispersion Energy =           0.0000000000000000
    VV10 Nonlocal Energy =                  0.0000000000000000
    Total Energy =                       -112.7531285486649892

  UHF NO Occupations:
  HONO-2 :    1 B2 1.9930812
  HONO-1 :    1 B1 1.9930812
  HONO-0 :    5 A1 1.0000000
  LUNO+0 :    2 B2 0.0069188
  LUNO+1 :    2 B1 0.0069188
  LUNO+2 :    6 A1 0.0019692
  LUNO+3 :    7 A1 0.0000700

Computation Completed

Properties will be evaluated at   0.000000,   0.000000,   0.000000 [a0]

Properties computed using the B3LYP density matrix

 Multipole Moments:

 ------------------------------------------------------------------------------------
     Multipole            Electronic (a.u.)      Nuclear  (a.u.)        Total (a.u.)
 ------------------------------------------------------------------------------------

 L = 1.  Multiply by 2.5417464519 to convert [e a0] to [Debye]
 Dipole X            :          0.0000000            0.0000000            0.0000000
 Dipole Y            :          0.0000000            0.0000000            0.0000000
 Dipole Z            :          1.1733463           -0.0027994            1.1705469
 Magnitude           :                                                    1.1705469

 L = 2.  Multiply by 1.3450342976 to convert [e a0^2] to [Debye ang]
 Quadrupole XX       :         -6.3520733            0.0000000           -6.3520733
 Quadrupole XY       :          0.0000000            0.0000000            0.0000000
 Quadrupole XZ       :          0.0000000            0.0000000            0.0000000
 Quadrupole YY       :         -6.3520733            0.0000000           -6.3520733
 Quadrupole YZ       :          0.0000000            0.0000000            0.0000000
 Quadrupole ZZ       :        -25.8197728           22.6183242           -3.2014487
 Traceless XX        :          6.4892332           -7.5394414           -1.0502082
 Traceless YY        :          6.4892332           -7.5394414           -1.0502082
 Traceless ZZ        :        -12.9784663           15.0788828            2.1004165

 ------------------------------------------------------------------------------------
  ==> Computing MBIS Charges <==

  Electron Count from Grid (Expected Number): 13.00000 (13.00000)
  Difference: -0.00000

  MBIS Charges: (a.u.)
   Center  Symbol  Z      Pop.       Charge
      1       O    8    7.950547    0.049453
      2       C    6    5.049453    0.950547

  MBIS Dipoles: [e a0]
   Center  Symbol  Z        X           Y           Z
      1       O    8    0.000000   -0.000000   -0.331661
      2       C    6   -0.000000    0.000000    0.161731

  MBIS Quadrupoles: [e a0^2]
   Center  Symbol  Z      XX        XY        XZ        YY        YZ        ZZ
      1       O    8   -3.5906   -0.0000   -0.0000   -3.5906    0.0000   -3.5923
      2       C    6   -2.7615   -0.0000    0.0000   -2.7615    0.0000   -2.9211

  MBIS Octupoles: [e a0^3]
   Center  Symbol  Z      XXX       XXY       XXZ       XYY       XYZ       XZZ       YYY       YYZ       YZZ       ZZZ
      1       O    8   -0.0000    0.0000   -0.3149    0.0000    0.0000    0.0000   -0.0000   -0.3149    0.0000   -0.8828
      2       C    6   -0.0000    0.0000    0.2806   -0.0000   -0.0000    0.0000    0.0000    0.2806    0.0000    0.5008

  MBIS Radial Moments:
   Center  Symbol  Z      [a0^2]      [a0^3]      [a0^4]
      1       O    8   10.773410   19.586574   42.521756
      2       C    6    8.444149   17.988044   45.577480

  MBIS Valence Widths: [a0]
   Center  Symbol  Z     Width
      1       O    8    0.379462
      2       C    6    0.460412

*** tstop() called on Mac.lan at Sun Aug 10 18:38:16 2025
Module time:
	user time   =       3.35 seconds =       0.06 minutes
	system time =       2.02 seconds =       0.03 minutes
	total time  =          0 seconds =       0.00 minutes
Total time:
	user time   =      23.92 seconds =       0.40 minutes
	system time =       5.04 seconds =       0.08 minutes
	total time  =          3 seconds =       0.05 minutes

    Psi4 stopped on: Sunday, 10 August 2025 06:38PM
    Psi4 wall time for execution: 0:00:02.87

*** Psi4 exiting successfully. Buy a developer a beer!
