                               Psi4 1.9.1 release

  ==> Input File <==

--------------------------------------------------------------------------
molecule {
1 4
C           0.000000           0.000000           0.000000
C           0.000000           0.000000           1.042893
}

set {
basis              cc-pvtz
reference          uks
maxiter            500
DAMPING_PERCENTAGE 1
E_CONVERGENCE      1.0E-8
D_CONVERGENCE      1.0E-8
DIIS_MAX_VECS      400
MBIS_MAXITER       8000
guess              read
}

E, wfn = energy('b3lyp', restart_file='last_wfn', return_wfn=True)
properties('b3lyp','MBIS_CHARGES', wfn=wfn)
wfn.to_file('last_wfn')
--------------------------------------------------------------------------

    Molecular point group: d2h
  Charge       = 1
  Multiplicity = 4
  Basis Set: CC-PVTZ
    Blend: CC-PVTZ
  Basis Set: (CC-PVTZ AUX)
    Blend: CC-PVTZ-JKFIT
  @DF-UKS Final Energy:   -75.36789566330435
    Total Energy =                        -75.3678956633043526
 Dipole X            :          0.0000000            0.0000000            0.0000000
 Dipole Y            :          0.0000000            0.0000000            0.0000000
 Dipole Z            :          0.0000000            0.0000000            0.0000000
 Magnitude           :                                                    0.0000000
    Molecular point group: d2h

    Geometry (in Angstrom), charge = 1, multiplicity = 4:

       Center              X                  Y                   Z               Mass
    ------------   -----------------  -----------------  -----------------  -----------------
         C            0.000000000000     0.000000000000    -0.521446500000    12.000000000000
         C            0.000000000000     0.000000000000     0.521446500000    12.000000000000

  Charge       = 1
  Multiplicity = 4
  Basis Set: CC-PVTZ
    Blend: CC-PVTZ
  Basis Set: (CC-PVTZ AUX)
    Blend: CC-PVTZ-JKFIT

    Orbital Energies [Eh]
    ---------------------

    Alpha Occupied:

       1Ag   -10.663663     1B1u  -10.653895     2Ag    -1.274359
       2B1u   -0.810050     1B2u   -0.807716     1B3u   -0.764162
       3Ag    -0.760762

    Alpha Virtual:

       1B3g   -0.320176     1B2g   -0.290770     3B1u   -0.041846
       2B2u   -0.027054     2B3u   -0.014985     4Ag     0.005850
       5Ag     0.029242     2B3g    0.120947     2B2g    0.131559
       1B1g    0.221022     6Ag     0.221790     4B1u    0.277456
       3B2u    0.470899     5B1u    0.482507     3B3u    0.493331
       1Au     0.580366     6B1u    0.581261     7Ag     0.791137
       3B3g    0.828119     3B2g    0.841686     7B1u    1.361377
       4B2u    1.471928     4B3u    1.502695     8Ag     1.778116
       4B3g    1.923225     4B2g    1.951846     8B1u    1.996014
       5B2u    2.053768     5B3u    2.054104     2B1g    2.067735
       9Ag     2.069201     6B2u    2.184362     6B3u    2.217830
      10Ag     2.389836     5B3g    2.525298     5B2g    2.545715
       3B1g    2.575700    11Ag     2.575826     9B1u    2.597203
       6B3g    2.597664     2Au     2.597828     6B2g    2.598271
      10B1u    3.101991    12Ag     3.119353     7B2u    3.268013
       7B3u    3.295977     3Au     3.435151    11B1u    3.435385
      12B1u    4.146288     7B3g    4.653706     7B2g    4.685891
      13Ag     5.380103    13B1u   16.253296

    Beta Occupied:

       1Ag   -10.629819     1B1u  -10.620752     2Ag    -1.188824
       1B3u   -0.721832

    Beta Virtual:

       1B2u   -0.605982     2B1u   -0.552193     3Ag    -0.500977
       1B2g   -0.227993     1B3g   -0.196225     3B1u   -0.011516
       2B3u   -0.008364     2B2u    0.001721     4Ag     0.034549
       5Ag     0.097810     2B2g    0.148903     2B3g    0.166061
       1B1g    0.256651     6Ag     0.261251     4B1u    0.343430
       3B3u    0.546685     5B1u    0.554863     3B2u    0.561336
       1Au     0.617466     6B1u    0.623718     7Ag     0.866471
       3B2g    0.874698     3B3g    0.889847     7B1u    1.454566
       4B3u    1.525300     4B2u    1.540197     8Ag     1.841153
       4B2g    1.978213     4B3g    1.989638     8B1u    2.085588
       5B3u    2.105421     5B2u    2.108423     2B1g    2.118252
       9Ag     2.124336     6B3u    2.295087     6B2u    2.322011
      10Ag     2.553682     5B2g    2.652199     6B2g    2.656026
       5B3g    2.659667     3B1g    2.671018    11Ag     2.684135
       6B3g    2.687716     2Au     2.689113     9B1u    2.701815
      12Ag     3.207866    10B1u    3.244626     7B3u    3.381313
       7B2u    3.408895     3Au     3.502263    11B1u    3.512741
      12B1u    4.242150     7B2g    4.749856     7B3g    4.776328
      13Ag     5.446447    13B1u   16.314084

    Final Occupation by Irrep:
             Ag   B1g   B2g   B3g    Au   B1u   B2u   B3u
    DOCC [     2,    0,    0,    0,    0,    1,    0,    1 ]
    SOCC [     1,    0,    0,    0,    0,    1,    1,    0 ]
    NA   [     3,    0,    0,    0,    0,    2,    1,    1 ]
    NB   [     2,    0,    0,    0,    0,    1,    0,    1 ]

  @DF-UKS Final Energy:   -75.36789566283910

   => Energetics <=

    Nuclear Repulsion Energy =             18.2668591927647377
    One-Electron Energy =                -132.2311400182915690
    Two-Electron Energy =                  47.1234091241381705
    DFT Exchange-Correlation Energy =      -8.5270239614504426
    Empirical Dispersion Energy =           0.0000000000000000
    VV10 Nonlocal Energy =                  0.0000000000000000
    Total Energy =                        -75.3678956628391035

  UHF NO Occupations:
  HONO-2 :    3 Ag 1.0000000
  HONO-1 :    1B2u 1.0000000
  HONO-0 :    2B1u 1.0000000
  LUNO+0 :    2B3u 0.0005347
  LUNO+1 :    4 Ag 0.0004707
  LUNO+2 :    3B1u 0.0000011
  LUNO+3 :    5 Ag 0.0000007

Computation Completed

Properties will be evaluated at   0.000000,   0.000000,   0.000000 [a0]

Properties computed using the B3LYP density matrix

 Multipole Moments:

 ------------------------------------------------------------------------------------
     Multipole            Electronic (a.u.)      Nuclear  (a.u.)        Total (a.u.)
 ------------------------------------------------------------------------------------

 L = 1.  Multiply by 2.5417464519 to convert [e a0] to [Debye]
 Dipole X            :          0.0000000            0.0000000            0.0000000
 Dipole Y            :          0.0000000            0.0000000            0.0000000
 Dipole Z            :          0.0000000            0.0000000            0.0000000
 Magnitude           :                                                    0.0000000

 L = 2.  Multiply by 1.3450342976 to convert [e a0^2] to [Debye ang]
 Quadrupole XX       :         -6.5659842            0.0000000           -6.5659842
 Quadrupole XY       :          0.0000000            0.0000000            0.0000000
 Quadrupole XZ       :          0.0000000            0.0000000            0.0000000
 Quadrupole YY       :         -5.4987044            0.0000000           -5.4987044
 Quadrupole YZ       :          0.0000000            0.0000000            0.0000000
 Quadrupole ZZ       :        -15.7788305           11.6519468           -4.1268836
 Traceless XX        :          2.7151888           -3.8839823           -1.1687935
 Traceless YY        :          3.7824687           -3.8839823           -0.1015136
 Traceless ZZ        :         -6.4976574            7.7679646            1.2703071

 ------------------------------------------------------------------------------------
  ==> Computing MBIS Charges <==

  Electron Count from Grid (Expected Number): 11.00000 (11.00000)
  Difference: -0.00000

  MBIS Charges: (a.u.)
   Center  Symbol  Z      Pop.       Charge
      1       C    6    5.500000    0.500000
      2       C    6    5.500000    0.500000

  MBIS Dipoles: [e a0]
   Center  Symbol  Z        X           Y           Z
      1       C    6   -0.000000    0.000000   -0.324269
      2       C    6   -0.000000    0.000000    0.324269

  MBIS Quadrupoles: [e a0^2]
   Center  Symbol  Z      XX        XY        XZ        YY        YZ        ZZ
      1       C    6   -3.2830   -0.0000   -0.0000   -2.7494   -0.0000   -3.1880
      2       C    6   -3.2830   -0.0000    0.0000   -2.7494    0.0000   -3.1880

  MBIS Octupoles: [e a0^3]
   Center  Symbol  Z      XXX       XXY       XXZ       XYY       XYZ       XZZ       YYY       YYZ       YZZ       ZZZ
      1       C    6   -0.0000    0.0000   -0.3390   -0.0000   -0.0000   -0.0000    0.0000   -0.1831    0.0000   -0.3689
      2       C    6   -0.0000    0.0000    0.3390   -0.0000    0.0000   -0.0000    0.0000    0.1831    0.0000    0.3689

  MBIS Radial Moments:
   Center  Symbol  Z      [a0^2]      [a0^3]      [a0^4]
      1       C    6    9.220348   19.398035   48.799069
      2       C    6    9.220348   19.398035   48.799069

  MBIS Valence Widths: [a0]
   Center  Symbol  Z     Width
      1       C    6    0.448652
      2       C    6    0.448652

*** tstop() called on Mac.lan at Sun Aug 10 18:15:19 2025
Module time:
	user time   =       3.59 seconds =       0.06 minutes
	system time =       2.59 seconds =       0.04 minutes
	total time  =          0 seconds =       0.00 minutes
Total time:
	user time   =      14.37 seconds =       0.24 minutes
	system time =       4.50 seconds =       0.07 minutes
	total time  =          2 seconds =       0.03 minutes

    Psi4 stopped on: Sunday, 10 August 2025 06:15PM
    Psi4 wall time for execution: 0:00:01.84

*** Psi4 exiting successfully. Buy a developer a beer!
