                               Psi4 1.9.1 release

  ==> Input File <==

--------------------------------------------------------------------------
molecule {
1 1
C           0.000000           0.000000           0.000000
H           0.000000           0.000000           0.807300
}

set {
basis              cc-pvtz
reference          uks
maxiter            500
DAMPING_PERCENTAGE 1
E_CONVERGENCE      1.0E-8
D_CONVERGENCE      1.0E-8
DIIS_MAX_VECS      400
MBIS_MAXITER       8000
guess              read
}

E, wfn = energy('b3lyp', restart_file='last_wfn', return_wfn=True)
properties('b3lyp','MBIS_CHARGES', wfn=wfn)
wfn.to_file('last_wfn')
--------------------------------------------------------------------------

    Molecular point group: c2v
  Charge       = 1
  Multiplicity = 1
  Basis Set: CC-PVTZ
    Blend: CC-PVTZ
  Basis Set: (CC-PVTZ AUX)
    Blend: CC-PVTZ-JKFIT
  @DF-UKS Final Energy:   -37.98439935619682
    Total Energy =                        -37.9843993561968247
 Dipole X            :          0.0000000            0.0000000            0.0000000
 Dipole Y            :          0.0000000            0.0000000            0.0000000
 Dipole Z            :          0.0055815            0.6981820            0.7037635
 Magnitude           :                                                    0.7037635
    Molecular point group: c2v

    Geometry (in Angstrom), charge = 1, multiplicity = 1:

       Center              X                  Y                   Z               Mass
    ------------   -----------------  -----------------  -----------------  -----------------
         C            0.000000000000     0.000000000000    -0.062548285090    12.000000000000
         H            0.000000000000     0.000000000000     0.744751714910     1.007825032230

  Charge       = 1
  Multiplicity = 1
  Basis Set: CC-PVTZ
    Blend: CC-PVTZ
  Basis Set: (CC-PVTZ AUX)
    Blend: CC-PVTZ-JKFIT

    Orbital Energies [Eh]
    ---------------------

    Alpha Occupied:

       1A1   -10.789951     2A1    -1.175853     3A1    -0.743226

    Alpha Virtual:

       1B1    -0.562618     1B2    -0.562618     4A1    -0.176267
       2B2     0.003934     2B1     0.003934     5A1     0.006396
       6A1     0.055311     3B2     0.259560     3B1     0.259560
       7A1     0.268657     1A2     0.307843     8A1     0.307843
       9A1     0.680598     4B1     0.762999     4B2     0.762999
      10A1     1.457456    11A1     1.506822     5B2     1.520619
       5B1     1.520619    12A1     1.782776     2A2     2.151986
      13A1     2.151986     6B1     2.235505     6B2     2.235505
       7B2     2.272563     7B1     2.272563     3A2     2.463490
      14A1     2.463490     8B1     2.624673     8B2     2.624673
      15A1     2.629493    16A1     3.385924     4A2     3.534699
      17A1     3.534699     9B1     3.618059     9B2     3.618059
      10B1     5.089077    10B2     5.089077    18A1     5.124407
      19A1     5.413705    20A1    12.113633

    Beta Occupied:

       1A1   -10.789951     2A1    -1.175853     3A1    -0.743226

    Beta Virtual:

       1B1    -0.562618     1B2    -0.562618     4A1    -0.176267
       2B2     0.003934     2B1     0.003934     5A1     0.006396
       6A1     0.055311     3B2     0.259560     3B1     0.259560
       7A1     0.268657     1A2     0.307843     8A1     0.307843
       9A1     0.680598     4B1     0.762999     4B2     0.762999
      10A1     1.457456    11A1     1.506822     5B2     1.520619
       5B1     1.520619    12A1     1.782776     2A2     2.151986
      13A1     2.151986     6B1     2.235505     6B2     2.235505
       7B2     2.272563     7B1     2.272563     3A2     2.463490
      14A1     2.463490     8B1     2.624673     8B2     2.624673
      15A1     2.629493    16A1     3.385924     4A2     3.534699
      17A1     3.534699     9B1     3.618059     9B2     3.618059
      10B1     5.089077    10B2     5.089077    18A1     5.124407
      19A1     5.413705    20A1    12.113633

    Final Occupation by Irrep:
             A1    A2    B1    B2
    DOCC [     3,    0,    0,    0 ]
    SOCC [     0,    0,    0,    0 ]
    NA   [     3,    0,    0,    0 ]
    NB   [     3,    0,    0,    0 ]

  @DF-UKS Final Energy:   -37.98439935615005

   => Energetics <=

    Nuclear Repulsion Energy =              3.9329409934596806
    One-Electron Energy =                 -55.2503787892358247
    Two-Electron Energy =                  17.7146245091922729
    DFT Exchange-Correlation Energy =      -4.3815860695661737
    Empirical Dispersion Energy =           0.0000000000000000
    VV10 Nonlocal Energy =                  0.0000000000000000
    Total Energy =                        -37.9843993561500426

  UHF NO Occupations:
  HONO-2 :    1 A1 2.0000000
  HONO-1 :    2 A1 2.0000000
  HONO-0 :    3 A1 2.0000000
  LUNO+0 :    4 A1 0.0000000
  LUNO+1 :    5 A1 0.0000000
  LUNO+2 :    6 A1 0.0000000
  LUNO+3 :    7 A1 0.0000000

Computation Completed

Properties will be evaluated at   0.000000,   0.000000,   0.000000 [a0]

Properties computed using the B3LYP density matrix

 Multipole Moments:

 ------------------------------------------------------------------------------------
     Multipole            Electronic (a.u.)      Nuclear  (a.u.)        Total (a.u.)
 ------------------------------------------------------------------------------------

 L = 1.  Multiply by 2.5417464519 to convert [e a0] to [Debye]
 Dipole X            :          0.0000000            0.0000000            0.0000000
 Dipole Y            :          0.0000000            0.0000000            0.0000000
 Dipole Z            :          0.0055815            0.6981820            0.7037635
 Magnitude           :                                                    0.7037635

 L = 2.  Multiply by 1.3450342976 to convert [e a0^2] to [Debye ang]
 Quadrupole XX       :         -2.6947985            0.0000000           -2.6947985
 Quadrupole XY       :          0.0000000            0.0000000            0.0000000
 Quadrupole XZ       :          0.0000000            0.0000000            0.0000000
 Quadrupole YY       :         -2.6947985            0.0000000           -2.6947985
 Quadrupole YZ       :          0.0000000            0.0000000            0.0000000
 Quadrupole ZZ       :         -5.6050865            2.0645356           -3.5405509
 Traceless XX        :          0.9700960           -0.6881785            0.2819175
 Traceless YY        :          0.9700960           -0.6881785            0.2819175
 Traceless ZZ        :         -1.9401920            1.3763571           -0.5638349

 ------------------------------------------------------------------------------------
  ==> Computing MBIS Charges <==

  Electron Count from Grid (Expected Number):  6.00000 ( 6.00000)
  Difference: -0.00000

  MBIS Charges: (a.u.)
   Center  Symbol  Z      Pop.       Charge
      1       C    6    5.140518    0.859482
      2       H    1    0.859482    0.140518

  MBIS Dipoles: [e a0]
   Center  Symbol  Z        X           Y           Z
      1       C    6   -0.000000   -0.000000    0.559645
      2       H    1    0.000000    0.000000    0.047947

  MBIS Quadrupoles: [e a0^2]
   Center  Symbol  Z      XX        XY        XZ        YY        YZ        ZZ
      1       C    6   -2.4258    0.0000    0.0000   -2.4258    0.0000   -3.5608
      2       H    1   -0.2690    0.0000   -0.0000   -0.2690    0.0000   -0.2727

  MBIS Octupoles: [e a0^3]
   Center  Symbol  Z      XXX       XXY       XXZ       XYY       XYZ       XZZ       YYY       YYZ       YZZ       ZZZ
      1       C    6   -0.0000    0.0000    0.6522   -0.0000   -0.0000   -0.0000    0.0000    0.6522   -0.0000    1.6482
      2       H    1    0.0000    0.0000    0.0014    0.0000    0.0000   -0.0000   -0.0000    0.0014    0.0000    0.0103

  MBIS Radial Moments:
   Center  Symbol  Z      [a0^2]      [a0^3]      [a0^4]
      1       C    6    8.412365   17.701492   44.392142
      2       H    1    0.810775    1.092307    1.759144

  MBIS Valence Widths: [a0]
   Center  Symbol  Z     Width
      1       C    6    0.452015
      2       H    1    0.286402

*** tstop() called on Mac.lan at Sun Aug 10 18:26:56 2025
Module time:
	user time   =       3.27 seconds =       0.05 minutes
	system time =       1.76 seconds =       0.03 minutes
	total time  =          0 seconds =       0.00 minutes
Total time:
	user time   =      12.16 seconds =       0.20 minutes
	system time =       3.91 seconds =       0.07 minutes
	total time  =          1 seconds =       0.02 minutes

    Psi4 stopped on: Sunday, 10 August 2025 06:26PM
    Psi4 wall time for execution: 0:00:01.61

*** Psi4 exiting successfully. Buy a developer a beer!
