                               Psi4 1.9.1 release

  ==> Input File <==

--------------------------------------------------------------------------
molecule {
1 3
N           0.000000           0.000000           0.000000
C           0.000000           0.000000           1.100867
}

set {
basis              cc-pvtz
reference          uks
maxiter            500
DAMPING_PERCENTAGE 1
E_CONVERGENCE      1.0E-8
D_CONVERGENCE      1.0E-8
DIIS_MAX_VECS      400
MBIS_MAXITER       8000
guess              read
}

E, wfn = energy('b3lyp', restart_file='last_wfn', return_wfn=True)
properties('b3lyp','MBIS_CHARGES', wfn=wfn)
wfn.to_file('last_wfn')
--------------------------------------------------------------------------

    Molecular point group: c2v
  Charge       = 1
  Multiplicity = 3
  Basis Set: CC-PVTZ
    Blend: CC-PVTZ
  Basis Set: (CC-PVTZ AUX)
    Blend: CC-PVTZ-JKFIT
  @DF-UKS Final Energy:   -92.19753054892017
    Total Energy =                        -92.1975305489201702
 Dipole X            :          0.0000000            0.0000000            0.0000000
 Dipole Y            :          0.0000000            0.0000000            0.0000000
 Dipole Z            :          0.7965220            0.0014756            0.7979976
 Magnitude           :                                                    0.7979976
    Molecular point group: c2v

    Geometry (in Angstrom), charge = 1, multiplicity = 3:

       Center              X                  Y                   Z               Mass
    ------------   -----------------  -----------------  -----------------  -----------------
         N            0.000000000000     0.000000000000    -0.508032396391    14.003074004430
         C            0.000000000000     0.000000000000     0.592834603609    12.000000000000

  Charge       = 1
  Multiplicity = 3
  Basis Set: CC-PVTZ
    Blend: CC-PVTZ
  Basis Set: (CC-PVTZ AUX)
    Blend: CC-PVTZ-JKFIT

    Orbital Energies [Eh]
    ---------------------

    Alpha Occupied:

       1A1   -14.827494     2A1   -10.749142     3A1    -1.455955
       4A1    -0.886311     1B1    -0.869182     1B2    -0.823734
       5A1    -0.802429

    Alpha Virtual:

       2B1    -0.405610     2B2    -0.371897     6A1    -0.099823
       3B1    -0.019977     3B2    -0.009077     7A1    -0.008992
       8A1     0.149860     4B1     0.207736     4B2     0.224561
       1A2     0.254286     9A1     0.254499    10A1     0.286526
       5B1     0.481961     5B2     0.504263    11A1     0.571549
       2A2     0.805160    12A1     0.805992    13A1     0.979815
       6B1     1.174629     6B2     1.197262    14A1     1.420973
       7B1     1.526760     7B2     1.550685    15A1     1.840485
       8B1     2.198794     8B2     2.198999    16A1     2.302313
       3A2     2.306313    17A1     2.338105     9B1     2.381072
       9B2     2.408848     4A2     2.496458    18A1     2.496476
      10B1     2.513679    10B2     2.549704    19A1     2.729901
      11B1     3.022672    11B2     3.052047    12B1     3.517360
      12B2     3.517514    20A1     3.651381    21A1     4.003718
       5A2     4.003912     6A2     4.186288    22A1     4.186936
      13B1     4.410868    13B2     4.445817    23A1     4.643382
      24A1     4.985248    14B1     5.260259    14B2     5.294755
      25A1     5.898064    26A1    13.196059

    Beta Occupied:

       1A1   -14.812620     2A1   -10.721202     3A1    -1.387664
       4A1    -0.800161     1B2    -0.799703

    Beta Virtual:

       1B1    -0.680321     5A1    -0.610019     2B2    -0.332969
       2B1    -0.300965     6A1    -0.082439     3B2    -0.000087
       3B1     0.007279     7A1     0.032179     8A1     0.164212
       4B2     0.228707     4B1     0.237633     1A2     0.289540
       9A1     0.292533    10A1     0.353446     5B2     0.539633
       5B1     0.545081    11A1     0.591906     2A2     0.834631
      12A1     0.837414    13A1     1.037321     6B2     1.212296
       6B1     1.216479    14A1     1.460160     7B2     1.574484
       7B1     1.584251    15A1     1.903619     8B2     2.250573
       8B1     2.252284     3A2     2.351820    16A1     2.355364
      17A1     2.391894     9B2     2.466773     9B1     2.484982
       4A2     2.581955    10B2     2.587254    18A1     2.588957
      10B1     2.603180    19A1     2.836220    11B2     3.094048
      11B1     3.104095    12B2     3.556720    12B1     3.558022
      20A1     3.702540     5A2     4.055401    21A1     4.062824
       6A2     4.222555    22A1     4.225568    13B2     4.462312
      13B1     4.472188    23A1     4.689191    24A1     5.019394
      14B2     5.324185    14B1     5.335455    25A1     5.933470
      26A1    13.235824

    Final Occupation by Irrep:
             A1    A2    B1    B2
    DOCC [     4,    0,    0,    1 ]
    SOCC [     1,    0,    1,    0 ]
    NA   [     5,    0,    1,    1 ]
    NB   [     4,    0,    0,    1 ]

  @DF-UKS Final Energy:   -92.19753054760035

   => Energetics <=

    Nuclear Repulsion Energy =             20.1890354131243868
    One-Electron Energy =                -158.9043867860056594
    Two-Electron Energy =                  56.1443334830834218
    DFT Exchange-Correlation Energy =      -9.6265126578024969
    Empirical Dispersion Energy =           0.0000000000000000
    VV10 Nonlocal Energy =                  0.0000000000000000
    Total Energy =                        -92.1975305476003655

  UHF NO Occupations:
  HONO-2 :    1 B2 1.9984088
  HONO-1 :    5 A1 1.0000000
  HONO-0 :    1 B1 1.0000000
  LUNO+0 :    2 B2 0.0015912
  LUNO+1 :    6 A1 0.0005279
  LUNO+2 :    7 A1 0.0002659
  LUNO+3 :    8 A1 0.0000005

Computation Completed

Properties will be evaluated at   0.000000,   0.000000,   0.000000 [a0]

Properties computed using the B3LYP density matrix

 Multipole Moments:

 ------------------------------------------------------------------------------------
     Multipole            Electronic (a.u.)      Nuclear  (a.u.)        Total (a.u.)
 ------------------------------------------------------------------------------------

 L = 1.  Multiply by 2.5417464519 to convert [e a0] to [Debye]
 Dipole X            :          0.0000000            0.0000000            0.0000000
 Dipole Y            :          0.0000000            0.0000000            0.0000000
 Dipole Z            :          0.7965220            0.0014756            0.7979976
 Magnitude           :                                                    0.7979976

 L = 2.  Multiply by 1.3450342976 to convert [e a0^2] to [Debye ang]
 Quadrupole XX       :         -5.4805053            0.0000000           -5.4805053
 Quadrupole XY       :          0.0000000            0.0000000            0.0000000
 Quadrupole XZ       :          0.0000000            0.0000000            0.0000000
 Quadrupole YY       :         -6.4146994            0.0000000           -6.4146994
 Quadrupole YZ       :          0.0000000            0.0000000            0.0000000
 Quadrupole ZZ       :        -18.9771061           13.9821316           -4.9949745
 Traceless XX        :          4.8102649           -4.6607105            0.1495544
 Traceless YY        :          3.8760708           -4.6607105           -0.7846397
 Traceless ZZ        :         -8.6863358            9.3214210            0.6350853

 ------------------------------------------------------------------------------------
  ==> Computing MBIS Charges <==

  Electron Count from Grid (Expected Number): 12.00000 (12.00000)
  Difference: -0.00000

  MBIS Charges: (a.u.)
   Center  Symbol  Z      Pop.       Charge
      1       N    7    6.838920    0.161080
      2       C    6    5.161079    0.838921

  MBIS Dipoles: [e a0]
   Center  Symbol  Z        X           Y           Z
      1       N    7   -0.000000   -0.000000   -0.106678
      2       C    6   -0.000000    0.000000    0.119480

  MBIS Quadrupoles: [e a0^2]
   Center  Symbol  Z      XX        XY        XZ        YY        YZ        ZZ
      1       N    7   -3.0683    0.0000   -0.0000   -3.5900   -0.0000   -3.8074
      2       C    6   -2.4123    0.0000   -0.0000   -2.8247    0.0000   -2.8615

  MBIS Octupoles: [e a0^3]
   Center  Symbol  Z      XXX       XXY       XXZ       XYY       XYZ       XZZ       YYY       YYZ       YZZ       ZZZ
      1       N    7   -0.0000   -0.0000   -0.0377   -0.0000    0.0000   -0.0000   -0.0000   -0.1901   -0.0000   -0.1627
      2       C    6   -0.0000   -0.0000   -0.0107   -0.0000    0.0000   -0.0000   -0.0000    0.1159    0.0000    0.0747

  MBIS Radial Moments:
   Center  Symbol  Z      [a0^2]      [a0^3]      [a0^4]
      1       N    7   10.465595   20.359822   47.267346
      2       C    6    8.098482   16.666173   40.992904

  MBIS Valence Widths: [a0]
   Center  Symbol  Z     Width
      1       N    7    0.412461
      2       C    6    0.440546

*** tstop() called on Mac.lan at Sun Aug 10 18:32:48 2025
Module time:
	user time   =       7.23 seconds =       0.12 minutes
	system time =       2.03 seconds =       0.03 minutes
	total time  =          1 seconds =       0.02 minutes
Total time:
	user time   =      26.17 seconds =       0.44 minutes
	system time =       3.87 seconds =       0.06 minutes
	total time  =          3 seconds =       0.05 minutes

    Psi4 stopped on: Sunday, 10 August 2025 06:32PM
    Psi4 wall time for execution: 0:00:03.08

*** Psi4 exiting successfully. Buy a developer a beer!
