                               Psi4 1.9.1 release

  ==> Input File <==

--------------------------------------------------------------------------
molecule {
1 3
O           0.000000           0.000000           0.000000
H           0.000000           0.000000           1.538417
}

set {
basis              cc-pvtz
reference          uks
maxiter            500
DAMPING_PERCENTAGE 1
E_CONVERGENCE      1.0E-8
D_CONVERGENCE      1.0E-8
DIIS_MAX_VECS      400
MBIS_MAXITER       8000
guess              read
}

E, wfn = energy('b3lyp', restart_file='last_wfn', return_wfn=True)
properties('b3lyp','MBIS_CHARGES', wfn=wfn)
wfn.to_file('last_wfn')
--------------------------------------------------------------------------

    Molecular point group: c2v
  Charge       = 1
  Multiplicity = 3
  Basis Set: CC-PVTZ
    Blend: CC-PVTZ
  Basis Set: (CC-PVTZ AUX)
    Blend: CC-PVTZ-JKFIT
  @DF-UKS Final Energy:   -75.22545955124561
    Total Energy =                        -75.2254595512456063
 Dipole X            :          0.0000000            0.0000000            0.0000000
 Dipole Y            :          0.0000000            0.0000000            0.0000000
 Dipole Z            :          0.1179333            1.3562943            1.4742276
 Magnitude           :                                                    1.4742276
    Molecular point group: c2v

    Geometry (in Angstrom), charge = 1, multiplicity = 3:

       Center              X                  Y                   Z               Mass
    ------------   -----------------  -----------------  -----------------  -----------------
         O            0.000000000000     0.000000000000    -0.091188549279    15.994914619570
         H            0.000000000000     0.000000000000     1.447228450721     1.007825032230

  Charge       = 1
  Multiplicity = 3
  Basis Set: CC-PVTZ
    Blend: CC-PVTZ
  Basis Set: (CC-PVTZ AUX)
    Blend: CC-PVTZ-JKFIT

    Orbital Energies [Eh]
    ---------------------

    Alpha Occupied:

       1A1   -19.758294     2A1    -1.459463     1B2    -0.881904
       1B1    -0.881904     3A1    -0.858316

    Alpha Virtual:

       4A1    -0.467230     5A1    -0.024722     2B2     0.138309
       2B1     0.138309     6A1     0.246169     3B2     0.340567
       3B1     0.340567     7A1     0.370056     8A1     0.666768
       1A2     0.986066     9A1     0.986066     4B1     1.083313
       4B2     1.083313    10A1     1.455822    11A1     2.003957
      12A1     2.679844    13A1     2.797961     2A2     2.797964
       5B2     2.835427     5B1     2.835427     6B1     3.071916
       6B2     3.071916     7B2     3.241028     7B1     3.241028
      14A1     3.337930    15A1     3.970665     8B1     4.565451
       8B2     4.565451    16A1     4.594084     3A2     4.594084
       9B2     4.740189     9B1     4.740189    17A1     5.052049
       4A2     5.568589    18A1     5.568595    10B1     5.744958
      10B2     5.744958    19A1     6.291352    20A1     6.941436

    Beta Occupied:

       1A1   -19.698722     2A1    -1.285972     3A1    -0.801708

    Beta Virtual:

       1B2    -0.578998     1B1    -0.578998     4A1    -0.479833
       5A1    -0.037391     2B2     0.177028     2B1     0.177028
       6A1     0.273334     3B2     0.359609     3B1     0.359609
       7A1     0.393889     8A1     0.701502     9A1     1.099917
       1A2     1.099917     4B1     1.142331     4B2     1.142331
      10A1     1.478765    11A1     1.961018    12A1     2.692553
       2A2     2.760101    13A1     2.760102     5B2     2.822680
       5B1     2.822680     6B1     3.187921     6B2     3.187921
       7B2     3.208403     7B1     3.208403    14A1     3.323117
      15A1     3.987481     3A2     4.698862    16A1     4.698862
       8B1     4.716621     8B2     4.716621     9B2     4.820865
       9B1     4.820865    17A1     5.117116     4A2     5.783822
      18A1     5.783827    10B1     5.868727    10B2     5.868727
      19A1     6.358356    20A1     7.064181

    Final Occupation by Irrep:
             A1    A2    B1    B2
    DOCC [     3,    0,    0,    0 ]
    SOCC [     0,    0,    1,    1 ]
    NA   [     3,    0,    1,    1 ]
    NB   [     3,    0,    0,    0 ]

  @DF-UKS Final Energy:   -75.22545955119951

   => Energetics <=

    Nuclear Repulsion Energy =              2.7518011601275858
    One-Electron Energy =                -105.4437749919682972
    Two-Electron Energy =                  34.2595674650599520
    DFT Exchange-Correlation Energy =      -6.7930531844187447
    Empirical Dispersion Energy =           0.0000000000000000
    VV10 Nonlocal Energy =                  0.0000000000000000
    Total Energy =                        -75.2254595511994921

  UHF NO Occupations:
  HONO-2 :    3 A1 1.9802253
  HONO-1 :    1 B2 1.0000000
  HONO-0 :    1 B1 1.0000000
  LUNO+0 :    4 A1 0.0197747
  LUNO+1 :    5 A1 0.0009126
  LUNO+2 :    6 A1 0.0000015
  LUNO+3 :    7 A1 0.0000000

Computation Completed

Properties will be evaluated at   0.000000,   0.000000,   0.000000 [a0]

Properties computed using the B3LYP density matrix

 Multipole Moments:

 ------------------------------------------------------------------------------------
     Multipole            Electronic (a.u.)      Nuclear  (a.u.)        Total (a.u.)
 ------------------------------------------------------------------------------------

 L = 1.  Multiply by 2.5417464519 to convert [e a0] to [Debye]
 Dipole X            :          0.0000000            0.0000000            0.0000000
 Dipole Y            :          0.0000000            0.0000000            0.0000000
 Dipole Z            :          0.1179333            1.3562943            1.4742276
 Magnitude           :                                                    1.4742276

 L = 2.  Multiply by 1.3450342976 to convert [e a0^2] to [Debye ang]
 Quadrupole XX       :         -3.2594680            0.0000000           -3.2594680
 Quadrupole XY       :          0.0000000            0.0000000            0.0000000
 Quadrupole XZ       :          0.0000000            0.0000000            0.0000000
 Quadrupole YY       :         -3.2594680            0.0000000           -3.2594680
 Quadrupole YZ       :          0.0000000            0.0000000            0.0000000
 Quadrupole ZZ       :         -6.6048838            7.7170461            1.1121623
 Traceless XX        :          1.1151386           -2.5723487           -1.4572101
 Traceless YY        :          1.1151386           -2.5723487           -1.4572101
 Traceless ZZ        :         -2.2302772            5.1446974            2.9144202

 ------------------------------------------------------------------------------------
  ==> Computing MBIS Charges <==

  Electron Count from Grid (Expected Number):  8.00000 ( 8.00000)
  Difference: -0.00000

  MBIS Charges: (a.u.)
   Center  Symbol  Z      Pop.       Charge
      1       O    8    7.593975    0.406025
      2       H    1    0.406025    0.593975

  MBIS Dipoles: [e a0]
   Center  Symbol  Z        X           Y           Z
      1       O    8   -0.000000   -0.000000   -0.165160
      2       H    1    0.000000    0.000000    0.084913

  MBIS Quadrupoles: [e a0^2]
   Center  Symbol  Z      XX        XY        XZ        YY        YZ        ZZ
      1       O    8   -2.9878    0.0000   -0.0000   -2.9878   -0.0000   -3.6112
      2       H    1   -0.2717    0.0000    0.0000   -0.2717    0.0000   -0.2527

  MBIS Octupoles: [e a0^3]
   Center  Symbol  Z      XXX       XXY       XXZ       XYY       XYZ       XZZ       YYY       YYZ       YZZ       ZZZ
      1       O    8   -0.0000   -0.0000   -0.1453   -0.0000    0.0000    0.0000   -0.0000   -0.1453   -0.0000   -0.5826
      2       H    1    0.0000    0.0000    0.0505    0.0000    0.0000    0.0000    0.0000    0.0505    0.0000    0.1299

  MBIS Radial Moments:
   Center  Symbol  Z      [a0^2]      [a0^3]      [a0^4]
      1       O    8    9.586810   16.942608   35.815664
      2       H    1    0.796023    1.545792    3.563444

  MBIS Valence Widths: [a0]
   Center  Symbol  Z     Width
      1       O    8    0.367935
      2       H    1    0.411581

*** tstop() called on Mac.lan at Sun Aug 10 18:30:55 2025
Module time:
	user time   =       7.23 seconds =       0.12 minutes
	system time =       1.80 seconds =       0.03 minutes
	total time  =          1 seconds =       0.02 minutes
Total time:
	user time   =      33.28 seconds =       0.55 minutes
	system time =       4.83 seconds =       0.08 minutes
	total time  =          4 seconds =       0.07 minutes

    Psi4 stopped on: Sunday, 10 August 2025 06:30PM
    Psi4 wall time for execution: 0:00:03.88

*** Psi4 exiting successfully. Buy a developer a beer!
