                               Psi4 1.9.1 release

  ==> Input File <==

--------------------------------------------------------------------------
molecule {
1 4
C           0.000000           0.000000           0.000000
C           0.000000           0.000000           1.728006
}

set {
basis              cc-pvtz
reference          uks
maxiter            500
DAMPING_PERCENTAGE 1
E_CONVERGENCE      1.0E-8
D_CONVERGENCE      1.0E-8
DIIS_MAX_VECS      400
MBIS_MAXITER       8000
guess              read
}

E, wfn = energy('b3lyp', restart_file='last_wfn', return_wfn=True)
properties('b3lyp','MBIS_CHARGES', wfn=wfn)
wfn.to_file('last_wfn')
--------------------------------------------------------------------------

    Molecular point group: d2h
  Charge       = 1
  Multiplicity = 4
  Basis Set: CC-PVTZ
    Blend: CC-PVTZ
  Basis Set: (CC-PVTZ AUX)
    Blend: CC-PVTZ-JKFIT
  @DF-UKS Final Energy:   -75.46638638902854
    Total Energy =                        -75.4663863890285427
 Dipole X            :          0.0000000            0.0000000            0.0000000
 Dipole Y            :          0.0000000            0.0000000            0.0000000
 Dipole Z            :          0.0000000            0.0000000            0.0000000
 Magnitude           :                                                    0.0000000
    Molecular point group: d2h

    Geometry (in Angstrom), charge = 1, multiplicity = 4:

       Center              X                  Y                   Z               Mass
    ------------   -----------------  -----------------  -----------------  -----------------
         C            0.000000000000     0.000000000000    -0.864003000000    12.000000000000
         C            0.000000000000     0.000000000000     0.864003000000    12.000000000000

  Charge       = 1
  Multiplicity = 4
  Basis Set: CC-PVTZ
    Blend: CC-PVTZ
  Basis Set: (CC-PVTZ AUX)
    Blend: CC-PVTZ-JKFIT

    Orbital Energies [Eh]
    ---------------------

    Alpha Occupied:

       1Ag   -10.724872     1B1u  -10.724682     2Ag    -1.077076
       2B1u   -0.856422     3Ag    -0.681457     1B3u   -0.646667
       1B2u   -0.646667

    Alpha Virtual:

       1B2g   -0.468447     1B3g   -0.468447     3B1u   -0.269445
       4B1u    0.016773     2B2u    0.018409     2B3u    0.018409
       4Ag     0.039867     5Ag     0.051581     2B3g    0.094036
       2B2g    0.094036     6Ag     0.260474     1B1g    0.260474
       3B2u    0.285663     3B3u    0.285663     5B1u    0.343271
       6B1u    0.459790     1Au     0.459790     7Ag     0.710186
       3B3g    0.745099     3B2g    0.745099     7B1u    0.811576
       4B3u    1.510353     4B2u    1.510353     8Ag     1.581656
       4B3g    1.645578     4B2g    1.645578     5B2u    2.042893
       5B3u    2.042893     9Ag     2.068395     2B1g    2.068395
      10Ag     2.075258     8B1u    2.122817     6B2u    2.240954
       6B3u    2.240954     5B3g    2.340604     5B2g    2.340604
      11Ag     2.505311     3B1g    2.505319     9B1u    2.506679
       2Au     2.506683     6B3g    2.651151     6B2g    2.651151
      10B1u    2.666926    11B1u    2.685356     3Au     2.685362
       7B2u    2.688840     7B3u    2.688840    12B1u    3.027255
      12Ag     3.128249     7B3g    3.299423     7B2g    3.299423
      13Ag     3.593744    13B1u    5.429182

    Beta Occupied:

       1Ag   -10.700624     1B1u  -10.700594     2Ag    -0.983077
       2B1u   -0.742755

    Beta Virtual:

       3Ag    -0.514972     1B3u   -0.497637     1B2u   -0.497637
       1B2g   -0.370463     1B3g   -0.370463     3B1u   -0.189490
       2B2u    0.047066     2B3u    0.047066     4B1u    0.049326
       4Ag     0.072898     5Ag     0.082337     2B3g    0.116720
       2B2g    0.116720     1B1g    0.309416     6Ag     0.309416
       3B2u    0.345213     3B3u    0.345213     5B1u    0.371898
       1Au     0.504462     6B1u    0.504462     7Ag     0.768396
       3B3g    0.791220     3B2g    0.791220     7B1u    0.853944
       4B3u    1.566864     4B2u    1.566864     8Ag     1.641892
       4B3g    1.700256     4B2g    1.700256     5B2u    2.104083
       5B3u    2.104083     9Ag     2.135625     2B1g    2.135626
      10Ag     2.139570     8B1u    2.182895     6B2u    2.305132
       6B3u    2.305132     5B3g    2.404289     5B2g    2.404289
       9B1u    2.576144     2Au     2.576148    11Ag     2.586891
       3B1g    2.586899     6B3g    2.729200     6B2g    2.729200
      10B1u    2.744965    11B1u    2.762057     3Au     2.762062
       7B2u    2.774044     7B3u    2.774044    12B1u    3.086560
      12Ag     3.197236     7B3g    3.367632     7B2g    3.367632
      13Ag     3.649639    13B1u    5.476125

    Final Occupation by Irrep:
             Ag   B1g   B2g   B3g    Au   B1u   B2u   B3u
    DOCC [     2,    0,    0,    0,    0,    2,    0,    0 ]
    SOCC [     1,    0,    0,    0,    0,    0,    1,    1 ]
    NA   [     3,    0,    0,    0,    0,    2,    1,    1 ]
    NB   [     2,    0,    0,    0,    0,    2,    0,    0 ]

  @DF-UKS Final Energy:   -75.46638638888790

   => Energetics <=

    Nuclear Repulsion Energy =             11.0244869428231169
    One-Electron Energy =                -118.6041573923511976
    Two-Electron Energy =                  40.2782080908981115
    DFT Exchange-Correlation Energy =      -8.1649240302579305
    Empirical Dispersion Energy =           0.0000000000000000
    VV10 Nonlocal Energy =                  0.0000000000000000
    Total Energy =                        -75.4663863888879121

  UHF NO Occupations:
  HONO-2 :    1B2u 1.0000000
  HONO-1 :    1B3u 1.0000000
  HONO-0 :    3 Ag 1.0000000
  LUNO+0 :    3B1u 0.0018028
  LUNO+1 :    4 Ag 0.0001484
  LUNO+2 :    4B1u 0.0000008
  LUNO+3 :    5 Ag 0.0000006

Computation Completed

Properties will be evaluated at   0.000000,   0.000000,   0.000000 [a0]

Properties computed using the B3LYP density matrix

 Multipole Moments:

 ------------------------------------------------------------------------------------
     Multipole            Electronic (a.u.)      Nuclear  (a.u.)        Total (a.u.)
 ------------------------------------------------------------------------------------

 L = 1.  Multiply by 2.5417464519 to convert [e a0] to [Debye]
 Dipole X            :          0.0000000            0.0000000            0.0000000
 Dipole Y            :          0.0000000            0.0000000            0.0000000
 Dipole Z            :          0.0000000            0.0000000            0.0000000
 Magnitude           :                                                    0.0000000

 L = 2.  Multiply by 1.3450342976 to convert [e a0^2] to [Debye ang]
 Quadrupole XX       :         -6.8137274            0.0000000           -6.8137274
 Quadrupole XY       :          0.0000000            0.0000000            0.0000000
 Quadrupole XZ       :          0.0000000            0.0000000            0.0000000
 Quadrupole YY       :         -6.8137274            0.0000000           -6.8137274
 Quadrupole YZ       :          0.0000000            0.0000000            0.0000000
 Quadrupole ZZ       :        -35.7677697           31.9896495           -3.7781202
 Traceless XX        :          9.6513474          -10.6632165           -1.0118691
 Traceless YY        :          9.6513474          -10.6632165           -1.0118691
 Traceless ZZ        :        -19.3026948           21.3264330            2.0237381

 ------------------------------------------------------------------------------------
  ==> Computing MBIS Charges <==

  Electron Count from Grid (Expected Number): 11.00000 (11.00000)
  Difference: -0.00000

  MBIS Charges: (a.u.)
   Center  Symbol  Z      Pop.       Charge
      1       C    6    5.500000    0.500000
      2       C    6    5.500000    0.500000

  MBIS Dipoles: [e a0]
   Center  Symbol  Z        X           Y           Z
      1       C    6   -0.000000    0.000000   -0.162773
      2       C    6   -0.000000   -0.000000    0.162773

  MBIS Quadrupoles: [e a0^2]
   Center  Symbol  Z      XX        XY        XZ        YY        YZ        ZZ
      1       C    6   -3.4069    0.0000   -0.0000   -3.4069   -0.0000   -3.7535
      2       C    6   -3.4069    0.0000    0.0000   -3.4069    0.0000   -3.7535

  MBIS Octupoles: [e a0^3]
   Center  Symbol  Z      XXX       XXY       XXZ       XYY       XYZ       XZZ       YYY       YYZ       YZZ       ZZZ
      1       C    6   -0.0000   -0.0000   -0.2431   -0.0000    0.0000   -0.0000    0.0000   -0.2431    0.0000   -0.8051
      2       C    6   -0.0000   -0.0000    0.2431   -0.0000   -0.0000   -0.0000    0.0000    0.2431    0.0000    0.8051

  MBIS Radial Moments:
   Center  Symbol  Z      [a0^2]      [a0^3]      [a0^4]
      1       C    6   10.567219   23.740610   63.464591
      2       C    6   10.567219   23.740610   63.464591

  MBIS Valence Widths: [a0]
   Center  Symbol  Z     Width
      1       C    6    0.484920
      2       C    6    0.484920

*** tstop() called on Mac.lan at Sun Aug 10 18:23:05 2025
Module time:
	user time   =       3.68 seconds =       0.06 minutes
	system time =       2.49 seconds =       0.04 minutes
	total time  =          1 seconds =       0.02 minutes
Total time:
	user time   =      15.69 seconds =       0.26 minutes
	system time =       4.99 seconds =       0.08 minutes
	total time  =          2 seconds =       0.03 minutes

    Psi4 stopped on: Sunday, 10 August 2025 06:23PM
    Psi4 wall time for execution: 0:00:02.02

*** Psi4 exiting successfully. Buy a developer a beer!
