                               Psi4 1.9.1 release

  ==> Input File <==

--------------------------------------------------------------------------
molecule {
1 2
O           0.000000           0.000000           0.000000
C           0.000000           0.000000           0.727157
}

set {
basis              cc-pvtz
reference          uks
maxiter            500
DAMPING_PERCENTAGE 1
E_CONVERGENCE      1.0E-8
D_CONVERGENCE      1.0E-8
DIIS_MAX_VECS      400
MBIS_MAXITER       8000
guess              read
}

E, wfn = energy('b3lyp', restart_file='last_wfn', return_wfn=True)
properties('b3lyp','MBIS_CHARGES', wfn=wfn)
wfn.to_file('last_wfn')
--------------------------------------------------------------------------

    Molecular point group: c2v
  Charge       = 1
  Multiplicity = 2
  Basis Set: CC-PVTZ
    Blend: CC-PVTZ
  Basis Set: (CC-PVTZ AUX)
    Blend: CC-PVTZ-JKFIT
  @DF-UKS Final Energy:  -111.82767987782702
    Total Energy =                       -111.8276798778270233
 Dipole X            :          0.0000000            0.0000000            0.0000000
 Dipole Y            :          0.0000000            0.0000000            0.0000000
 Dipole Z            :          0.7425190           -0.0014977            0.7410213
 Magnitude           :                                                    0.7410213
    Molecular point group: c2v

    Geometry (in Angstrom), charge = 1, multiplicity = 2:

       Center              X                  Y                   Z               Mass
    ------------   -----------------  -----------------  -----------------  -----------------
         O            0.000000000000     0.000000000000    -0.311695324618    15.994914619570
         C            0.000000000000     0.000000000000     0.415461675382    12.000000000000

  Charge       = 1
  Multiplicity = 2
  Basis Set: CC-PVTZ
    Blend: CC-PVTZ
  Basis Set: (CC-PVTZ AUX)
    Blend: CC-PVTZ-JKFIT

    Orbital Energies [Eh]
    ---------------------

    Alpha Occupied:

       1A1   -19.610832     2A1   -10.731796     3A1    -1.729842
       1B1    -1.095255     1B2    -1.095255     4A1    -0.929607
       5A1    -0.859429

    Alpha Virtual:

       2B1    -0.224293     2B2    -0.224293     6A1    -0.096492
       7A1    -0.027388     3B2    -0.020101     3B1    -0.020101
       8A1     0.245228     1A2     0.264126     9A1     0.264127
       4B2     0.324905     4B1     0.324905    10A1     0.514651
       5B1     0.686562     5B2     0.686562    11A1     0.975201
       6B2     1.240686     6B1     1.240686    12A1     1.274480
       2A2     1.274480    13A1     1.370656    14A1     1.881265
       7B2     1.906883     7B1     1.906883     8B1     2.200228
       8B2     2.200228    15A1     2.333546     3A2     2.390162
      16A1     2.390162     9B1     2.579495     9B2     2.579495
      17A1     2.735457     4A2     2.744577    18A1     2.744577
      10B2     3.560972    10B1     3.560972    11B2     3.826264
      11B1     3.826264    19A1     3.953631    12B1     4.873683
      12B2     4.873683    20A1     5.427797    21A1     5.829690
       5A2     5.829691    22A1     6.040790     6A2     6.040790
      13B2     6.206817    13B1     6.206817    23A1     6.219096
      24A1     7.038304    14B2     7.290869    14B1     7.290869
      25A1     9.710676    26A1    17.024207

    Beta Occupied:

       1A1   -19.610333     2A1   -10.707746     3A1    -1.724268
       1B1    -1.083976     1B2    -1.083976     4A1    -0.924585

    Beta Virtual:

       5A1    -0.619981     2B1    -0.186092     2B2    -0.186092
       6A1    -0.085761     3B2    -0.003118     3B1    -0.003118
       7A1     0.011348     8A1     0.265027     1A2     0.282684
       9A1     0.282684     4B2     0.333797     4B1     0.333797
      10A1     0.558745     5B1     0.715185     5B2     0.715185
      11A1     0.990728     6B2     1.260685     6B1     1.260685
       2A2     1.277218    12A1     1.277218    13A1     1.427057
      14A1     1.920014     7B2     1.935586     7B1     1.935586
       8B1     2.232993     8B2     2.232993    15A1     2.404390
       3A2     2.460431    16A1     2.460431     9B2     2.679511
       9B1     2.679511     4A2     2.781690    17A1     2.781691
      18A1     2.823505    10B2     3.573303    10B1     3.573303
      11B2     3.859964    11B1     3.859964    19A1     3.977467
      12B1     4.873455    12B2     4.873455    20A1     5.444651
      21A1     5.825931     5A2     5.825933     6A2     6.050759
      22A1     6.050759    13B2     6.213012    13B1     6.213012
      23A1     6.230562    24A1     7.060017    14B2     7.312479
      14B1     7.312479    25A1     9.728597    26A1    17.054725

    Final Occupation by Irrep:
             A1    A2    B1    B2
    DOCC [     4,    0,    1,    1 ]
    SOCC [     1,    0,    0,    0 ]
    NA   [     5,    0,    1,    1 ]
    NB   [     4,    0,    1,    1 ]

  @DF-UKS Final Energy:  -111.82767987749503

   => Energetics <=

    Nuclear Repulsion Energy =             34.9312543400668574
    One-Electron Energy =                -214.0498337585034960
    Two-Electron Energy =                  78.8288510706389758
    DFT Exchange-Correlation Energy =     -11.5379515296973647
    Empirical Dispersion Energy =           0.0000000000000000
    VV10 Nonlocal Energy =                  0.0000000000000000
    Total Energy =                       -111.8276798774950294

  UHF NO Occupations:
  HONO-2 :    1 B1 1.9993268
  HONO-1 :    1 B2 1.9993268
  HONO-0 :    5 A1 1.0000000
  LUNO+0 :    2 B2 0.0006732
  LUNO+1 :    2 B1 0.0006732
  LUNO+2 :    6 A1 0.0000403
  LUNO+3 :    7 A1 0.0000058

Computation Completed

Properties will be evaluated at   0.000000,   0.000000,   0.000000 [a0]

Properties computed using the B3LYP density matrix

 Multipole Moments:

 ------------------------------------------------------------------------------------
     Multipole            Electronic (a.u.)      Nuclear  (a.u.)        Total (a.u.)
 ------------------------------------------------------------------------------------

 L = 1.  Multiply by 2.5417464519 to convert [e a0] to [Debye]
 Dipole X            :          0.0000000            0.0000000            0.0000000
 Dipole Y            :          0.0000000            0.0000000            0.0000000
 Dipole Z            :          0.7425190           -0.0014977            0.7410213
 Magnitude           :                                                    0.7410213

 L = 2.  Multiply by 1.3450342976 to convert [e a0^2] to [Debye ang]
 Quadrupole XX       :         -4.9955286            0.0000000           -4.9955286
 Quadrupole XY       :          0.0000000            0.0000000            0.0000000
 Quadrupole XZ       :          0.0000000            0.0000000            0.0000000
 Quadrupole YY       :         -4.9955286            0.0000000           -4.9955286
 Quadrupole YZ       :          0.0000000            0.0000000            0.0000000
 Quadrupole ZZ       :        -11.1976713            6.4739200           -4.7237513
 Traceless XX        :          2.0673809           -2.1579733           -0.0905924
 Traceless YY        :          2.0673809           -2.1579733           -0.0905924
 Traceless ZZ        :         -4.1347618            4.3159466            0.1811849

 ------------------------------------------------------------------------------------
  ==> Computing MBIS Charges <==

  Electron Count from Grid (Expected Number): 13.00000 (13.00000)
  Difference:  0.00000

  MBIS Charges: (a.u.)
   Center  Symbol  Z      Pop.       Charge
      1       O    8    8.070848   -0.070848
      2       C    6    4.929154    1.070846

  MBIS Dipoles: [e a0]
   Center  Symbol  Z        X           Y           Z
      1       O    8    0.000000    0.000000   -0.168190
      2       C    6   -0.000000    0.000000    0.026751

  MBIS Quadrupoles: [e a0^2]
   Center  Symbol  Z      XX        XY        XZ        YY        YZ        ZZ
      1       O    8   -2.9539   -0.0000   -0.0000   -2.9539   -0.0000   -3.2743
      2       C    6   -2.0416   -0.0000    0.0000   -2.0416    0.0000   -2.3251

  MBIS Octupoles: [e a0^3]
   Center  Symbol  Z      XXX       XXY       XXZ       XYY       XYZ       XZZ       YYY       YYZ       YZZ       ZZZ
      1       O    8   -0.0000    0.0000   -0.0696   -0.0000    0.0000   -0.0000   -0.0000   -0.0696    0.0000    0.0518
      2       C    6   -0.0000    0.0000   -0.0720   -0.0000    0.0000   -0.0000    0.0000   -0.0720    0.0000   -0.3763

  MBIS Radial Moments:
   Center  Symbol  Z      [a0^2]      [a0^3]      [a0^4]
      1       O    8    9.182140   15.200944   30.202279
      2       C    6    6.408291   12.307465   28.485714

  MBIS Valence Widths: [a0]
   Center  Symbol  Z     Width
      1       O    8    0.344398
      2       C    6    0.400815

*** tstop() called on Mac.lan at Sun Aug 10 18:37:14 2025
Module time:
	user time   =      21.37 seconds =       0.36 minutes
	system time =       3.24 seconds =       0.05 minutes
	total time  =          2 seconds =       0.03 minutes
Total time:
	user time   =      38.14 seconds =       0.64 minutes
	system time =       5.47 seconds =       0.09 minutes
	total time  =          4 seconds =       0.07 minutes

    Psi4 stopped on: Sunday, 10 August 2025 06:37PM
    Psi4 wall time for execution: 0:00:04.41

*** Psi4 exiting successfully. Buy a developer a beer!
