                               Psi4 1.9.1 release

  ==> Input File <==

--------------------------------------------------------------------------
molecule {
1 3
N           0.000000           0.000000           0.000000
C           0.000000           0.000000           0.829420
}

set {
basis              cc-pvtz
reference          uks
maxiter            500
DAMPING_PERCENTAGE 1
E_CONVERGENCE      1.0E-8
D_CONVERGENCE      1.0E-8
DIIS_MAX_VECS      400
MBIS_MAXITER       8000
guess              read
}

E, wfn = energy('b3lyp', restart_file='last_wfn', return_wfn=True)
properties('b3lyp','MBIS_CHARGES', wfn=wfn)
wfn.to_file('last_wfn')
--------------------------------------------------------------------------

    Molecular point group: c2v
  Charge       = 1
  Multiplicity = 3
  Basis Set: CC-PVTZ
    Blend: CC-PVTZ
  Basis Set: (CC-PVTZ AUX)
    Blend: CC-PVTZ-JKFIT
  @DF-UKS Final Energy:   -91.72663816022590
    Total Energy =                        -91.7266381602259031
 Dipole X            :          0.0000000            0.0000000            0.0000000
 Dipole Y            :          0.0000000            0.0000000            0.0000000
 Dipole Z            :          0.0756631            0.0011117            0.0767748
 Magnitude           :                                                    0.0767748
    Molecular point group: c2v

    Geometry (in Angstrom), charge = 1, multiplicity = 3:

       Center              X                  Y                   Z               Mass
    ------------   -----------------  -----------------  -----------------  -----------------
         N            0.000000000000     0.000000000000    -0.382763976225    14.003074004430
         C            0.000000000000     0.000000000000     0.446656023775    12.000000000000

  Charge       = 1
  Multiplicity = 3
  Basis Set: CC-PVTZ
    Blend: CC-PVTZ
  Basis Set: (CC-PVTZ AUX)
    Blend: CC-PVTZ-JKFIT

    Orbital Energies [Eh]
    ---------------------

    Alpha Occupied:

       1A1   -14.810253     2A1   -10.662245     3A1    -1.479604
       4A1    -0.936673     1B1    -0.931076     1B2    -0.931076
       5A1    -0.799951

    Alpha Virtual:

       2B1    -0.238419     2B2    -0.238419     6A1    -0.095138
       3B2    -0.019285     3B1    -0.019285     7A1     0.001072
       8A1     0.119785     4B2     0.232393     4B1     0.232393
       1A2     0.287256     9A1     0.287256    10A1     0.518738
       5B2     0.625655     5B1     0.625655    11A1     0.661690
      12A1     0.883038     2A2     0.883038    13A1     1.166793
       6B2     1.167024     6B1     1.167024     7B2     1.510945
       7B1     1.510945    14A1     1.831546    15A1     1.988565
       8B2     2.235510     8B1     2.235510     3A2     2.418457
      16A1     2.418457    17A1     2.501383     9B2     2.509305
       9B1     2.509305    18A1     2.603658     4A2     2.603658
      10B2     2.880025    10B1     2.880025    19A1     2.961348
      11B2     3.269843    11B1     3.269843    12B2     3.668615
      12B1     3.668615    20A1     4.052600     5A2     4.052600
      21A1     4.169928    13B1     4.595182    13B2     4.595182
      22A1     4.761621     6A2     4.761622    23A1     5.138049
      24A1     5.766519    14B2     5.965416    14B1     5.965416
      25A1     7.566467    26A1    17.174816

    Beta Occupied:

       1A1   -14.781580     2A1   -10.633938     3A1    -1.435092
       1B1    -0.897595     1B2    -0.897595

    Beta Virtual:

       4A1    -0.652679     5A1    -0.553990     2B1    -0.179396
       2B2    -0.179396     6A1    -0.068865     3B2    -0.007813
       3B1    -0.007813     7A1     0.041175     8A1     0.163689
       4B2     0.252010     4B1     0.252010     1A2     0.301572
       9A1     0.301572    10A1     0.573730     5B2     0.673361
       5B1     0.673361    11A1     0.732288     2A2     0.906826
      12A1     0.906827     6B2     1.205444     6B1     1.205444
      13A1     1.255000     7B2     1.547475     7B1     1.547475
      14A1     1.875640    15A1     2.126949     8B2     2.259004
       8B1     2.259004     3A2     2.442473    16A1     2.442473
      17A1     2.578279     9B2     2.617590     9B1     2.617590
       4A2     2.675661    18A1     2.675664    10B2     2.910961
      10B1     2.910961    19A1     3.083574    11B2     3.345939
      11B1     3.345939    12B2     3.693391    12B1     3.693391
       5A2     4.111329    20A1     4.111331    21A1     4.306502
      13B1     4.702126    13B2     4.702126     6A2     4.802587
      22A1     4.802592    23A1     5.235132    24A1     5.862897
      14B2     6.039088    14B1     6.039088    25A1     7.611351
      26A1    17.227895

    Final Occupation by Irrep:
             A1    A2    B1    B2
    DOCC [     3,    0,    1,    1 ]
    SOCC [     2,    0,    0,    0 ]
    NA   [     5,    0,    1,    1 ]
    NB   [     3,    0,    1,    1 ]

  @DF-UKS Final Energy:   -91.72663815887535

   => Energetics <=

    Nuclear Repulsion Energy =             26.7963671579416953
    One-Electron Energy =                -170.6818397464646182
    Two-Electron Energy =                  62.1260474296300913
    DFT Exchange-Correlation Energy =      -9.9672129999825145
    Empirical Dispersion Energy =           0.0000000000000000
    VV10 Nonlocal Energy =                  0.0000000000000000
    Total Energy =                        -91.7266381588753461

  UHF NO Occupations:
  HONO-2 :    1 B1 1.9996798
  HONO-1 :    4 A1 1.0000000
  HONO-0 :    5 A1 1.0000000
  LUNO+0 :    2 B2 0.0003202
  LUNO+1 :    2 B1 0.0003202
  LUNO+2 :    6 A1 0.0002044
  LUNO+3 :    7 A1 0.0000009

Computation Completed

Properties will be evaluated at   0.000000,   0.000000,   0.000000 [a0]

Properties computed using the B3LYP density matrix

 Multipole Moments:

 ------------------------------------------------------------------------------------
     Multipole            Electronic (a.u.)      Nuclear  (a.u.)        Total (a.u.)
 ------------------------------------------------------------------------------------

 L = 1.  Multiply by 2.5417464519 to convert [e a0] to [Debye]
 Dipole X            :          0.0000000            0.0000000            0.0000000
 Dipole Y            :          0.0000000            0.0000000            0.0000000
 Dipole Z            :          0.0756631            0.0011117            0.0767748
 Magnitude           :                                                    0.0767748

 L = 2.  Multiply by 1.3450342976 to convert [e a0^2] to [Debye ang]
 Quadrupole XX       :         -5.5520139            0.0000000           -5.5520139
 Quadrupole XY       :          0.0000000            0.0000000            0.0000000
 Quadrupole XZ       :          0.0000000            0.0000000            0.0000000
 Quadrupole YY       :         -5.5520139            0.0000000           -5.5520139
 Quadrupole YZ       :          0.0000000            0.0000000            0.0000000
 Quadrupole ZZ       :        -11.9327698            7.9369325           -3.9958373
 Traceless XX        :          2.1269186           -2.6456442           -0.5187255
 Traceless YY        :          2.1269186           -2.6456442           -0.5187255
 Traceless ZZ        :         -4.2538373            5.2912883            1.0374511

 ------------------------------------------------------------------------------------
  ==> Computing MBIS Charges <==

  Electron Count from Grid (Expected Number): 12.00000 (12.00000)
  Difference:  0.00000

  MBIS Charges: (a.u.)
   Center  Symbol  Z      Pop.       Charge
      1       N    7    6.650272    0.349728
      2       C    6    5.349729    0.650271

  MBIS Dipoles: [e a0]
   Center  Symbol  Z        X           Y           Z
      1       N    7    0.000000   -0.000000   -0.441304
      2       C    6   -0.000000   -0.000000    0.222178

  MBIS Quadrupoles: [e a0^2]
   Center  Symbol  Z      XX        XY        XZ        YY        YZ        ZZ
      1       N    7   -2.9258   -0.0000    0.0000   -2.9258   -0.0000   -2.8519
      2       C    6   -2.6262    0.0000    0.0000   -2.6262    0.0000   -2.8037

  MBIS Octupoles: [e a0^3]
   Center  Symbol  Z      XXX       XXY       XXZ       XYY       XYZ       XZZ       YYY       YYZ       YZZ       ZZZ
      1       N    7   -0.0000   -0.0000   -0.2484   -0.0000    0.0000   -0.0000    0.0000   -0.2484    0.0000   -0.4350
      2       C    6   -0.0000   -0.0000    0.1338   -0.0000    0.0000    0.0000    0.0000    0.1338    0.0000   -0.1071

  MBIS Radial Moments:
   Center  Symbol  Z      [a0^2]      [a0^3]      [a0^4]
      1       N    7    8.703496   15.683225   33.813713
      2       C    6    8.056087   16.188698   38.954277

  MBIS Valence Widths: [a0]
   Center  Symbol  Z     Width
      1       N    7    0.380621
      2       C    6    0.425320

*** tstop() called on Mac.lan at Sun Aug 10 18:33:23 2025
Module time:
	user time   =       4.11 seconds =       0.07 minutes
	system time =       2.13 seconds =       0.04 minutes
	total time  =          1 seconds =       0.02 minutes
Total time:
	user time   =      17.07 seconds =       0.28 minutes
	system time =       4.85 seconds =       0.08 minutes
	total time  =          2 seconds =       0.03 minutes

    Psi4 stopped on: Sunday, 10 August 2025 06:33PM
    Psi4 wall time for execution: 0:00:02.15

*** Psi4 exiting successfully. Buy a developer a beer!
