                               Psi4 1.9.1 release

  ==> Input File <==

--------------------------------------------------------------------------
molecule {
1 3
N           0.000000           0.000000           0.000000
C           0.000000           0.000000           1.666380
}

set {
basis              cc-pvtz
reference          uks
maxiter            500
DAMPING_PERCENTAGE 1
E_CONVERGENCE      1.0E-8
D_CONVERGENCE      1.0E-8
DIIS_MAX_VECS      400
MBIS_MAXITER       8000
guess              read
}

E, wfn = energy('b3lyp', restart_file='last_wfn', return_wfn=True)
properties('b3lyp','MBIS_CHARGES', wfn=wfn)
wfn.to_file('last_wfn')
--------------------------------------------------------------------------

    Molecular point group: c2v
  Charge       = 1
  Multiplicity = 3
  Basis Set: CC-PVTZ
    Blend: CC-PVTZ
  Basis Set: (CC-PVTZ AUX)
    Blend: CC-PVTZ-JKFIT
  @DF-UKS Final Energy:   -92.13676678122293
    Total Energy =                        -92.1367667812229314
 Dipole X            :          0.0000000            0.0000000            0.0000000
 Dipole Y            :          0.0000000            0.0000000            0.0000000
 Dipole Z            :          0.5324352            0.0022336            0.5346688
 Magnitude           :                                                    0.5346688
    Molecular point group: c2v

    Geometry (in Angstrom), charge = 1, multiplicity = 3:

       Center              X                  Y                   Z               Mass
    ------------   -----------------  -----------------  -----------------  -----------------
         N            0.000000000000     0.000000000000    -0.769007541054    14.003074004430
         C            0.000000000000     0.000000000000     0.897372458946    12.000000000000

  Charge       = 1
  Multiplicity = 3
  Basis Set: CC-PVTZ
    Blend: CC-PVTZ
  Basis Set: (CC-PVTZ AUX)
    Blend: CC-PVTZ-JKFIT

    Orbital Energies [Eh]
    ---------------------

    Alpha Occupied:

       1A1   -14.856155     2A1   -10.772371     3A1    -1.226617
       4A1    -0.925510     5A1    -0.747322     1B1    -0.732911
       1B2    -0.714087

    Alpha Virtual:

       2B1    -0.498068     2B2    -0.453794     6A1    -0.318508
       7A1     0.004237     3B1     0.028185     3B2     0.046444
       8A1     0.052432     9A1     0.157692     4B1     0.182890
       4B2     0.192714     1A2     0.335286    10A1     0.335399
       5B1     0.350799     5B2     0.373838    11A1     0.516688
      12A1     0.703074     2A2     0.703075    13A1     0.714750
       6B1     0.958868     6B2     0.976362    14A1     1.133410
       7B1     1.572544     7B2     1.609871    15A1     1.820808
       8B1     2.197940     8B2     2.222302    16A1     2.250564
       3A2     2.274557    17A1     2.283864     9B1     2.305408
       9B2     2.305800    10B1     2.509575    10B2     2.534845
      18A1     2.552576     4A2     2.554093    19A1     2.696320
      11B1     2.705790    11B2     2.737725    20A1     2.961926
      12B1     3.455715    12B2     3.455729    21A1     3.506328
       5A2     3.531956    22A1     3.533819    13B1     3.805387
      13B2     3.822895    23A1     3.988208     6A2     3.988297
      24A1     4.148232    14B1     4.333350    14B2     4.348528
      25A1     5.108890    26A1     6.049432

    Beta Occupied:

       1A1   -14.810608     2A1   -10.774381     3A1    -1.120264
       4A1    -0.860291     1B2    -0.656914

    Beta Virtual:

       5A1    -0.575977     1B1    -0.552163     2B2    -0.452249
       2B1    -0.419377     6A1    -0.246877     7A1     0.023266
       3B2     0.025131     3B1     0.036840     8A1     0.068124
       9A1     0.193660     4B2     0.234940     4B1     0.238032
       1A2     0.321113    10A1     0.325145     5B2     0.386454
       5B1     0.396077    11A1     0.562988    12A1     0.748110
       2A2     0.772316    13A1     0.773326     6B2     1.020538
       6B1     1.024331    14A1     1.194019     7B2     1.560177
       7B1     1.584261    15A1     1.862929     8B2     2.248871
       8B1     2.260385     9B2     2.273338     3A2     2.274362
       9B1     2.275491    16A1     2.278330    17A1     2.297176
       4A2     2.512458    18A1     2.522100    10B2     2.573627
      10B1     2.587835    19A1     2.760445    11B2     2.761096
      11B1     2.775572    20A1     3.001015    12B2     3.558285
      12B1     3.558448    21A1     3.564953     5A2     3.622974
      22A1     3.624031    13B2     3.903095    13B1     3.908953
       6A2     4.128584    23A1     4.130203    24A1     4.244824
      14B2     4.450832    14B1     4.455624    25A1     5.185054
      26A1     6.112630

    Final Occupation by Irrep:
             A1    A2    B1    B2
    DOCC [     4,    0,    0,    1 ]
    SOCC [     1,    0,    1,    0 ]
    NA   [     5,    0,    1,    1 ]
    NB   [     4,    0,    0,    1 ]

  @DF-UKS Final Energy:   -92.13676678086063

   => Energetics <=

    Nuclear Repulsion Energy =             13.3375597691642955
    One-Electron Energy =                -145.9838327404619065
    Two-Electron Energy =                  49.8936694366118374
    DFT Exchange-Correlation Energy =      -9.3841632461748432
    Empirical Dispersion Energy =           0.0000000000000000
    VV10 Nonlocal Energy =                  0.0000000000000000
    Total Energy =                        -92.1367667808605972

  UHF NO Occupations:
  HONO-2 :    1 B2 1.7375252
  HONO-1 :    5 A1 1.0000000
  HONO-0 :    1 B1 1.0000000
  LUNO+0 :    2 B2 0.2624748
  LUNO+1 :    6 A1 0.0074435
  LUNO+2 :    7 A1 0.0006279
  LUNO+3 :    8 A1 0.0000012

Computation Completed

Properties will be evaluated at   0.000000,   0.000000,   0.000000 [a0]

Properties computed using the B3LYP density matrix

 Multipole Moments:

 ------------------------------------------------------------------------------------
     Multipole            Electronic (a.u.)      Nuclear  (a.u.)        Total (a.u.)
 ------------------------------------------------------------------------------------

 L = 1.  Multiply by 2.5417464519 to convert [e a0] to [Debye]
 Dipole X            :          0.0000000            0.0000000            0.0000000
 Dipole Y            :          0.0000000            0.0000000            0.0000000
 Dipole Z            :          0.5324353            0.0022336            0.5346689
 Magnitude           :                                                    0.5346689

 L = 2.  Multiply by 1.3450342976 to convert [e a0^2] to [Debye ang]
 Quadrupole XX       :         -6.1621260            0.0000000           -6.1621260
 Quadrupole XY       :          0.0000000            0.0000000            0.0000000
 Quadrupole XZ       :          0.0000000            0.0000000            0.0000000
 Quadrupole YY       :         -7.3340402            0.0000000           -7.3340402
 Quadrupole YZ       :          0.0000000            0.0000000            0.0000000
 Quadrupole ZZ       :        -35.2775757           32.0369945           -3.2405812
 Traceless XX        :         10.0957880          -10.6789982           -0.5832102
 Traceless YY        :          8.9238738          -10.6789982           -1.7551244
 Traceless ZZ        :        -19.0196618           21.3579963            2.3383346

 ------------------------------------------------------------------------------------
  ==> Computing MBIS Charges <==

  Electron Count from Grid (Expected Number): 12.00000 (12.00000)
  Difference: -0.00000

  MBIS Charges: (a.u.)
   Center  Symbol  Z      Pop.       Charge
      1       N    7    6.677524    0.322476
      2       C    6    5.322476    0.677524

  MBIS Dipoles: [e a0]
   Center  Symbol  Z        X           Y           Z
      1       N    7   -0.000000   -0.000000   -0.249037
      2       C    6    0.000000   -0.000000    0.103394

  MBIS Quadrupoles: [e a0^2]
   Center  Symbol  Z      XX        XY        XZ        YY        YZ        ZZ
      1       N    7   -3.3563    0.0000    0.0000   -3.7147   -0.0000   -3.5452
      2       C    6   -2.8058    0.0000    0.0000   -3.6193    0.0000   -3.3993

  MBIS Octupoles: [e a0^3]
   Center  Symbol  Z      XXX       XXY       XXZ       XYY       XYZ       XZZ       YYY       YYZ       YZZ       ZZZ
      1       N    7   -0.0000   -0.0000   -0.1696   -0.0000    0.0000   -0.0000    0.0000   -0.3529    0.0000   -0.9126
      2       C    6   -0.0000   -0.0000    0.1694   -0.0000   -0.0000   -0.0000    0.0000    0.2694    0.0000    0.6632

  MBIS Radial Moments:
   Center  Symbol  Z      [a0^2]      [a0^3]      [a0^4]
      1       N    7   10.616241   21.243375   50.713314
      2       C    6    9.824354   21.812229   57.659647

  MBIS Valence Widths: [a0]
   Center  Symbol  Z     Width
      1       N    7    0.422909
      2       C    6    0.478452

*** tstop() called on Mac.lan at Sun Aug 10 18:34:54 2025
Module time:
	user time   =       4.07 seconds =       0.07 minutes
	system time =       1.71 seconds =       0.03 minutes
	total time  =          1 seconds =       0.02 minutes
Total time:
	user time   =      20.43 seconds =       0.34 minutes
	system time =       3.85 seconds =       0.06 minutes
	total time  =          3 seconds =       0.05 minutes

    Psi4 stopped on: Sunday, 10 August 2025 06:34PM
    Psi4 wall time for execution: 0:00:02.35

*** Psi4 exiting successfully. Buy a developer a beer!
