                               Psi4 1.9.1 release

  ==> Input File <==

--------------------------------------------------------------------------
molecule {
1 1
C           0.000000           0.000000           0.000000
H           0.000000           0.000000           0.953449
}

set {
basis              cc-pvtz
reference          uks
maxiter            500
DAMPING_PERCENTAGE 1
E_CONVERGENCE      1.0E-8
D_CONVERGENCE      1.0E-8
DIIS_MAX_VECS      400
MBIS_MAXITER       8000
guess              read
}

E, wfn = energy('b3lyp', restart_file='last_wfn', return_wfn=True)
properties('b3lyp','MBIS_CHARGES', wfn=wfn)
wfn.to_file('last_wfn')
--------------------------------------------------------------------------

    Molecular point group: c2v
  Charge       = 1
  Multiplicity = 1
  Basis Set: CC-PVTZ
    Blend: CC-PVTZ
  Basis Set: (CC-PVTZ AUX)
    Blend: CC-PVTZ-JKFIT
  @DF-UKS Final Energy:   -38.06837121369077
    Total Energy =                        -38.0683712136907673
 Dipole X            :          0.0000000            0.0000000            0.0000000
 Dipole Y            :          0.0000000            0.0000000            0.0000000
 Dipole Z            :         -0.1170255            0.8245769            0.7075514
 Magnitude           :                                                    0.7075514
    Molecular point group: c2v

    Geometry (in Angstrom), charge = 1, multiplicity = 1:

       Center              X                  Y                   Z               Mass
    ------------   -----------------  -----------------  -----------------  -----------------
         C            0.000000000000     0.000000000000    -0.073871670842    12.000000000000
         H            0.000000000000     0.000000000000     0.879577329158     1.007825032230

  Charge       = 1
  Multiplicity = 1
  Basis Set: CC-PVTZ
    Blend: CC-PVTZ
  Basis Set: (CC-PVTZ AUX)
    Blend: CC-PVTZ-JKFIT

    Orbital Energies [Eh]
    ---------------------

    Alpha Occupied:

       1A1   -10.794697     2A1    -1.114127     3A1    -0.734837

    Alpha Virtual:

       1B2    -0.554359     1B1    -0.554359     4A1    -0.187250
       2B2     0.006358     2B1     0.006358     5A1     0.006400
       6A1     0.031251     7A1     0.203325     3B2     0.242076
       3B1     0.242076     1A2     0.312046     8A1     0.312046
       9A1     0.656280     4B1     0.740556     4B2     0.740556
      10A1     1.256051     5B1     1.538692     5B2     1.538692
      11A1     1.554057    12A1     1.749394    13A1     2.126886
       2A2     2.126886     6B2     2.239618     6B1     2.239618
       7B2     2.241309     7B1     2.241309     3A2     2.482721
      14A1     2.482721    15A1     2.580758     8B1     2.641381
       8B2     2.641381    16A1     3.133494    17A1     3.352829
       4A2     3.352829     9B1     3.515866     9B2     3.515866
      18A1     4.592858    10B1     4.704671    10B2     4.704671
      19A1     4.830200    20A1     9.723766

    Beta Occupied:

       1A1   -10.794697     2A1    -1.114127     3A1    -0.734837

    Beta Virtual:

       1B2    -0.554359     1B1    -0.554359     4A1    -0.187250
       2B2     0.006358     2B1     0.006358     5A1     0.006400
       6A1     0.031251     7A1     0.203325     3B2     0.242076
       3B1     0.242076     1A2     0.312046     8A1     0.312046
       9A1     0.656280     4B1     0.740556     4B2     0.740556
      10A1     1.256051     5B1     1.538692     5B2     1.538692
      11A1     1.554057    12A1     1.749394    13A1     2.126886
       2A2     2.126886     6B2     2.239618     6B1     2.239618
       7B2     2.241309     7B1     2.241309     3A2     2.482721
      14A1     2.482721    15A1     2.580758     8B1     2.641381
       8B2     2.641381    16A1     3.133494    17A1     3.352829
       4A2     3.352829     9B1     3.515866     9B2     3.515866
      18A1     4.592858    10B1     4.704671    10B2     4.704671
      19A1     4.830200    20A1     9.723766

    Final Occupation by Irrep:
             A1    A2    B1    B2
    DOCC [     3,    0,    0,    0 ]
    SOCC [     0,    0,    0,    0 ]
    NA   [     3,    0,    0,    0 ]
    NB   [     3,    0,    0,    0 ]

  @DF-UKS Final Energy:   -38.06837121362142

   => Energetics <=

    Nuclear Repulsion Energy =              3.3300819068665453
    One-Electron Energy =                 -54.3847595822811343
    Two-Electron Energy =                  17.3097315896980852
    DFT Exchange-Correlation Energy =      -4.3234251279049154
    Empirical Dispersion Energy =           0.0000000000000000
    VV10 Nonlocal Energy =                  0.0000000000000000
    Total Energy =                        -38.0683712136214183

  UHF NO Occupations:
  HONO-2 :    1 A1 2.0000000
  HONO-1 :    2 A1 2.0000000
  HONO-0 :    3 A1 2.0000000
  LUNO+0 :    4 A1 0.0000000
  LUNO+1 :    5 A1 0.0000000
  LUNO+2 :    6 A1 0.0000000
  LUNO+3 :    7 A1 0.0000000

Computation Completed

Properties will be evaluated at   0.000000,   0.000000,   0.000000 [a0]

Properties computed using the B3LYP density matrix

 Multipole Moments:

 ------------------------------------------------------------------------------------
     Multipole            Electronic (a.u.)      Nuclear  (a.u.)        Total (a.u.)
 ------------------------------------------------------------------------------------

 L = 1.  Multiply by 2.5417464519 to convert [e a0] to [Debye]
 Dipole X            :          0.0000000            0.0000000            0.0000000
 Dipole Y            :          0.0000000            0.0000000            0.0000000
 Dipole Z            :         -0.1170255            0.8245769            0.7075514
 Magnitude           :                                                    0.7075514

 L = 2.  Multiply by 1.3450342976 to convert [e a0^2] to [Debye ang]
 Quadrupole XX       :         -2.7912449            0.0000000           -2.7912449
 Quadrupole XY       :          0.0000000            0.0000000            0.0000000
 Quadrupole XZ       :          0.0000000            0.0000000            0.0000000
 Quadrupole YY       :         -2.7912449            0.0000000           -2.7912449
 Quadrupole YZ       :          0.0000000            0.0000000            0.0000000
 Quadrupole ZZ       :         -6.2807116            2.8797010           -3.4010106
 Traceless XX        :          1.1631555           -0.9599003            0.2032552
 Traceless YY        :          1.1631555           -0.9599003            0.2032552
 Traceless ZZ        :         -2.3263111            1.9198007           -0.4065104

 ------------------------------------------------------------------------------------
  ==> Computing MBIS Charges <==

  Electron Count from Grid (Expected Number):  6.00000 ( 6.00000)
  Difference:  0.00000

  MBIS Charges: (a.u.)
   Center  Symbol  Z      Pop.       Charge
      1       C    6    5.167035    0.832965
      2       H    1    0.832965    0.167035

  MBIS Dipoles: [e a0]
   Center  Symbol  Z        X           Y           Z
      1       C    6   -0.000000   -0.000000    0.473666
      2       H    1    0.000000    0.000000    0.072527

  MBIS Quadrupoles: [e a0^2]
   Center  Symbol  Z      XX        XY        XZ        YY        YZ        ZZ
      1       C    6   -2.4721    0.0000    0.0000   -2.4721   -0.0000   -3.6615
      2       H    1   -0.3192   -0.0000   -0.0000   -0.3192   -0.0000   -0.3261

  MBIS Octupoles: [e a0^3]
   Center  Symbol  Z      XXX       XXY       XXZ       XYY       XYZ       XZZ       YYY       YYZ       YZZ       ZZZ
      1       C    6   -0.0000    0.0000    0.5508    0.0000   -0.0000   -0.0000    0.0000    0.5508    0.0000    1.4042
      2       H    1   -0.0000    0.0000    0.0053   -0.0000   -0.0000    0.0000    0.0000    0.0053    0.0000    0.0264

  MBIS Radial Moments:
   Center  Symbol  Z      [a0^2]      [a0^3]      [a0^4]
      1       C    6    8.605676   18.214126   46.013485
      2       H    1    0.964394    1.439219    2.570397

  MBIS Valence Widths: [a0]
   Center  Symbol  Z     Width
      1       C    6    0.455873
      2       H    1    0.317335

*** tstop() called on Mac.lan at Sun Aug 10 18:26:42 2025
Module time:
	user time   =       2.83 seconds =       0.05 minutes
	system time =       2.36 seconds =       0.04 minutes
	total time  =          0 seconds =       0.00 minutes
Total time:
	user time   =      11.36 seconds =       0.19 minutes
	system time =       4.48 seconds =       0.07 minutes
	total time  =          1 seconds =       0.02 minutes

    Psi4 stopped on: Sunday, 10 August 2025 06:26PM
    Psi4 wall time for execution: 0:00:01.54

*** Psi4 exiting successfully. Buy a developer a beer!
