                               Psi4 1.9.1 release

  ==> Input File <==

--------------------------------------------------------------------------
molecule {
1 3
O           0.000000           0.000000           0.000000
H           0.000000           0.000000           1.004421
}

set {
basis              cc-pvtz
reference          uks
maxiter            500
DAMPING_PERCENTAGE 1
E_CONVERGENCE      1.0E-8
D_CONVERGENCE      1.0E-8
DIIS_MAX_VECS      400
MBIS_MAXITER       8000
guess              read
}

E, wfn = energy('b3lyp', restart_file='last_wfn', return_wfn=True)
properties('b3lyp','MBIS_CHARGES', wfn=wfn)
wfn.to_file('last_wfn')
--------------------------------------------------------------------------

    Molecular point group: c2v
  Charge       = 1
  Multiplicity = 3
  Basis Set: CC-PVTZ
    Blend: CC-PVTZ
  Basis Set: (CC-PVTZ AUX)
    Blend: CC-PVTZ-JKFIT
  @DF-UKS Final Energy:   -75.28043941269073
    Total Energy =                        -75.2804394126907255
 Dipole X            :          0.0000000            0.0000000            0.0000000
 Dipole Y            :          0.0000000            0.0000000            0.0000000
 Dipole Z            :         -0.0140543            0.8855145            0.8714602
 Magnitude           :                                                    0.8714602
    Molecular point group: c2v

    Geometry (in Angstrom), charge = 1, multiplicity = 3:

       Center              X                  Y                   Z               Mass
    ------------   -----------------  -----------------  -----------------  -----------------
         O            0.000000000000     0.000000000000    -0.059536324582    15.994914619570
         H            0.000000000000     0.000000000000     0.944884675418     1.007825032230

  Charge       = 1
  Multiplicity = 3
  Basis Set: CC-PVTZ
    Blend: CC-PVTZ
  Basis Set: (CC-PVTZ AUX)
    Blend: CC-PVTZ-JKFIT

    Orbital Energies [Eh]
    ---------------------

    Alpha Occupied:

       1A1   -19.820533     2A1    -1.574344     3A1    -0.987604
       1B2    -0.951654     1B1    -0.951654

    Alpha Virtual:

       4A1    -0.312348     5A1    -0.000285     2B1     0.134471
       2B2     0.134471     6A1     0.167755     3B1     0.322611
       3B2     0.322611     7A1     0.474375     8A1     0.832000
       9A1     0.920668     1A2     0.920668     4B2     1.272545
       4B1     1.272545    10A1     1.485719    11A1     1.964746
      12A1     2.750845     2A2     2.750845     5B1     2.801549
       5B2     2.801549     6B1     3.160122     6B2     3.160122
      13A1     3.189671     7B1     3.554984     7B2     3.554984
      14A1     3.740541    15A1     4.191048     8B2     4.499114
       8B1     4.499114    16A1     4.763861     3A2     4.763861
       4A2     5.527281    17A1     5.527281     9B2     5.650715
       9B1     5.650715    18A1     5.761095    10B2     6.011757
      10B1     6.011757    19A1     6.384041    20A1     9.334732

    Beta Occupied:

       1A1   -19.764340     2A1    -1.421969     3A1    -0.933064

    Beta Virtual:

       1B1    -0.648657     1B2    -0.648657     4A1    -0.295608
       5A1     0.007264     6A1     0.181381     2B1     0.201907
       2B2     0.201907     3B1     0.337162     3B2     0.337162
       7A1     0.527591     8A1     0.849369     9A1     1.032469
       1A2     1.032469     4B2     1.326278     4B1     1.326278
      10A1     1.513838    11A1     1.973736    12A1     2.759677
       2A2     2.759677     5B1     2.879722     5B2     2.879722
      13A1     3.200368     6B1     3.204098     6B2     3.204098
       7B1     3.597676     7B2     3.597676    14A1     3.780025
      15A1     4.249210     8B2     4.651298     8B1     4.651298
      16A1     4.860815     3A2     4.860816     4A2     5.739860
      17A1     5.739861     9B2     5.753380     9B1     5.753380
      18A1     5.812744    10B2     6.080679    10B1     6.080679
      19A1     6.446926    20A1     9.408027

    Final Occupation by Irrep:
             A1    A2    B1    B2
    DOCC [     3,    0,    0,    0 ]
    SOCC [     0,    0,    1,    1 ]
    NA   [     3,    0,    1,    1 ]
    NB   [     3,    0,    0,    0 ]

  @DF-UKS Final Energy:   -75.28043941263461

   => Energetics <=

    Nuclear Repulsion Energy =              4.2147841247445044
    One-Electron Energy =                -107.6439299762355972
    Two-Electron Energy =                  35.0237668237054365
    DFT Exchange-Correlation Energy =      -6.8750603848489682
    Empirical Dispersion Energy =           0.0000000000000000
    VV10 Nonlocal Energy =                  0.0000000000000000
    Total Energy =                        -75.2804394126346068

  UHF NO Occupations:
  HONO-2 :    3 A1 1.9982622
  HONO-1 :    1 B2 1.0000000
  HONO-0 :    1 B1 1.0000000
  LUNO+0 :    4 A1 0.0017378
  LUNO+1 :    5 A1 0.0006161
  LUNO+2 :    6 A1 0.0000015
  LUNO+3 :    7 A1 0.0000000

Computation Completed

Properties will be evaluated at   0.000000,   0.000000,   0.000000 [a0]

Properties computed using the B3LYP density matrix

 Multipole Moments:

 ------------------------------------------------------------------------------------
     Multipole            Electronic (a.u.)      Nuclear  (a.u.)        Total (a.u.)
 ------------------------------------------------------------------------------------

 L = 1.  Multiply by 2.5417464519 to convert [e a0] to [Debye]
 Dipole X            :          0.0000000            0.0000000            0.0000000
 Dipole Y            :          0.0000000            0.0000000            0.0000000
 Dipole Z            :         -0.0140543            0.8855145            0.8714602
 Magnitude           :                                                    0.8714602

 L = 2.  Multiply by 1.3450342976 to convert [e a0^2] to [Debye ang]
 Quadrupole XX       :         -3.0261550            0.0000000           -3.0261550
 Quadrupole XY       :          0.0000000            0.0000000            0.0000000
 Quadrupole XZ       :          0.0000000            0.0000000            0.0000000
 Quadrupole YY       :         -3.0261550            0.0000000           -3.0261550
 Quadrupole YZ       :          0.0000000            0.0000000            0.0000000
 Quadrupole ZZ       :         -4.9176698            3.2895351           -1.6281347
 Traceless XX        :          0.6305049           -1.0965117           -0.4660068
 Traceless YY        :          0.6305049           -1.0965117           -0.4660068
 Traceless ZZ        :         -1.2610098            2.1930234            0.9320136

 ------------------------------------------------------------------------------------
  ==> Computing MBIS Charges <==

  Electron Count from Grid (Expected Number):  8.00000 ( 8.00000)
  Difference:  0.00000

  MBIS Charges: (a.u.)
   Center  Symbol  Z      Pop.       Charge
      1       O    8    7.513636    0.486364
      2       H    1    0.486364    0.513636

  MBIS Dipoles: [e a0]
   Center  Symbol  Z        X           Y           Z
      1       O    8   -0.000000   -0.000000   -0.040744
      2       H    1   -0.000000    0.000000    0.049788

  MBIS Quadrupoles: [e a0^2]
   Center  Symbol  Z      XX        XY        XZ        YY        YZ        ZZ
      1       O    8   -2.8255    0.0000   -0.0000   -2.8255   -0.0000   -3.2678
      2       H    1   -0.2007   -0.0000    0.0000   -0.2007    0.0000   -0.1911

  MBIS Octupoles: [e a0^3]
   Center  Symbol  Z      XXX       XXY       XXZ       XYY       XYZ       XZZ       YYY       YYZ       YZZ       ZZZ
      1       O    8   -0.0000   -0.0000   -0.0197   -0.0000   -0.0000    0.0000   -0.0000   -0.0197   -0.0000   -0.1154
      2       H    1   -0.0000    0.0000    0.0083   -0.0000    0.0000    0.0000    0.0000    0.0083    0.0000    0.0373

  MBIS Radial Moments:
   Center  Symbol  Z      [a0^2]      [a0^3]      [a0^4]
      1       O    8    8.918756   15.163230   30.861562
      2       H    1    0.592426    0.922303    1.716695

  MBIS Valence Widths: [a0]
   Center  Symbol  Z     Width
      1       O    8    0.357439
      2       H    1    0.322694

*** tstop() called on Mac.lan at Sun Aug 10 18:28:25 2025
Module time:
	user time   =       3.30 seconds =       0.05 minutes
	system time =       1.80 seconds =       0.03 minutes
	total time  =          0 seconds =       0.00 minutes
Total time:
	user time   =      14.97 seconds =       0.25 minutes
	system time =       3.87 seconds =       0.06 minutes
	total time  =          1 seconds =       0.02 minutes

    Psi4 stopped on: Sunday, 10 August 2025 06:28PM
    Psi4 wall time for execution: 0:00:01.90

*** Psi4 exiting successfully. Buy a developer a beer!
