                               Psi4 1.9.1 release

  ==> Input File <==

--------------------------------------------------------------------------
molecule {
1 3
O           0.000000           0.000000           0.000000
H           0.000000           0.000000           1.366776
}

set {
basis              cc-pvtz
reference          uks
maxiter            500
DAMPING_PERCENTAGE 1
E_CONVERGENCE      1.0E-8
D_CONVERGENCE      1.0E-8
DIIS_MAX_VECS      400
MBIS_MAXITER       8000
guess              read
}

E, wfn = energy('b3lyp', restart_file='last_wfn', return_wfn=True)
properties('b3lyp','MBIS_CHARGES', wfn=wfn)
wfn.to_file('last_wfn')
--------------------------------------------------------------------------

    Molecular point group: c2v
  Charge       = 1
  Multiplicity = 3
  Basis Set: CC-PVTZ
    Blend: CC-PVTZ
  Basis Set: (CC-PVTZ AUX)
    Blend: CC-PVTZ-JKFIT
  @DF-UKS Final Energy:   -75.24857978387207
    Total Energy =                        -75.2485797838720742
 Dipole X            :          0.0000000            0.0000000            0.0000000
 Dipole Y            :          0.0000000            0.0000000            0.0000000
 Dipole Z            :          0.0616439            1.2049727            1.2666167
 Magnitude           :                                                    1.2666167
    Molecular point group: c2v

    Geometry (in Angstrom), charge = 1, multiplicity = 3:

       Center              X                  Y                   Z               Mass
    ------------   -----------------  -----------------  -----------------  -----------------
         O            0.000000000000     0.000000000000    -0.081014653783    15.994914619570
         H            0.000000000000     0.000000000000     1.285761346217     1.007825032230

  Charge       = 1
  Multiplicity = 3
  Basis Set: CC-PVTZ
    Blend: CC-PVTZ
  Basis Set: (CC-PVTZ AUX)
    Blend: CC-PVTZ-JKFIT

    Orbital Energies [Eh]
    ---------------------

    Alpha Occupied:

       1A1   -19.779234     2A1    -1.485025     1B2    -0.901836
       1B1    -0.901836     3A1    -0.892257

    Alpha Virtual:

       4A1    -0.435562     5A1    -0.030911     2B2     0.132640
       2B1     0.132640     6A1     0.222801     3B1     0.333511
       3B2     0.333511     7A1     0.432482     8A1     0.683819
       9A1     0.966417     1A2     0.966417     4B1     1.124853
       4B2     1.124853    10A1     1.578344    11A1     1.970821
      12A1     2.706876     2A2     2.777361    13A1     2.777364
       5B1     2.789483     5B2     2.789483     6B1     3.139801
       6B2     3.139801     7B1     3.268602     7B2     3.268602
      14A1     3.390396    15A1     4.198308     8B2     4.546177
       8B1     4.546177     3A2     4.595257    16A1     4.595257
       9B2     4.904554     9B1     4.904554    17A1     5.326219
      18A1     5.554311     4A2     5.554312    10B1     5.817986
      10B2     5.817986    19A1     6.446490    20A1     7.097636

    Beta Occupied:

       1A1   -19.721375     2A1    -1.318463     3A1    -0.841210

    Beta Virtual:

       1B2    -0.599694     1B1    -0.599694     4A1    -0.431961
       5A1    -0.036789     2B2     0.181197     2B1     0.181197
       6A1     0.244685     3B2     0.352919     3B1     0.352919
       7A1     0.470952     8A1     0.709748     1A2     1.079466
       9A1     1.079467     4B1     1.180403     4B2     1.180403
      10A1     1.611070    11A1     1.945826    12A1     2.722132
       2A2     2.757272    13A1     2.757276     5B1     2.818504
       5B2     2.818504     6B1     3.217509     6B2     3.217509
       7B1     3.274806     7B2     3.274806    14A1     3.389421
      15A1     4.230564    16A1     4.696498     3A2     4.696498
       8B2     4.697591     8B1     4.697591     9B1     4.980732
       9B2     4.980732    17A1     5.382126    18A1     5.769065
       4A2     5.769067    10B1     5.931102    10B2     5.931102
      19A1     6.526456    20A1     7.193340

    Final Occupation by Irrep:
             A1    A2    B1    B2
    DOCC [     3,    0,    0,    0 ]
    SOCC [     0,    0,    1,    1 ]
    NA   [     3,    0,    1,    1 ]
    NB   [     3,    0,    0,    0 ]

  @DF-UKS Final Energy:   -75.24857978380646

   => Energetics <=

    Nuclear Repulsion Energy =              3.0973749066123490
    One-Electron Energy =                -105.9565198125443146
    Two-Electron Energy =                  34.4175067653906765
    DFT Exchange-Correlation Energy =      -6.8069416432651559
    Empirical Dispersion Energy =           0.0000000000000000
    VV10 Nonlocal Energy =                  0.0000000000000000
    Total Energy =                        -75.2485797838064627

  UHF NO Occupations:
  HONO-2 :    3 A1 1.9926048
  HONO-1 :    1 B2 1.0000000
  HONO-0 :    1 B1 1.0000000
  LUNO+0 :    4 A1 0.0073952
  LUNO+1 :    5 A1 0.0008879
  LUNO+2 :    6 A1 0.0000014
  LUNO+3 :    7 A1 0.0000000

Computation Completed

Properties will be evaluated at   0.000000,   0.000000,   0.000000 [a0]

Properties computed using the B3LYP density matrix

 Multipole Moments:

 ------------------------------------------------------------------------------------
     Multipole            Electronic (a.u.)      Nuclear  (a.u.)        Total (a.u.)
 ------------------------------------------------------------------------------------

 L = 1.  Multiply by 2.5417464519 to convert [e a0] to [Debye]
 Dipole X            :          0.0000000            0.0000000            0.0000000
 Dipole Y            :          0.0000000            0.0000000            0.0000000
 Dipole Z            :          0.0616439            1.2049727            1.2666167
 Magnitude           :                                                    1.2666167

 L = 2.  Multiply by 1.3450342976 to convert [e a0^2] to [Debye ang]
 Quadrupole XX       :         -3.1998669            0.0000000           -3.1998669
 Quadrupole XY       :          0.0000000            0.0000000            0.0000000
 Quadrupole XZ       :          0.0000000            0.0000000            0.0000000
 Quadrupole YY       :         -3.1998669            0.0000000           -3.1998669
 Quadrupole YZ       :          0.0000000            0.0000000            0.0000000
 Quadrupole ZZ       :         -6.0225182            6.0911268            0.0686086
 Traceless XX        :          0.9408838           -2.0303756           -1.0894918
 Traceless YY        :          0.9408838           -2.0303756           -1.0894918
 Traceless ZZ        :         -1.8817676            4.0607512            2.1789837

 ------------------------------------------------------------------------------------
  ==> Computing MBIS Charges <==

  Electron Count from Grid (Expected Number):  8.00000 ( 8.00000)
  Difference: -0.00000

  MBIS Charges: (a.u.)
   Center  Symbol  Z      Pop.       Charge
      1       O    8    7.576792    0.423208
      2       H    1    0.423208    0.576792

  MBIS Dipoles: [e a0]
   Center  Symbol  Z        X           Y           Z
      1       O    8   -0.000000    0.000000   -0.145328
      2       H    1    0.000000    0.000000    0.075282

  MBIS Quadrupoles: [e a0^2]
   Center  Symbol  Z      XX        XY        XZ        YY        YZ        ZZ
      1       O    8   -2.9482    0.0000   -0.0000   -2.9482   -0.0000   -3.5271
      2       H    1   -0.2517   -0.0000    0.0000   -0.2517    0.0000   -0.2297

  MBIS Octupoles: [e a0^3]
   Center  Symbol  Z      XXX       XXY       XXZ       XYY       XYZ       XZZ       YYY       YYZ       YZZ       ZZZ
      1       O    8   -0.0000   -0.0000   -0.1199    0.0000   -0.0000   -0.0000   -0.0000   -0.1199   -0.0000   -0.4718
      2       H    1    0.0000    0.0000    0.0340    0.0000    0.0000    0.0000    0.0000    0.0340    0.0000    0.1013

  MBIS Radial Moments:
   Center  Symbol  Z      [a0^2]      [a0^3]      [a0^4]
      1       O    8    9.423571   16.469518   34.408720
      2       H    1    0.732966    1.341663    2.919172

  MBIS Valence Widths: [a0]
   Center  Symbol  Z     Width
      1       O    8    0.365536
      2       H    1    0.386561

*** tstop() called on Mac.lan at Sun Aug 10 18:30:24 2025
Module time:
	user time   =       2.45 seconds =       0.04 minutes
	system time =       2.36 seconds =       0.04 minutes
	total time  =          1 seconds =       0.02 minutes
Total time:
	user time   =      20.24 seconds =       0.34 minutes
	system time =       5.19 seconds =       0.09 minutes
	total time  =          3 seconds =       0.05 minutes

    Psi4 stopped on: Sunday, 10 August 2025 06:30PM
    Psi4 wall time for execution: 0:00:02.67

*** Psi4 exiting successfully. Buy a developer a beer!
