                               Psi4 1.9.1 release

  ==> Input File <==

--------------------------------------------------------------------------
molecule {
1 4
C           0.000000           0.000000           0.000000
C           0.000000           0.000000           1.088568
}

set {
basis              cc-pvtz
reference          uks
maxiter            500
DAMPING_PERCENTAGE 1
E_CONVERGENCE      1.0E-8
D_CONVERGENCE      1.0E-8
DIIS_MAX_VECS      400
MBIS_MAXITER       8000
guess              read
}

E, wfn = energy('b3lyp', restart_file='last_wfn', return_wfn=True)
properties('b3lyp','MBIS_CHARGES', wfn=wfn)
wfn.to_file('last_wfn')
--------------------------------------------------------------------------

    Molecular point group: d2h
  Charge       = 1
  Multiplicity = 4
  Basis Set: CC-PVTZ
    Blend: CC-PVTZ
  Basis Set: (CC-PVTZ AUX)
    Blend: CC-PVTZ-JKFIT
  @DF-UKS Final Energy:   -75.41316195630556
    Total Energy =                        -75.4131619563055438
 Dipole X            :          0.0000000            0.0000000            0.0000000
 Dipole Y            :          0.0000000            0.0000000            0.0000000
 Dipole Z            :          0.0000000            0.0000000            0.0000000
 Magnitude           :                                                    0.0000000
    Molecular point group: d2h

    Geometry (in Angstrom), charge = 1, multiplicity = 4:

       Center              X                  Y                   Z               Mass
    ------------   -----------------  -----------------  -----------------  -----------------
         C            0.000000000000     0.000000000000    -0.544284000000    12.000000000000
         C            0.000000000000     0.000000000000     0.544284000000    12.000000000000

  Charge       = 1
  Multiplicity = 4
  Basis Set: CC-PVTZ
    Blend: CC-PVTZ
  Basis Set: (CC-PVTZ AUX)
    Blend: CC-PVTZ-JKFIT

    Orbital Energies [Eh]
    ---------------------

    Alpha Occupied:

       1Ag   -10.668987     1B1u  -10.662340     2Ag    -1.259528
       2B1u   -0.816412     1B2u   -0.790419     3Ag    -0.757519
       1B3u   -0.748421

    Alpha Virtual:

       1B3g   -0.337650     1B2g   -0.308035     3B1u   -0.042039
       2B2u   -0.022010     2B3u   -0.009994     4Ag     0.008640
       5Ag     0.027646     2B3g    0.116720     2B2g    0.126913
       1B1g    0.222867     6Ag     0.223605     4B1u    0.258298
       5B1u    0.450884     3B2u    0.454312     3B3u    0.477131
       1Au     0.571269     6B1u    0.571927     7Ag     0.801438
       3B3g    0.825916     3B2g    0.839491     7B1u    1.272555
       4B2u    1.491085     4B3u    1.520739     8Ag     1.751063
       4B3g    1.895302     4B2g    1.924096     8B1u    1.975598
       2B1g    2.063086     9Ag     2.064370     5B2u    2.065515
       5B3u    2.065854     6B2u    2.156121     6B3u    2.189407
      10Ag     2.374674     5B3g    2.527064     5B2g    2.546460
       3B1g    2.558858    11Ag     2.558920     6B3g    2.572536
       6B2g    2.573415     9B1u    2.606475     2Au     2.607165
      10B1u    3.063456    12Ag     3.140057     7B2u    3.208290
       7B3u    3.235683     3Au     3.355007    11B1u    3.355298
      12B1u    3.983000     7B3g    4.557345     7B2g    4.589106
      13Ag     5.163351    13B1u   15.411482

    Beta Occupied:

       1Ag   -10.635378     1B1u  -10.629300     2Ag    -1.175593
       1B3u   -0.706200

    Beta Virtual:

       1B2u   -0.592189     2B1u   -0.559706     3Ag    -0.498928
       1B2g   -0.244746     1B3g   -0.211204     3B1u   -0.012291
       2B3u   -0.003185     2B2u    0.007161     4Ag     0.036588
       5Ag     0.095792     2B2g    0.143086     2B3g    0.159700
       1B1g    0.258370     6Ag     0.263015     4B1u    0.331664
       5B1u    0.517036     3B3u    0.530371     3B2u    0.545530
       1Au     0.608977     6B1u    0.615320     3B2g    0.873247
       7Ag     0.877205     3B3g    0.888314     7B1u    1.357414
       4B3u    1.543728     4B2u    1.558877     8Ag     1.814303
       4B2g    1.950372     4B3g    1.961970     8B1u    2.067740
       2B1g    2.113508     5B3u    2.117649     9Ag     2.119736
       5B2u    2.120743     6B3u    2.260356     6B2u    2.286035
      10Ag     2.534326     5B2g    2.630601     5B3g    2.634640
       3B1g    2.653494     6B2g    2.654233    11Ag     2.666392
       6B3g    2.690248     2Au     2.697257     9B1u    2.709558
      10B1u    3.203863    12Ag     3.229632     7B3u    3.323766
       7B2u    3.352313     3Au     3.422251    11B1u    3.432835
      12B1u    4.079483     7B2g    4.650524     7B3g    4.676421
      13Ag     5.228671    13B1u   15.470725

    Final Occupation by Irrep:
             Ag   B1g   B2g   B3g    Au   B1u   B2u   B3u
    DOCC [     2,    0,    0,    0,    0,    1,    0,    1 ]
    SOCC [     1,    0,    0,    0,    0,    1,    1,    0 ]
    NA   [     3,    0,    0,    0,    0,    2,    1,    1 ]
    NB   [     2,    0,    0,    0,    0,    1,    0,    1 ]

  @DF-UKS Final Energy:   -75.41316195582934

   => Energetics <=

    Nuclear Repulsion Energy =             17.5004038187049424
    One-Electron Energy =                -130.8648384543086820
    Two-Electron Energy =                  46.4345307138534409
    DFT Exchange-Correlation Energy =      -8.4832580340790429
    Empirical Dispersion Energy =           0.0000000000000000
    VV10 Nonlocal Energy =                  0.0000000000000000
    Total Energy =                        -75.4131619558293522

  UHF NO Occupations:
  HONO-2 :    1B2u 1.0000000
  HONO-1 :    3 Ag 1.0000000
  HONO-0 :    2B1u 1.0000000
  LUNO+0 :    2B3u 0.0005816
  LUNO+1 :    4 Ag 0.0004714
  LUNO+2 :    3B1u 0.0000011
  LUNO+3 :    5 Ag 0.0000007

Computation Completed

Properties will be evaluated at   0.000000,   0.000000,   0.000000 [a0]

Properties computed using the B3LYP density matrix

 Multipole Moments:

 ------------------------------------------------------------------------------------
     Multipole            Electronic (a.u.)      Nuclear  (a.u.)        Total (a.u.)
 ------------------------------------------------------------------------------------

 L = 1.  Multiply by 2.5417464519 to convert [e a0] to [Debye]
 Dipole X            :          0.0000000            0.0000000            0.0000000
 Dipole Y            :          0.0000000            0.0000000            0.0000000
 Dipole Z            :          0.0000000            0.0000000            0.0000000
 Magnitude           :                                                    0.0000000

 L = 2.  Multiply by 1.3450342976 to convert [e a0^2] to [Debye ang]
 Quadrupole XX       :         -6.6934829            0.0000000           -6.6934829
 Quadrupole XY       :          0.0000000            0.0000000            0.0000000
 Quadrupole XZ       :          0.0000000            0.0000000            0.0000000
 Quadrupole YY       :         -5.5902796            0.0000000           -5.5902796
 Quadrupole YZ       :          0.0000000            0.0000000            0.0000000
 Quadrupole ZZ       :        -16.7237124           12.6949243           -4.0287881
 Traceless XX        :          2.9756754           -4.2316414           -1.2559660
 Traceless YY        :          4.0788787           -4.2316414           -0.1527628
 Traceless ZZ        :         -7.0545541            8.4632829            1.4087288

 ------------------------------------------------------------------------------------
  ==> Computing MBIS Charges <==

  Electron Count from Grid (Expected Number): 11.00000 (11.00000)
  Difference: -0.00000

  MBIS Charges: (a.u.)
   Center  Symbol  Z      Pop.       Charge
      1       C    6    5.500000    0.500000
      2       C    6    5.500000    0.500000

  MBIS Dipoles: [e a0]
   Center  Symbol  Z        X           Y           Z
      1       C    6   -0.000000    0.000000   -0.339372
      2       C    6   -0.000000   -0.000000    0.339372

  MBIS Quadrupoles: [e a0^2]
   Center  Symbol  Z      XX        XY        XZ        YY        YZ        ZZ
      1       C    6   -3.3467   -0.0000   -0.0000   -2.7951   -0.0000   -3.2415
      2       C    6   -3.3467   -0.0000    0.0000   -2.7951    0.0000   -3.2415

  MBIS Octupoles: [e a0^3]
   Center  Symbol  Z      XXX       XXY       XXZ       XYY       XYZ       XZZ       YYY       YYZ       YZZ       ZZZ
      1       C    6   -0.0000    0.0000   -0.3748   -0.0000   -0.0000   -0.0000    0.0000   -0.2103    0.0000   -0.4602
      2       C    6   -0.0000    0.0000    0.3748   -0.0000    0.0000   -0.0000    0.0000    0.2103    0.0000    0.4602

  MBIS Radial Moments:
   Center  Symbol  Z      [a0^2]      [a0^3]      [a0^4]
      1       C    6    9.383352   19.908752   50.485566
      2       C    6    9.383352   19.908752   50.485566

  MBIS Valence Widths: [a0]
   Center  Symbol  Z     Width
      1       C    6    0.453178
      2       C    6    0.453178

*** tstop() called on Mac.lan at Sun Aug 10 18:15:15 2025
Module time:
	user time   =       4.08 seconds =       0.07 minutes
	system time =       2.17 seconds =       0.04 minutes
	total time  =          1 seconds =       0.02 minutes
Total time:
	user time   =      16.03 seconds =       0.27 minutes
	system time =       4.18 seconds =       0.07 minutes
	total time  =          2 seconds =       0.03 minutes

    Psi4 stopped on: Sunday, 10 August 2025 06:15PM
    Psi4 wall time for execution: 0:00:01.97

*** Psi4 exiting successfully. Buy a developer a beer!
