                               Psi4 1.9.1 release

  ==> Input File <==

--------------------------------------------------------------------------
molecule {
1 4
C           0.000000           0.000000           0.000000
C           0.000000           0.000000           0.746011
}

set {
basis              cc-pvtz
reference          uks
maxiter            500
DAMPING_PERCENTAGE 1
E_CONVERGENCE      1.0E-8
D_CONVERGENCE      1.0E-8
DIIS_MAX_VECS      400
MBIS_MAXITER       8000
guess              read
}

E, wfn = energy('b3lyp', restart_file='last_wfn', return_wfn=True)
properties('b3lyp','MBIS_CHARGES', wfn=wfn)
wfn.to_file('last_wfn')
--------------------------------------------------------------------------

    Molecular point group: d2h
  Charge       = 1
  Multiplicity = 4
  Basis Set: CC-PVTZ
    Blend: CC-PVTZ
  Basis Set: (CC-PVTZ AUX)
    Blend: CC-PVTZ-JKFIT
  @DF-UKS Final Energy:   -74.24701628538199
    Total Energy =                        -74.2470162853819886
 Dipole X            :          0.0000000            0.0000000            0.0000000
 Dipole Y            :          0.0000000            0.0000000            0.0000000
 Dipole Z            :          0.0000000            0.0000000            0.0000000
 Magnitude           :                                                    0.0000000
    Molecular point group: d2h

    Geometry (in Angstrom), charge = 1, multiplicity = 4:

       Center              X                  Y                   Z               Mass
    ------------   -----------------  -----------------  -----------------  -----------------
         C            0.000000000000     0.000000000000    -0.373005500000    12.000000000000
         C            0.000000000000     0.000000000000     0.373005500000    12.000000000000

  Charge       = 1
  Multiplicity = 4
  Basis Set: CC-PVTZ
    Blend: CC-PVTZ
  Basis Set: (CC-PVTZ AUX)
    Blend: CC-PVTZ-JKFIT

    Orbital Energies [Eh]
    ---------------------

    Alpha Occupied:

       1Ag   -10.781751     1B1u  -10.653818     2Ag    -1.284765
       1B2u   -0.983496     1B3u   -0.925575     3Ag    -0.783123
       2B1u   -0.762899

    Alpha Virtual:

       1B3g   -0.189815     1B2g   -0.165347     2B2u   -0.068335
       2B3u   -0.055841     3B1u   -0.045776     4Ag    -0.015670
       5Ag     0.053579     2B3g    0.166037     2B2g    0.181933
       1B1g    0.217914     6Ag     0.218878     4B1u    0.373027
       3B2u    0.569924     3B3u    0.587964     5B1u    0.620570
       1Au     0.633555     6B1u    0.639964     7Ag     0.724630
       3B3g    0.869682     3B2g    0.886325     4B2u    1.260902
       4B3u    1.299841     8Ag     1.819034     7B1u    1.920488
       5B2u    2.016371     5B3u    2.016599     2B1g    2.048687
       9Ag     2.050630     4B3g    2.090537     4B2g    2.118416
       8B1u    2.274993     6B2u    2.297102     6B3u    2.327283
       2Au     2.448462     9B1u    2.449164    10Ag     2.556102
       3B1g    2.746661    11Ag     2.747555     5B3g    2.758760
       5B2g    2.775194     6B3g    2.785099     6B2g    2.797927
      12Ag     3.115638    10B1u    3.438435     7B2u    3.982108
       7B3u    4.018669     3Au     4.149370    11B1u    4.149939
      13Ag     5.068120     7B3g    5.344753     7B2g    5.377338
      12B1u    6.185715    13B1u   19.680526

    Beta Occupied:

       1Ag   -10.739319     1B1u  -10.615645     2Ag    -1.173454
       1B3u   -0.880156

    Beta Virtual:

       1B2u   -0.746628     3Ag    -0.504763     2B1u   -0.504437
       1B2g   -0.115792     1B3g   -0.099938     2B3u   -0.049726
       2B2u   -0.042487     3B1u   -0.013488     4Ag     0.023499
       5Ag     0.111770     2B2g    0.213476     2B3g    0.232747
       1B1g    0.251130     6Ag     0.254772     4B1u    0.421187
       3B3u    0.636551     3B2u    0.644172     1Au     0.662207
       5B1u    0.666016     6B1u    0.702227     7Ag     0.801289
       3B2g    0.918521     3B3g    0.932707     4B3u    1.322751
       4B2u    1.336243     8Ag     1.886839     5B3u    2.062429
       5B2u    2.064500     7B1u    2.071944     2B1g    2.108772
       9Ag     2.115264     4B2g    2.153724     4B3g    2.165812
       8B1u    2.377179     6B3u    2.442333     6B2u    2.474511
       2Au     2.535373     9B1u    2.547243    10Ag     2.708309
       5B2g    2.834765     3B1g    2.835642     5B3g    2.837869
      11Ag     2.847221     6B2g    2.888796     6B3g    2.912422
      12Ag     3.202634    10B1u    3.555935     7B3u    4.085190
       7B2u    4.102713     3Au     4.218459    11B1u    4.227417
      13Ag     5.168441     7B2g    5.448766     7B3g    5.473864
      12B1u    6.291321    13B1u   19.741761

    Final Occupation by Irrep:
             Ag   B1g   B2g   B3g    Au   B1u   B2u   B3u
    DOCC [     2,    0,    0,    0,    0,    1,    0,    1 ]
    SOCC [     1,    0,    0,    0,    0,    1,    1,    0 ]
    NA   [     3,    0,    0,    0,    0,    2,    1,    1 ]
    NB   [     2,    0,    0,    0,    0,    1,    0,    1 ]

  @DF-UKS Final Energy:   -74.24701628531548

   => Energetics <=

    Nuclear Repulsion Energy =             25.5363253143988445
    One-Electron Energy =                -143.5812147405300720
    Two-Electron Energy =                  52.6983558924748294
    DFT Exchange-Correlation Energy =      -8.9004827516590979
    Empirical Dispersion Energy =           0.0000000000000000
    VV10 Nonlocal Energy =                  0.0000000000000000
    Total Energy =                        -74.2470162853154818

  UHF NO Occupations:
  HONO-2 :    1B2u 1.0000000
  HONO-1 :    3 Ag 1.0000000
  HONO-0 :    2B1u 1.0000000
  LUNO+0 :    4 Ag 0.0007563
  LUNO+1 :    2B3u 0.0002784
  LUNO+2 :    3B1u 0.0000018
  LUNO+3 :    5 Ag 0.0000017

Computation Completed

Properties will be evaluated at   0.000000,   0.000000,   0.000000 [a0]

Properties computed using the B3LYP density matrix

 Multipole Moments:

 ------------------------------------------------------------------------------------
     Multipole            Electronic (a.u.)      Nuclear  (a.u.)        Total (a.u.)
 ------------------------------------------------------------------------------------

 L = 1.  Multiply by 2.5417464519 to convert [e a0] to [Debye]
 Dipole X            :          0.0000000            0.0000000            0.0000000
 Dipole Y            :          0.0000000            0.0000000            0.0000000
 Dipole Z            :          0.0000000            0.0000000            0.0000000
 Magnitude           :                                                    0.0000000

 L = 2.  Multiply by 1.3450342976 to convert [e a0^2] to [Debye ang]
 Quadrupole XX       :         -5.6455262            0.0000000           -5.6455262
 Quadrupole XY       :          0.0000000            0.0000000            0.0000000
 Quadrupole XZ       :          0.0000000            0.0000000            0.0000000
 Quadrupole YY       :         -4.8573017            0.0000000           -4.8573017
 Quadrupole YZ       :          0.0000000            0.0000000            0.0000000
 Quadrupole ZZ       :        -10.5639010            5.9622400           -4.6016610
 Traceless XX        :          1.3767168           -1.9874133           -0.6106965
 Traceless YY        :          2.1649412           -1.9874133            0.1775279
 Traceless ZZ        :         -3.5416580            3.9748266            0.4331686

 ------------------------------------------------------------------------------------
  ==> Computing MBIS Charges <==

  Electron Count from Grid (Expected Number): 11.00000 (11.00000)
  Difference: -0.00000

  MBIS Charges: (a.u.)
   Center  Symbol  Z      Pop.       Charge
      1       C    6    5.500000    0.500000
      2       C    6    5.500000    0.500000

  MBIS Dipoles: [e a0]
   Center  Symbol  Z        X           Y           Z
      1       C    6   -0.000000    0.000000   -0.191591
      2       C    6   -0.000000    0.000000    0.191591

  MBIS Quadrupoles: [e a0^2]
   Center  Symbol  Z      XX        XY        XZ        YY        YZ        ZZ
      1       C    6   -2.8228    0.0000    0.0000   -2.4287   -0.0000   -2.8194
      2       C    6   -2.8228    0.0000   -0.0000   -2.4287    0.0000   -2.8194

  MBIS Octupoles: [e a0^3]
   Center  Symbol  Z      XXX       XXY       XXZ       XYY       XYZ       XZZ       YYY       YYZ       YZZ       ZZZ
      1       C    6   -0.0000   -0.0000   -0.1261   -0.0000    0.0000   -0.0000    0.0000   -0.0293    0.0000    0.1483
      2       C    6   -0.0000   -0.0000    0.1261   -0.0000   -0.0000   -0.0000    0.0000    0.0293    0.0000   -0.1483

  MBIS Radial Moments:
   Center  Symbol  Z      [a0^2]      [a0^3]      [a0^4]
      1       C    6    8.070768   15.960781   37.930665
      2       C    6    8.070768   15.960781   37.930665

  MBIS Valence Widths: [a0]
   Center  Symbol  Z     Width
      1       C    6    0.415776
      2       C    6    0.415776

*** tstop() called on Mac.lan at Sun Aug 10 18:16:07 2025
Module time:
	user time   =       3.88 seconds =       0.06 minutes
	system time =       3.07 seconds =       0.05 minutes
	total time  =          1 seconds =       0.02 minutes
Total time:
	user time   =      17.50 seconds =       0.29 minutes
	system time =       5.03 seconds =       0.08 minutes
	total time  =          3 seconds =       0.05 minutes

    Psi4 stopped on: Sunday, 10 August 2025 06:16PM
    Psi4 wall time for execution: 0:00:02.23

*** Psi4 exiting successfully. Buy a developer a beer!
