                               Psi4 1.9.1 release

  ==> Input File <==

--------------------------------------------------------------------------
molecule {
1 3
O           0.000000           0.000000           0.000000
H           0.000000           0.000000           0.756494
}

set {
basis              cc-pvtz
reference          uks
maxiter            500
DAMPING_PERCENTAGE 1
E_CONVERGENCE      1.0E-8
D_CONVERGENCE      1.0E-8
DIIS_MAX_VECS      400
MBIS_MAXITER       8000
guess              read
}

E, wfn = energy('b3lyp', restart_file='last_wfn', return_wfn=True)
properties('b3lyp','MBIS_CHARGES', wfn=wfn)
wfn.to_file('last_wfn')
--------------------------------------------------------------------------

    Molecular point group: c2v
  Charge       = 1
  Multiplicity = 3
  Basis Set: CC-PVTZ
    Blend: CC-PVTZ
  Basis Set: (CC-PVTZ AUX)
    Blend: CC-PVTZ-JKFIT
  @DF-UKS Final Energy:   -75.18394625509391
    Total Energy =                        -75.1839462550939004
 Dipole X            :          0.0000000            0.0000000            0.0000000
 Dipole Y            :          0.0000000            0.0000000            0.0000000
 Dipole Z            :          0.0032316            0.6669379            0.6701695
 Magnitude           :                                                    0.6701695
    Molecular point group: c2v

    Geometry (in Angstrom), charge = 1, multiplicity = 3:

       Center              X                  Y                   Z               Mass
    ------------   -----------------  -----------------  -----------------  -----------------
         O            0.000000000000     0.000000000000    -0.044840631895    15.994914619570
         H            0.000000000000     0.000000000000     0.711653368105     1.007825032230

  Charge       = 1
  Multiplicity = 3
  Basis Set: CC-PVTZ
    Blend: CC-PVTZ
  Basis Set: (CC-PVTZ AUX)
    Blend: CC-PVTZ-JKFIT

    Orbital Energies [Eh]
    ---------------------

    Alpha Occupied:

       1A1   -19.837621     2A1    -1.687656     3A1    -1.059459
       1B2    -0.990159     1B1    -0.990159

    Alpha Virtual:

       4A1    -0.242417     5A1     0.114291     2B1     0.131443
       2B2     0.131443     6A1     0.139167     3B1     0.338812
       3B2     0.338812     7A1     0.424183     8A1     0.895711
       1A2     0.895711     9A1     1.109903     4B1     1.355907
       4B2     1.355907    10A1     1.425345    11A1     2.142744
       2A2     2.818223    12A1     2.818223     5B1     2.880439
       5B2     2.880439     6B1     3.097485     6B2     3.097485
      13A1     3.420000     7B1     3.800755     7B2     3.800755
      14A1     4.001620     8B2     4.464895     8B1     4.464895
      15A1     4.841157     3A2     5.099197    16A1     5.099197
      17A1     5.482678     4A2     5.482678     9B1     5.682174
       9B2     5.682174    18A1     6.560769    19A1     6.885328
      10B1     7.001932    10B2     7.001932    20A1    12.052952

    Beta Occupied:

       1A1   -19.781734     2A1    -1.547200     3A1    -0.993611

    Beta Virtual:

       1B2    -0.684600     1B1    -0.684600     4A1    -0.230396
       5A1     0.131725     6A1     0.151625     2B1     0.198387
       2B2     0.198387     3B1     0.359737     3B2     0.359737
       7A1     0.464953     8A1     1.008209     1A2     1.008209
       9A1     1.144386     4B1     1.407107     4B2     1.407107
      10A1     1.463445    11A1     2.159131     2A2     2.846402
      12A1     2.846402     5B1     2.950683     5B2     2.950683
       6B1     3.185265     6B2     3.185265    13A1     3.441137
       7B1     3.835819     7B2     3.835819    14A1     4.063571
       8B2     4.617482     8B1     4.617482    15A1     4.914137
      16A1     5.194986     3A2     5.194986    17A1     5.693798
       4A2     5.693798     9B1     5.771469     9B2     5.771469
      18A1     6.610182    19A1     6.922274    10B1     7.074642
      10B2     7.074642    20A1    12.114820

    Final Occupation by Irrep:
             A1    A2    B1    B2
    DOCC [     3,    0,    0,    0 ]
    SOCC [     0,    0,    1,    1 ]
    NA   [     3,    0,    1,    1 ]
    NB   [     3,    0,    0,    0 ]

  @DF-UKS Final Energy:   -75.18394625550671

   => Energetics <=

    Nuclear Repulsion Energy =              5.5961021308298546
    One-Electron Energy =                -109.6617513779115853
    Two-Electron Energy =                  35.8562990855866559
    DFT Exchange-Correlation Energy =      -6.9745960940116252
    Empirical Dispersion Energy =           0.0000000000000000
    VV10 Nonlocal Energy =                  0.0000000000000000
    Total Energy =                        -75.1839462555067115

  UHF NO Occupations:
  HONO-2 :    3 A1 1.9986935
  HONO-1 :    1 B1 1.0000000
  HONO-0 :    1 B2 1.0000000
  LUNO+0 :    4 A1 0.0013065
  LUNO+1 :    5 A1 0.0003118
  LUNO+2 :    6 A1 0.0000015
  LUNO+3 :    7 A1 0.0000000

Computation Completed

Properties will be evaluated at   0.000000,   0.000000,   0.000000 [a0]

Properties computed using the B3LYP density matrix

 Multipole Moments:

 ------------------------------------------------------------------------------------
     Multipole            Electronic (a.u.)      Nuclear  (a.u.)        Total (a.u.)
 ------------------------------------------------------------------------------------

 L = 1.  Multiply by 2.5417464519 to convert [e a0] to [Debye]
 Dipole X            :          0.0000000            0.0000000            0.0000000
 Dipole Y            :          0.0000000            0.0000000            0.0000000
 Dipole Z            :          0.0032316            0.6669379            0.6701695
 Magnitude           :                                                    0.6701695

 L = 2.  Multiply by 1.3450342976 to convert [e a0^2] to [Debye ang]
 Quadrupole XX       :         -2.8691635            0.0000000           -2.8691635
 Quadrupole XY       :          0.0000000            0.0000000            0.0000000
 Quadrupole XZ       :          0.0000000            0.0000000            0.0000000
 Quadrupole YY       :         -2.8691635            0.0000000           -2.8691635
 Quadrupole YZ       :          0.0000000            0.0000000            0.0000000
 Quadrupole ZZ       :         -4.1932735            1.8660098           -2.3272637
 Traceless XX        :          0.4413700           -0.6220033           -0.1806333
 Traceless YY        :          0.4413700           -0.6220033           -0.1806333
 Traceless ZZ        :         -0.8827400            1.2440066            0.3612665

 ------------------------------------------------------------------------------------
  ==> Computing MBIS Charges <==

  Electron Count from Grid (Expected Number):  8.00000 ( 8.00000)
  Difference: -0.00000

  MBIS Charges: (a.u.)
   Center  Symbol  Z      Pop.       Charge
      1       O    8    7.452593    0.547407
      2       H    1    0.547407    0.452593

  MBIS Dipoles: [e a0]
   Center  Symbol  Z        X           Y           Z
      1       O    8   -0.000000   -0.000000    0.074872
      2       H    1    0.000000   -0.000000    0.033021

  MBIS Quadrupoles: [e a0^2]
   Center  Symbol  Z      XX        XY        XZ        YY        YZ        ZZ
      1       O    8   -2.7139    0.0000    0.0000   -2.7139   -0.0000   -3.0722
      2       H    1   -0.1553   -0.0000    0.0000   -0.1553   -0.0000   -0.1536

  MBIS Octupoles: [e a0^3]
   Center  Symbol  Z      XXX       XXY       XXZ       XYY       XYZ       XZZ       YYY       YYZ       YZZ       ZZZ
      1       O    8    0.0000   -0.0000    0.0757   -0.0000   -0.0000    0.0000   -0.0000    0.0757   -0.0000    0.1550
      2       H    1    0.0000   -0.0000    0.0037    0.0000   -0.0000    0.0000   -0.0000    0.0037   -0.0000    0.0097

  MBIS Radial Moments:
   Center  Symbol  Z      [a0^2]      [a0^3]      [a0^4]
      1       O    8    8.500016   14.206573   28.502225
      2       H    1    0.464178    0.607156    0.954797

  MBIS Valence Widths: [a0]
   Center  Symbol  Z     Width
      1       O    8    0.349968
      2       H    1    0.268771

*** tstop() called on Mac.lan at Sun Aug 10 18:28:56 2025
Module time:
	user time   =       3.85 seconds =       0.06 minutes
	system time =       1.46 seconds =       0.02 minutes
	total time  =          0 seconds =       0.00 minutes
Total time:
	user time   =      14.00 seconds =       0.23 minutes
	system time =       2.95 seconds =       0.05 minutes
	total time  =          1 seconds =       0.02 minutes

    Psi4 stopped on: Sunday, 10 August 2025 06:28PM
    Psi4 wall time for execution: 0:00:01.69

*** Psi4 exiting successfully. Buy a developer a beer!
