                               Psi4 1.9.1 release

  ==> Input File <==

--------------------------------------------------------------------------
molecule {
1 3
O           0.000000           0.000000           0.000000
H           0.000000           0.000000           1.233277
}

set {
basis              cc-pvtz
reference          uks
maxiter            500
DAMPING_PERCENTAGE 1
E_CONVERGENCE      1.0E-8
D_CONVERGENCE      1.0E-8
DIIS_MAX_VECS      400
MBIS_MAXITER       8000
guess              read
}

E, wfn = energy('b3lyp', restart_file='last_wfn', return_wfn=True)
properties('b3lyp','MBIS_CHARGES', wfn=wfn)
wfn.to_file('last_wfn')
--------------------------------------------------------------------------

    Molecular point group: c2v
  Charge       = 1
  Multiplicity = 3
  Basis Set: CC-PVTZ
    Blend: CC-PVTZ
  Basis Set: (CC-PVTZ AUX)
    Blend: CC-PVTZ-JKFIT
  @DF-UKS Final Energy:   -75.26633715949227
    Total Energy =                        -75.2663371594922666
 Dipole X            :          0.0000000            0.0000000            0.0000000
 Dipole Y            :          0.0000000            0.0000000            0.0000000
 Dipole Z            :          0.0220853            1.0872778            1.1093631
 Magnitude           :                                                    1.1093631
    Molecular point group: c2v

    Geometry (in Angstrom), charge = 1, multiplicity = 3:

       Center              X                  Y                   Z               Mass
    ------------   -----------------  -----------------  -----------------  -----------------
         O            0.000000000000     0.000000000000    -0.073101597609    15.994914619570
         H            0.000000000000     0.000000000000     1.160175402391     1.007825032230

  Charge       = 1
  Multiplicity = 3
  Basis Set: CC-PVTZ
    Blend: CC-PVTZ
  Basis Set: (CC-PVTZ AUX)
    Blend: CC-PVTZ-JKFIT

    Orbital Energies [Eh]
    ---------------------

    Alpha Occupied:

       1A1   -19.795842     2A1    -1.511171     3A1    -0.924491
       1B1    -0.919262     1B2    -0.919262

    Alpha Virtual:

       4A1    -0.397171     5A1    -0.029629     2B1     0.131659
       2B2     0.131659     6A1     0.202809     3B1     0.327949
       3B2     0.327949     7A1     0.473839     8A1     0.708184
       1A2     0.949402     9A1     0.949402     4B1     1.172814
       4B2     1.172814    10A1     1.637501    11A1     1.917927
       2A2     2.760898    12A1     2.760899     5B2     2.768781
       5B1     2.768781    13A1     2.840872     6B1     3.179481
       6B2     3.179481     7B1     3.335931     7B2     3.335931
      14A1     3.434490    15A1     4.318231     8B1     4.529563
       8B2     4.529563    16A1     4.621358     3A2     4.621358
       9B1     5.117235     9B2     5.117235    17A1     5.505304
      18A1     5.544528     4A2     5.544530    10B1     5.881080
      10B2     5.881080    19A1     6.332470    20A1     7.666493

    Beta Occupied:

       1A1   -19.738810     2A1    -1.349473     3A1    -0.874223

    Beta Virtual:

       1B1    -0.617129     1B2    -0.617129     4A1    -0.385563
       5A1    -0.031123     2B2     0.187770     2B1     0.187770
       6A1     0.221263     3B1     0.345763     3B2     0.345763
       7A1     0.525255     8A1     0.724456     1A2     1.061821
       9A1     1.061821     4B1     1.227268     4B2     1.227268
      10A1     1.678996    11A1     1.897164     2A2     2.751978
      12A1     2.751979     5B2     2.820619     5B1     2.820619
      13A1     2.857121     6B1     3.226915     6B2     3.226915
       7B2     3.372962     7B1     3.372962    14A1     3.444930
      15A1     4.359074     8B2     4.681231     8B1     4.681231
       3A2     4.720465    16A1     4.720466     9B1     5.194240
       9B2     5.194240    17A1     5.556543    18A1     5.758804
       4A2     5.758806    10B1     5.985102    10B2     5.985102
      19A1     6.422931    20A1     7.742672

    Final Occupation by Irrep:
             A1    A2    B1    B2
    DOCC [     3,    0,    0,    0 ]
    SOCC [     0,    0,    1,    1 ]
    NA   [     3,    0,    1,    1 ]
    NB   [     3,    0,    0,    0 ]

  @DF-UKS Final Energy:   -75.26633716038445

   => Energetics <=

    Nuclear Repulsion Energy =              3.4326576149234924
    One-Electron Energy =                -106.4590005395900221
    Two-Electron Energy =                  34.5847059540386397
    DFT Exchange-Correlation Energy =      -6.8247001897565704
    Empirical Dispersion Energy =           0.0000000000000000
    VV10 Nonlocal Energy =                  0.0000000000000000
    Total Energy =                        -75.2663371603844524

  UHF NO Occupations:
  HONO-2 :    3 A1 1.9962513
  HONO-1 :    1 B2 1.0000000
  HONO-0 :    1 B1 1.0000000
  LUNO+0 :    4 A1 0.0037487
  LUNO+1 :    5 A1 0.0008461
  LUNO+2 :    6 A1 0.0000014
  LUNO+3 :    7 A1 0.0000000

Computation Completed

Properties will be evaluated at   0.000000,   0.000000,   0.000000 [a0]

Properties computed using the B3LYP density matrix

 Multipole Moments:

 ------------------------------------------------------------------------------------
     Multipole            Electronic (a.u.)      Nuclear  (a.u.)        Total (a.u.)
 ------------------------------------------------------------------------------------

 L = 1.  Multiply by 2.5417464519 to convert [e a0] to [Debye]
 Dipole X            :          0.0000000            0.0000000            0.0000000
 Dipole Y            :          0.0000000            0.0000000            0.0000000
 Dipole Z            :          0.0220853            1.0872778            1.1093631
 Magnitude           :                                                    1.1093631

 L = 2.  Multiply by 1.3450342976 to convert [e a0^2] to [Debye ang]
 Quadrupole XX       :         -3.1432987            0.0000000           -3.1432987
 Quadrupole XY       :          0.0000000            0.0000000            0.0000000
 Quadrupole XZ       :          0.0000000            0.0000000            0.0000000
 Quadrupole YY       :         -3.1432987            0.0000000           -3.1432987
 Quadrupole YZ       :          0.0000000            0.0000000            0.0000000
 Quadrupole ZZ       :         -5.6064362            4.9593438           -0.6470924
 Traceless XX        :          0.8210458           -1.6531146           -0.8320688
 Traceless YY        :          0.8210458           -1.6531146           -0.8320688
 Traceless ZZ        :         -1.6420917            3.3062292            1.6641375

 ------------------------------------------------------------------------------------
  ==> Computing MBIS Charges <==

  Electron Count from Grid (Expected Number):  8.00000 ( 8.00000)
  Difference:  0.00000

  MBIS Charges: (a.u.)
   Center  Symbol  Z      Pop.       Charge
      1       O    8    7.556865    0.443135
      2       H    1    0.443135    0.556865

  MBIS Dipoles: [e a0]
   Center  Symbol  Z        X           Y           Z
      1       O    8   -0.000000    0.000000   -0.116662
      2       H    1    0.000000   -0.000000    0.066362

  MBIS Quadrupoles: [e a0^2]
   Center  Symbol  Z      XX        XY        XZ        YY        YZ        ZZ
      1       O    8   -2.9083   -0.0000   -0.0000   -2.9083   -0.0000   -3.4402
      2       H    1   -0.2350   -0.0000   -0.0000   -0.2350    0.0000   -0.2153

  MBIS Octupoles: [e a0^3]
   Center  Symbol  Z      XXX       XXY       XXZ       XYY       XYZ       XZZ       YYY       YYZ       YZZ       ZZZ
      1       O    8   -0.0000   -0.0000   -0.0897    0.0000    0.0000    0.0000   -0.0000   -0.0897    0.0000   -0.3544
      2       H    1   -0.0000    0.0000    0.0224    0.0000   -0.0000   -0.0000   -0.0000    0.0224   -0.0000    0.0776

  MBIS Radial Moments:
   Center  Symbol  Z      [a0^2]      [a0^3]      [a0^4]
      1       O    8    9.256733   16.016864   33.131548
      2       H    1    0.685301    1.190258    2.460981

  MBIS Valence Widths: [a0]
   Center  Symbol  Z     Width
      1       O    8    0.362982
      2       H    1    0.364787

*** tstop() called on Mac.lan at Sun Aug 10 18:29:50 2025
Module time:
	user time   =       3.10 seconds =       0.05 minutes
	system time =       2.06 seconds =       0.03 minutes
	total time  =          0 seconds =       0.00 minutes
Total time:
	user time   =      12.13 seconds =       0.20 minutes
	system time =       3.71 seconds =       0.06 minutes
	total time  =          2 seconds =       0.03 minutes

    Psi4 stopped on: Sunday, 10 August 2025 06:29PM
    Psi4 wall time for execution: 0:00:01.56

*** Psi4 exiting successfully. Buy a developer a beer!
