                               Psi4 1.9.1 release

  ==> Input File <==

--------------------------------------------------------------------------
molecule {
1 4
C           0.000000           0.000000           0.000000
C           0.000000           0.000000           0.905871
}

set {
basis              cc-pvtz
reference          uks
maxiter            500
DAMPING_PERCENTAGE 1
E_CONVERGENCE      1.0E-8
D_CONVERGENCE      1.0E-8
DIIS_MAX_VECS      400
MBIS_MAXITER       8000
guess              read
}

E, wfn = energy('b3lyp', restart_file='last_wfn', return_wfn=True)
properties('b3lyp','MBIS_CHARGES', wfn=wfn)
wfn.to_file('last_wfn')
--------------------------------------------------------------------------

    Molecular point group: d2h
  Charge       = 1
  Multiplicity = 4
  Basis Set: CC-PVTZ
    Blend: CC-PVTZ
  Basis Set: (CC-PVTZ AUX)
    Blend: CC-PVTZ-JKFIT
  @DF-UKS Final Energy:   -75.08613270863113
    Total Energy =                        -75.0861327086311263
 Dipole X            :          0.0000000            0.0000000            0.0000000
 Dipole Y            :          0.0000000            0.0000000            0.0000000
 Dipole Z            :          0.0000000           -0.0000000           -0.0000000
 Magnitude           :                                                    0.0000000
    Molecular point group: d2h

    Geometry (in Angstrom), charge = 1, multiplicity = 4:

       Center              X                  Y                   Z               Mass
    ------------   -----------------  -----------------  -----------------  -----------------
         C            0.000000000000     0.000000000000    -0.452935500000    12.000000000000
         C            0.000000000000     0.000000000000     0.452935500000    12.000000000000

  Charge       = 1
  Multiplicity = 4
  Basis Set: CC-PVTZ
    Blend: CC-PVTZ
  Basis Set: (CC-PVTZ AUX)
    Blend: CC-PVTZ-JKFIT

    Orbital Energies [Eh]
    ---------------------

    Alpha Occupied:

       1Ag   -10.666496     1B1u  -10.634749     2Ag    -1.304700
       1B2u   -0.871428     1B3u   -0.822343     2B1u   -0.789209
       3Ag    -0.771472

    Alpha Virtual:

       1B3g   -0.262379     1B2g   -0.234336     2B2u   -0.044039
       3B1u   -0.042795     2B3u   -0.031822     4Ag    -0.002920
       5Ag     0.037747     2B3g    0.137314     2B2g    0.149758
       1B1g    0.217629     6Ag     0.218484     4B1u    0.324639
       3B2u    0.519834     3B3u    0.540634     5B1u    0.565467
       1Au     0.607016     6B1u    0.609320     7Ag     0.757160
       3B3g    0.838219     3B2g    0.852385     4B2u    1.393424
       4B3u    1.427875     7B1u    1.655396     8Ag     1.848057
       4B3g    1.995058     4B2g    2.022447     5B2u    2.027576
       5B3u    2.027888     2B1g    2.070814     9Ag     2.072954
       8B1u    2.104170     6B2u    2.260967     6B3u    2.293701
      10Ag     2.440451     9B1u    2.546277     2Au     2.546581
       5B3g    2.589054     5B2g    2.613364     3B1g    2.643291
      11Ag     2.643670     6B3g    2.679200     6B2g    2.679891
      12Ag     3.080454    10B1u    3.201789     7B2u    3.508172
       7B3u    3.538935     3Au     3.718680    11B1u    3.718946
      12B1u    4.838425     7B3g    4.925016     7B2g    4.957688
      13Ag     5.766398    13B1u   18.236853

    Beta Occupied:

       1Ag   -10.630976     1B1u  -10.600684     2Ag    -1.211218
       1B3u   -0.779219

    Beta Virtual:

       1B2u   -0.656759     2B1u   -0.529311     3Ag    -0.507232
       1B2g   -0.175079     1B3g   -0.149713     2B3u   -0.025579
       2B2u   -0.016427     3B1u   -0.011060     4Ag     0.029104
       5Ag     0.105224     2B2g    0.172277     2B3g    0.191156
       1B1g    0.253207     6Ag     0.257534     4B1u    0.378418
       3B3u    0.593034     3B2u    0.605473     1Au     0.641363
       5B1u    0.646352     6B1u    0.647015     7Ag     0.831887
       3B2g    0.883872     3B3g    0.899143     4B3u    1.450143
       4B2u    1.464399     7B1u    1.784378     8Ag     1.912287
       4B2g    2.051984     4B3g    2.063796     5B3u    2.077559
       5B2u    2.080202     2B1g    2.124060     9Ag     2.130010
       8B1u    2.182269     6B3u    2.391263     6B2u    2.422136
      10Ag     2.609891     2Au     2.639189     9B1u    2.652612
       5B2g    2.715462     6B2g    2.736552     3B1g    2.738301
       5B3g    2.738908     6B3g    2.747618    11Ag     2.751587
      12Ag     3.166854    10B1u    3.342830     7B3u    3.614082
       7B2u    3.637743     3Au     3.786331    11B1u    3.796332
      12B1u    4.935197     7B2g    5.028994     7B3g    5.056647
      13Ag     5.841026    13B1u   18.299692

    Final Occupation by Irrep:
             Ag   B1g   B2g   B3g    Au   B1u   B2u   B3u
    DOCC [     2,    0,    0,    0,    0,    1,    0,    1 ]
    SOCC [     1,    0,    0,    0,    0,    1,    1,    0 ]
    NA   [     3,    0,    0,    0,    0,    2,    1,    1 ]
    NB   [     2,    0,    0,    0,    0,    1,    0,    1 ]

  @DF-UKS Final Energy:   -75.08613270976541

   => Energetics <=

    Nuclear Repulsion Energy =             21.0299033572329890
    One-Electron Energy =                -136.9003522069212124
    Two-Electron Energy =                  49.4651822201738582
    DFT Exchange-Correlation Energy =      -8.6808660802510467
    Empirical Dispersion Energy =           0.0000000000000000
    VV10 Nonlocal Energy =                  0.0000000000000000
    Total Energy =                        -75.0861327097654083

  UHF NO Occupations:
  HONO-2 :    3 Ag 1.0000000
  HONO-1 :    1B2u 1.0000000
  HONO-0 :    2B1u 1.0000000
  LUNO+0 :    4 Ag 0.0005085
  LUNO+1 :    2B3u 0.0004047
  LUNO+2 :    3B1u 0.0000014
  LUNO+3 :    5 Ag 0.0000010

Computation Completed

Properties will be evaluated at   0.000000,   0.000000,   0.000000 [a0]

Properties computed using the B3LYP density matrix

 Multipole Moments:

 ------------------------------------------------------------------------------------
     Multipole            Electronic (a.u.)      Nuclear  (a.u.)        Total (a.u.)
 ------------------------------------------------------------------------------------

 L = 1.  Multiply by 2.5417464519 to convert [e a0] to [Debye]
 Dipole X            :          0.0000000            0.0000000            0.0000000
 Dipole Y            :          0.0000000            0.0000000            0.0000000
 Dipole Z            :          0.0000000           -0.0000000           -0.0000000
 Magnitude           :                                                    0.0000000

 L = 2.  Multiply by 1.3450342976 to convert [e a0^2] to [Debye ang]
 Quadrupole XX       :         -6.1573373            0.0000000           -6.1573373
 Quadrupole XY       :          0.0000000            0.0000000            0.0000000
 Quadrupole XZ       :          0.0000000            0.0000000            0.0000000
 Quadrupole YY       :         -5.2089104            0.0000000           -5.2089104
 Quadrupole YZ       :          0.0000000            0.0000000            0.0000000
 Quadrupole ZZ       :        -13.1671959            8.7912717           -4.3759242
 Traceless XX        :          2.0204773           -2.9304239           -0.9099466
 Traceless YY        :          2.9689041           -2.9304239            0.0384802
 Traceless ZZ        :         -4.9893814            5.8608478            0.8714664

 ------------------------------------------------------------------------------------
  ==> Computing MBIS Charges <==

  Electron Count from Grid (Expected Number): 11.00000 (11.00000)
  Difference:  0.00000

  MBIS Charges: (a.u.)
   Center  Symbol  Z      Pop.       Charge
      1       C    6    5.500000    0.500000
      2       C    6    5.500000    0.500000

  MBIS Dipoles: [e a0]
   Center  Symbol  Z        X           Y           Z
      1       C    6   -0.000000    0.000000   -0.271511
      2       C    6   -0.000000   -0.000000    0.271511

  MBIS Quadrupoles: [e a0^2]
   Center  Symbol  Z      XX        XY        XZ        YY        YZ        ZZ
      1       C    6   -3.0787    0.0000    0.0000   -2.6045   -0.0000   -3.0191
      2       C    6   -3.0787    0.0000   -0.0000   -2.6045    0.0000   -3.0191

  MBIS Octupoles: [e a0^3]
   Center  Symbol  Z      XXX       XXY       XXZ       XYY       XYZ       XZZ       YYY       YYZ       YZZ       ZZZ
      1       C    6   -0.0000   -0.0000   -0.2345   -0.0000    0.0000   -0.0000    0.0000   -0.1056    0.0000   -0.1091
      2       C    6   -0.0000   -0.0000    0.2345   -0.0000   -0.0000   -0.0000    0.0000    0.1056    0.0000    0.1091

  MBIS Radial Moments:
   Center  Symbol  Z      [a0^2]      [a0^3]      [a0^4]
      1       C    6    8.702175   17.818390   43.705231
      2       C    6    8.702175   17.818390   43.705231

  MBIS Valence Widths: [a0]
   Center  Symbol  Z     Width
      1       C    6    0.434026
      2       C    6    0.434026

*** tstop() called on Mac.lan at Sun Aug 10 18:15:49 2025
Module time:
	user time   =       4.03 seconds =       0.07 minutes
	system time =       2.28 seconds =       0.04 minutes
	total time  =          1 seconds =       0.02 minutes
Total time:
	user time   =      16.33 seconds =       0.27 minutes
	system time =       4.71 seconds =       0.08 minutes
	total time  =          2 seconds =       0.03 minutes

    Psi4 stopped on: Sunday, 10 August 2025 06:15PM
    Psi4 wall time for execution: 0:00:02.07

*** Psi4 exiting successfully. Buy a developer a beer!
