                               Psi4 1.9.1 release

  ==> Input File <==

--------------------------------------------------------------------------
molecule {
1 3
O           0.000000           0.000000           0.000000
H           0.000000           0.000000           0.775566
}

set {
basis              cc-pvtz
reference          uks
maxiter            500
DAMPING_PERCENTAGE 1
E_CONVERGENCE      1.0E-8
D_CONVERGENCE      1.0E-8
DIIS_MAX_VECS      400
MBIS_MAXITER       8000
guess              read
}

E, wfn = energy('b3lyp', restart_file='last_wfn', return_wfn=True)
properties('b3lyp','MBIS_CHARGES', wfn=wfn)
wfn.to_file('last_wfn')
--------------------------------------------------------------------------

    Molecular point group: c2v
  Charge       = 1
  Multiplicity = 3
  Basis Set: CC-PVTZ
    Blend: CC-PVTZ
  Basis Set: (CC-PVTZ AUX)
    Blend: CC-PVTZ-JKFIT
  @DF-UKS Final Energy:   -75.20118803326478
    Total Energy =                        -75.2011880332647848
 Dipole X            :          0.0000000            0.0000000            0.0000000
 Dipole Y            :          0.0000000            0.0000000            0.0000000
 Dipole Z            :         -0.0001929            0.6837520            0.6835591
 Magnitude           :                                                    0.6835591
    Molecular point group: c2v

    Geometry (in Angstrom), charge = 1, multiplicity = 3:

       Center              X                  Y                   Z               Mass
    ------------   -----------------  -----------------  -----------------  -----------------
         O            0.000000000000     0.000000000000    -0.045971110830    15.994914619570
         H            0.000000000000     0.000000000000     0.729594889170     1.007825032230

  Charge       = 1
  Multiplicity = 3
  Basis Set: CC-PVTZ
    Blend: CC-PVTZ
  Basis Set: (CC-PVTZ AUX)
    Blend: CC-PVTZ-JKFIT

    Orbital Energies [Eh]
    ---------------------

    Alpha Occupied:

       1A1   -19.836653     2A1    -1.676696     3A1    -1.054044
       1B1    -0.987052     1B2    -0.987052

    Alpha Virtual:

       4A1    -0.245631     5A1     0.102826     2B1     0.132382
       2B2     0.132382     6A1     0.140334     3B2     0.336369
       3B1     0.336369     7A1     0.426399     1A2     0.897336
       8A1     0.897336     9A1     1.086838     4B1     1.352038
       4B2     1.352038    10A1     1.415443    11A1     2.124708
       2A2     2.809870    12A1     2.809870     5B2     2.880091
       5B1     2.880091     6B2     3.099437     6B1     3.099437
      13A1     3.409302     7B2     3.780814     7B1     3.780814
      14A1     3.990390     8B2     4.467481     8B1     4.467481
      15A1     4.750695     3A2     5.065926    16A1     5.065926
      17A1     5.488189     4A2     5.488189     9B1     5.701023
       9B2     5.701023    18A1     6.476752    19A1     6.837183
      10B1     6.892257    10B2     6.892257    20A1    11.774960

    Beta Occupied:

       1A1   -19.780772     2A1    -1.535350     3A1    -0.989236

    Beta Virtual:

       1B2    -0.681784     1B1    -0.681784     4A1    -0.233212
       5A1     0.120612     6A1     0.152001     2B1     0.200038
       2B2     0.200038     3B2     0.356308     3B1     0.356308
       7A1     0.467928     8A1     1.009750     1A2     1.009750
       9A1     1.120062     4B1     1.403584     4B2     1.403584
      10A1     1.452274    11A1     2.141149     2A2     2.836554
      12A1     2.836554     5B2     2.952995     5B1     2.952995
       6B2     3.182094     6B1     3.182094    13A1     3.428472
       7B2     3.815898     7B1     3.815898    14A1     4.052299
       8B2     4.620056     8B1     4.620056    15A1     4.821340
      16A1     5.162151     3A2     5.162151    17A1     5.699036
       4A2     5.699037     9B1     5.792573     9B2     5.792573
      18A1     6.526183    19A1     6.876322    10B1     6.963462
      10B2     6.963462    20A1    11.837836

    Final Occupation by Irrep:
             A1    A2    B1    B2
    DOCC [     3,    0,    0,    0 ]
    SOCC [     0,    0,    1,    1 ]
    NA   [     3,    0,    1,    1 ]
    NB   [     3,    0,    0,    0 ]

  @DF-UKS Final Energy:   -75.20118803367174

   => Energetics <=

    Nuclear Repulsion Energy =              5.4584879756977509
    One-Electron Energy =                -109.4687207889482750
    Two-Electron Energy =                  35.7736741416551567
    DFT Exchange-Correlation Energy =      -6.9646293620763871
    Empirical Dispersion Energy =           0.0000000000000000
    VV10 Nonlocal Energy =                  0.0000000000000000
    Total Energy =                        -75.2011880336717411

  UHF NO Occupations:
  HONO-2 :    3 A1 1.9986740
  HONO-1 :    1 B2 1.0000000
  HONO-0 :    1 B1 1.0000000
  LUNO+0 :    4 A1 0.0013260
  LUNO+1 :    5 A1 0.0003286
  LUNO+2 :    6 A1 0.0000015
  LUNO+3 :    7 A1 0.0000000

Computation Completed

Properties will be evaluated at   0.000000,   0.000000,   0.000000 [a0]

Properties computed using the B3LYP density matrix

 Multipole Moments:

 ------------------------------------------------------------------------------------
     Multipole            Electronic (a.u.)      Nuclear  (a.u.)        Total (a.u.)
 ------------------------------------------------------------------------------------

 L = 1.  Multiply by 2.5417464519 to convert [e a0] to [Debye]
 Dipole X            :          0.0000000            0.0000000            0.0000000
 Dipole Y            :          0.0000000            0.0000000            0.0000000
 Dipole Z            :         -0.0001929            0.6837520            0.6835591
 Magnitude           :                                                    0.6835591

 L = 2.  Multiply by 1.3450342976 to convert [e a0^2] to [Debye ang]
 Quadrupole XX       :         -2.8823964            0.0000000           -2.8823964
 Quadrupole XY       :          0.0000000            0.0000000            0.0000000
 Quadrupole XZ       :          0.0000000            0.0000000            0.0000000
 Quadrupole YY       :         -2.8823964            0.0000000           -2.8823964
 Quadrupole YZ       :          0.0000000            0.0000000            0.0000000
 Quadrupole ZZ       :         -4.2481763            1.9612840           -2.2868923
 Traceless XX        :          0.4552600           -0.6537613           -0.1985014
 Traceless YY        :          0.4552600           -0.6537613           -0.1985014
 Traceless ZZ        :         -0.9105199            1.3075226            0.3970027

 ------------------------------------------------------------------------------------
  ==> Computing MBIS Charges <==

  Electron Count from Grid (Expected Number):  8.00000 ( 8.00000)
  Difference: -0.00000

  MBIS Charges: (a.u.)
   Center  Symbol  Z      Pop.       Charge
      1       O    8    7.457972    0.542028
      2       H    1    0.542028    0.457972

  MBIS Dipoles: [e a0]
   Center  Symbol  Z        X           Y           Z
      1       O    8    0.000000   -0.000000    0.065018
      2       H    1    0.000000   -0.000000    0.034207

  MBIS Quadrupoles: [e a0^2]
   Center  Symbol  Z      XX        XY        XZ        YY        YZ        ZZ
      1       O    8   -2.7235    0.0000    0.0000   -2.7235   -0.0000   -3.0874
      2       H    1   -0.1589   -0.0000    0.0000   -0.1589   -0.0000   -0.1571

  MBIS Octupoles: [e a0^3]
   Center  Symbol  Z      XXX       XXY       XXZ       XYY       XYZ       XZZ       YYY       YYZ       YZZ       ZZZ
      1       O    8   -0.0000   -0.0000    0.0679   -0.0000   -0.0000    0.0000   -0.0000    0.0679   -0.0000    0.1341
      2       H    1    0.0000   -0.0000    0.0038    0.0000   -0.0000    0.0000   -0.0000    0.0038   -0.0000    0.0108

  MBIS Radial Moments:
   Center  Symbol  Z      [a0^2]      [a0^3]      [a0^4]
      1       O    8    8.534433   14.282926   28.688839
      2       H    1    0.474935    0.631493    1.009248

  MBIS Valence Widths: [a0]
   Center  Symbol  Z     Width
      1       O    8    0.350593
      2       H    1    0.273200

*** tstop() called on Mac.lan at Sun Aug 10 18:28:54 2025
Module time:
	user time   =       2.82 seconds =       0.05 minutes
	system time =       1.92 seconds =       0.03 minutes
	total time  =          0 seconds =       0.00 minutes
Total time:
	user time   =      10.79 seconds =       0.18 minutes
	system time =       4.18 seconds =       0.07 minutes
	total time  =          1 seconds =       0.02 minutes

    Psi4 stopped on: Sunday, 10 August 2025 06:28PM
    Psi4 wall time for execution: 0:00:01.48

*** Psi4 exiting successfully. Buy a developer a beer!
