                               Psi4 1.9.1 release

  ==> Input File <==

--------------------------------------------------------------------------
molecule {
1 1
O           0.000000           0.000000           0.000000
N           0.000000           0.000000           1.469375
}

set {
basis              cc-pvtz
reference          uks
maxiter            500
DAMPING_PERCENTAGE 1
E_CONVERGENCE      1.0E-8
D_CONVERGENCE      1.0E-8
DIIS_MAX_VECS      400
MBIS_MAXITER       8000
guess              read
}

E, wfn = energy('b3lyp', restart_file='last_wfn', return_wfn=True)
properties('b3lyp','MBIS_CHARGES', wfn=wfn)
wfn.to_file('last_wfn')
--------------------------------------------------------------------------

    Molecular point group: c2v
  Charge       = 1
  Multiplicity = 1
  Basis Set: CC-PVTZ
    Blend: CC-PVTZ
  Basis Set: (CC-PVTZ AUX)
    Blend: CC-PVTZ-JKFIT
  @DF-UKS Final Energy:  -129.37895473340330
    Total Energy =                       -129.3789547334033045
 Dipole X            :          0.0000000            0.0000000            0.0000000
 Dipole Y            :          0.0000000            0.0000000            0.0000000
 Dipole Z            :          0.5009548           -0.0055714            0.4953834
 Magnitude           :                                                    0.4953834
    Molecular point group: c2v

    Geometry (in Angstrom), charge = 1, multiplicity = 1:

       Center              X                  Y                   Z               Mass
    ------------   -----------------  -----------------  -----------------  -----------------
         O            0.000000000000     0.000000000000    -0.685904882596    15.994914619570
         N            0.000000000000     0.000000000000     0.783470117404    14.003074004430

  Charge       = 1
  Multiplicity = 1
  Basis Set: CC-PVTZ
    Blend: CC-PVTZ
  Basis Set: (CC-PVTZ AUX)
    Blend: CC-PVTZ-JKFIT

    Orbital Energies [Eh]
    ---------------------

    Alpha Occupied:

       1A1   -19.751796     2A1   -15.019947     3A1    -1.485368
       4A1    -1.153554     5A1    -0.870946     1B2    -0.829179
       1B1    -0.829179

    Alpha Virtual:

       2B2    -0.608530     2B1    -0.608530     6A1    -0.386117
       7A1     0.091945     3B1     0.111284     3B2     0.111284
       8A1     0.157124     9A1     0.252810     4B1     0.283801
       4B2     0.283801    10A1     0.589618     1A2     0.589618
       5B2     0.621202     5B1     0.621202    11A1     0.768063
      12A1     1.089851     2A2     1.089851    13A1     1.121536
       6B2     1.442033     6B1     1.442033    14A1     1.635440
       7B1     2.336641     7B2     2.336641    15A1     2.589741
       8B1     3.034941     8B2     3.034941    16A1     3.233663
      17A1     3.359189     3A2     3.359189     9B2     3.387993
       9B1     3.387993    10B1     3.523532    10B2     3.523532
      18A1     3.821591    19A1     3.891907     4A2     3.891917
      11B1     4.086683    11B2     4.086683    20A1     4.442500
      12B2     4.646999    12B1     4.646999    21A1     4.746020
       5A2     4.746022    22A1     4.762908    13B1     5.195487
      13B2     5.195487     6A2     5.699212    23A1     5.699245
      24A1     5.728225    14B1     6.083915    14B2     6.083915
      25A1     6.939854    26A1     8.000267

    Beta Occupied:

       1A1   -19.751796     2A1   -15.019947     3A1    -1.485368
       4A1    -1.153554     5A1    -0.870946     1B2    -0.829179
       1B1    -0.829179

    Beta Virtual:

       2B2    -0.608530     2B1    -0.608530     6A1    -0.386117
       7A1     0.091945     3B1     0.111284     3B2     0.111284
       8A1     0.157124     9A1     0.252810     4B1     0.283801
       4B2     0.283801    10A1     0.589618     1A2     0.589618
       5B2     0.621202     5B1     0.621202    11A1     0.768063
      12A1     1.089851     2A2     1.089851    13A1     1.121536
       6B2     1.442033     6B1     1.442033    14A1     1.635440
       7B1     2.336641     7B2     2.336641    15A1     2.589741
       8B1     3.034941     8B2     3.034941    16A1     3.233663
      17A1     3.359189     3A2     3.359189     9B1     3.387993
       9B2     3.387993    10B1     3.523532    10B2     3.523532
      18A1     3.821591    19A1     3.891907     4A2     3.891917
      11B1     4.086683    11B2     4.086683    20A1     4.442500
      12B2     4.646999    12B1     4.646999    21A1     4.746020
       5A2     4.746022    22A1     4.762908    13B1     5.195487
      13B2     5.195487     6A2     5.699212    23A1     5.699245
      24A1     5.728225    14B1     6.083915    14B2     6.083915
      25A1     6.939854    26A1     8.000267

    Final Occupation by Irrep:
             A1    A2    B1    B2
    DOCC [     5,    0,    1,    1 ]
    SOCC [     0,    0,    0,    0 ]
    NA   [     5,    0,    1,    1 ]
    NB   [     5,    0,    1,    1 ]

  @DF-UKS Final Energy:  -129.37895472299888

   => Energetics <=

    Nuclear Repulsion Energy =             20.1677065402092701
    One-Electron Energy =                -210.6783473825969963
    Two-Electron Energy =                  72.9868024531039197
    DFT Exchange-Correlation Energy =     -11.8551163337150989
    Empirical Dispersion Energy =           0.0000000000000000
    VV10 Nonlocal Energy =                  0.0000000000000000
    Total Energy =                       -129.3789547229988841

  UHF NO Occupations:
  HONO-2 :    3 A1 2.0000000
  HONO-1 :    4 A1 2.0000000
  HONO-0 :    5 A1 2.0000000
  LUNO+0 :    6 A1 0.0000000
  LUNO+1 :    7 A1 0.0000000
  LUNO+2 :    8 A1 0.0000000
  LUNO+3 :    9 A1 0.0000000

Computation Completed

Properties will be evaluated at   0.000000,   0.000000,   0.000000 [a0]

Properties computed using the B3LYP density matrix

 Multipole Moments:

 ------------------------------------------------------------------------------------
     Multipole            Electronic (a.u.)      Nuclear  (a.u.)        Total (a.u.)
 ------------------------------------------------------------------------------------

 L = 1.  Multiply by 2.5417464519 to convert [e a0] to [Debye]
 Dipole X            :          0.0000000            0.0000000            0.0000000
 Dipole Y            :          0.0000000            0.0000000            0.0000000
 Dipole Z            :          0.5009548           -0.0055714            0.4953834
 Magnitude           :                                                    0.4953834

 L = 2.  Multiply by 1.3450342976 to convert [e a0^2] to [Debye ang]
 Quadrupole XX       :         -6.3428519            0.0000000           -6.3428519
 Quadrupole XY       :          0.0000000            0.0000000            0.0000000
 Quadrupole XZ       :          0.0000000            0.0000000            0.0000000
 Quadrupole YY       :         -6.3428519            0.0000000           -6.3428519
 Quadrupole YZ       :          0.0000000            0.0000000            0.0000000
 Quadrupole ZZ       :        -32.8621530           28.7845753           -4.0775777
 Traceless XX        :          8.8397671           -9.5948584           -0.7550914
 Traceless YY        :          8.8397671           -9.5948584           -0.7550914
 Traceless ZZ        :        -17.6795341           19.1897169            1.5101828

 ------------------------------------------------------------------------------------
  ==> Computing MBIS Charges <==

  Electron Count from Grid (Expected Number): 14.00000 (14.00000)
  Difference: -0.00000

  MBIS Charges: (a.u.)
   Center  Symbol  Z      Pop.       Charge
      1       O    8    7.699390    0.300610
      2       N    7    6.300609    0.699391

  MBIS Dipoles: [e a0]
   Center  Symbol  Z        X           Y           Z
      1       O    8    0.000000   -0.000000   -0.190186
      2       N    7    0.000000   -0.000000    0.039732

  MBIS Quadrupoles: [e a0^2]
   Center  Symbol  Z      XX        XY        XZ        YY        YZ        ZZ
      1       O    8   -3.3195    0.0000    0.0000   -3.3195   -0.0000   -3.4061
      2       N    7   -3.0233   -0.0000   -0.0000   -3.0233   -0.0000   -3.3202

  MBIS Octupoles: [e a0^3]
   Center  Symbol  Z      XXX       XXY       XXZ       XYY       XYZ       XZZ       YYY       YYZ       YZZ       ZZZ
      1       O    8    0.0000   -0.0000   -0.1945   -0.0000    0.0000    0.0000   -0.0000   -0.1945   -0.0000   -0.5794
      2       N    7    0.0000   -0.0000    0.1793   -0.0000   -0.0000   -0.0000   -0.0000    0.1793   -0.0000    0.3965

  MBIS Radial Moments:
   Center  Symbol  Z      [a0^2]      [a0^3]      [a0^4]
      1       O    8   10.045226   18.022642   38.713192
      2       N    7    9.366850   18.232938   42.365809

  MBIS Valence Widths: [a0]
   Center  Symbol  Z     Width
      1       O    8    0.373622
      2       N    7    0.413024

*** tstop() called on Mac.lan at Sun Aug 10 18:42:48 2025
Module time:
	user time   =       4.45 seconds =       0.07 minutes
	system time =       1.85 seconds =       0.03 minutes
	total time  =          1 seconds =       0.02 minutes
Total time:
	user time   =      15.97 seconds =       0.27 minutes
	system time =       4.46 seconds =       0.07 minutes
	total time  =          2 seconds =       0.03 minutes

    Psi4 stopped on: Sunday, 10 August 2025 06:42PM
    Psi4 wall time for execution: 0:00:01.98

*** Psi4 exiting successfully. Buy a developer a beer!
