                               Psi4 1.9.1 release

  ==> Input File <==

--------------------------------------------------------------------------
molecule {
1 1
C           0.000000           0.000000           0.000000
H           0.000000           0.000000           1.183112
}

set {
basis              cc-pvtz
reference          uks
maxiter            500
DAMPING_PERCENTAGE 1
E_CONVERGENCE      1.0E-8
D_CONVERGENCE      1.0E-8
DIIS_MAX_VECS      400
MBIS_MAXITER       8000
guess              SAP
}

E, wfn = energy('b3lyp', return_wfn=True)
properties('b3lyp','MBIS_CHARGES', wfn=wfn)
wfn.to_file('last_wfn')
--------------------------------------------------------------------------

    Molecular point group: c2v
  Charge       = 1
  Multiplicity = 1
  Basis Set: CC-PVTZ
    Blend: CC-PVTZ
  Basis Set: (CC-PVTZ AUX)
    Blend: CC-PVTZ-JKFIT
  @DF-UKS Final Energy:   -38.09128931733184
    Total Energy =                        -38.0912893173318352
 Dipole X            :          0.0000000            0.0000000            0.0000000
 Dipole Y            :          0.0000000            0.0000000            0.0000000
 Dipole Z            :         -0.3051212            1.0231977            0.7180765
 Magnitude           :                                                    0.7180765
    Molecular point group: c2v

    Geometry (in Angstrom), charge = 1, multiplicity = 1:

       Center              X                  Y                   Z               Mass
    ------------   -----------------  -----------------  -----------------  -----------------
         C            0.000000000000     0.000000000000    -0.091665584875    12.000000000000
         H            0.000000000000     0.000000000000     1.091446415125     1.007825032230

  Charge       = 1
  Multiplicity = 1
  Basis Set: CC-PVTZ
    Blend: CC-PVTZ
  Basis Set: (CC-PVTZ AUX)
    Blend: CC-PVTZ-JKFIT

    Orbital Energies [Eh]
    ---------------------

    Alpha Occupied:

       1A1   -10.803231     2A1    -1.038848     3A1    -0.718657

    Alpha Virtual:

       1B1    -0.543959     1B2    -0.543959     4A1    -0.237875
       5A1    -0.011732     2B2     0.008309     2B1     0.008309
       6A1     0.031071     7A1     0.162501     3B2     0.223297
       3B1     0.223297     8A1     0.319576     1A2     0.319576
       9A1     0.616476     4B2     0.693306     4B1     0.693306
      10A1     0.983785     5B2     1.532870     5B1     1.532870
      11A1     1.710521    12A1     1.845613    13A1     2.134032
       2A2     2.134032     6B2     2.194119     6B1     2.194119
       7B1     2.249961     7B2     2.249961    14A1     2.453378
      15A1     2.492900     3A2     2.492900     8B2     2.645148
       8B1     2.645148    16A1     2.778696     4A2     3.131827
      17A1     3.131827     9B2     3.409210     9B1     3.409210
      18A1     3.838692    10B1     4.151922    10B2     4.151922
      19A1     4.233897    20A1     7.072299

    Beta Occupied:

       1A1   -10.803231     2A1    -1.038848     3A1    -0.718657

    Beta Virtual:

       1B1    -0.543959     1B2    -0.543959     4A1    -0.237875
       5A1    -0.011732     2B2     0.008309     2B1     0.008309
       6A1     0.031071     7A1     0.162501     3B2     0.223297
       3B1     0.223297     8A1     0.319576     1A2     0.319576
       9A1     0.616476     4B2     0.693306     4B1     0.693306
      10A1     0.983785     5B2     1.532870     5B1     1.532870
      11A1     1.710521    12A1     1.845613    13A1     2.134032
       2A2     2.134032     6B2     2.194119     6B1     2.194119
       7B1     2.249961     7B2     2.249961    14A1     2.453378
      15A1     2.492900     3A2     2.492900     8B2     2.645148
       8B1     2.645148    16A1     2.778696     4A2     3.131827
      17A1     3.131827     9B2     3.409210     9B1     3.409210
      18A1     3.838692    10B1     4.151922    10B2     4.151922
      19A1     4.233897    20A1     7.072299

    Final Occupation by Irrep:
             A1    A2    B1    B2
    DOCC [     3,    0,    0,    0 ]
    SOCC [     0,    0,    0,    0 ]
    NA   [     3,    0,    0,    0 ]
    NB   [     3,    0,    0,    0 ]

  @DF-UKS Final Energy:   -38.09128931733184

   => Energetics <=

    Nuclear Repulsion Energy =              2.6836540107952587
    One-Electron Energy =                 -53.3526626870459495
    Two-Electron Energy =                  16.8320185067507211
    DFT Exchange-Correlation Energy =      -4.2542991478318672
    Empirical Dispersion Energy =           0.0000000000000000
    VV10 Nonlocal Energy =                  0.0000000000000000
    Total Energy =                        -38.0912893173318352

  UHF NO Occupations:
  HONO-2 :    1 A1 2.0000000
  HONO-1 :    2 A1 2.0000000
  HONO-0 :    3 A1 2.0000000
  LUNO+0 :    4 A1 0.0000000
  LUNO+1 :    5 A1 0.0000000
  LUNO+2 :    6 A1 0.0000000
  LUNO+3 :    7 A1 0.0000000

Computation Completed

Properties will be evaluated at   0.000000,   0.000000,   0.000000 [a0]

Properties computed using the B3LYP density matrix

 Multipole Moments:

 ------------------------------------------------------------------------------------
     Multipole            Electronic (a.u.)      Nuclear  (a.u.)        Total (a.u.)
 ------------------------------------------------------------------------------------

 L = 1.  Multiply by 2.5417464519 to convert [e a0] to [Debye]
 Dipole X            :          0.0000000            0.0000000            0.0000000
 Dipole Y            :          0.0000000            0.0000000            0.0000000
 Dipole Z            :         -0.3051212            1.0231977            0.7180765
 Magnitude           :                                                    0.7180765

 L = 2.  Multiply by 1.3450342976 to convert [e a0^2] to [Debye ang]
 Quadrupole XX       :         -2.9418136            0.0000000           -2.9418136
 Quadrupole XY       :          0.0000000            0.0000000            0.0000000
 Quadrupole XZ       :          0.0000000            0.0000000            0.0000000
 Quadrupole YY       :         -2.9418136            0.0000000           -2.9418136
 Quadrupole YZ       :          0.0000000            0.0000000            0.0000000
 Quadrupole ZZ       :         -7.4524112            4.4340868           -3.0183244
 Traceless XX        :          1.5035325           -1.4780289            0.0255036
 Traceless YY        :          1.5035325           -1.4780289            0.0255036
 Traceless ZZ        :         -3.0070651            2.9560578           -0.0510072

 ------------------------------------------------------------------------------------
  ==> Computing MBIS Charges <==

  Electron Count from Grid (Expected Number):  6.00000 ( 6.00000)
  Difference:  0.00000

  MBIS Charges: (a.u.)
   Center  Symbol  Z      Pop.       Charge
      1       C    6    5.200653    0.799347
      2       H    1    0.799347    0.200653

  MBIS Dipoles: [e a0]
   Center  Symbol  Z        X           Y           Z
      1       C    6    0.000000   -0.000000    0.332863
      2       H    1    0.000000    0.000000    0.109826

  MBIS Quadrupoles: [e a0^2]
   Center  Symbol  Z      XX        XY        XZ        YY        YZ        ZZ
      1       C    6   -2.5383   -0.0000   -0.0000   -2.5383   -0.0000   -3.8198
      2       H    1   -0.4035   -0.0000   -0.0000   -0.4035   -0.0000   -0.4139

  MBIS Octupoles: [e a0^3]
   Center  Symbol  Z      XXX       XXY       XXZ       XYY       XYZ       XZZ       YYY       YYZ       YZZ       ZZZ
      1       C    6    0.0000    0.0000    0.3832   -0.0000   -0.0000   -0.0000   -0.0000    0.3832    0.0000    1.0063
      2       H    1   -0.0000   -0.0000    0.0172   -0.0000   -0.0000   -0.0000   -0.0000    0.0172   -0.0000    0.0788

  MBIS Radial Moments:
   Center  Symbol  Z      [a0^2]      [a0^3]      [a0^4]
      1       C    6    8.896405   18.981656   48.311485
      2       H    1    1.220838    2.089942    4.283132

  MBIS Valence Widths: [a0]
   Center  Symbol  Z     Width
      1       C    6    0.462424
      2       H    1    0.364515

*** tstop() called on Mac.lan at Sun Aug 10 18:27:11 2025
Module time:
	user time   =       9.34 seconds =       0.16 minutes
	system time =       1.26 seconds =       0.02 minutes
	total time  =          1 seconds =       0.02 minutes
Total time:
	user time   =      17.99 seconds =       0.30 minutes
	system time =       3.90 seconds =       0.07 minutes
	total time  =          2 seconds =       0.03 minutes

    Psi4 stopped on: Sunday, 10 August 2025 06:27PM
    Psi4 wall time for execution: 0:00:02.11

*** Psi4 exiting successfully. Buy a developer a beer!
