                               Psi4 1.9.1 release

  ==> Input File <==

--------------------------------------------------------------------------
molecule {
1 4
C           0.000000           0.000000           0.000000
C           0.000000           0.000000           1.316938
}

set {
basis              cc-pvtz
reference          uks
maxiter            500
DAMPING_PERCENTAGE 1
E_CONVERGENCE      1.0E-8
D_CONVERGENCE      1.0E-8
DIIS_MAX_VECS      400
MBIS_MAXITER       8000
guess              read
}

E, wfn = energy('b3lyp', restart_file='last_wfn', return_wfn=True)
properties('b3lyp','MBIS_CHARGES', wfn=wfn)
wfn.to_file('last_wfn')
--------------------------------------------------------------------------

    Molecular point group: d2h
  Charge       = 1
  Multiplicity = 4
  Basis Set: CC-PVTZ
    Blend: CC-PVTZ
  Basis Set: (CC-PVTZ AUX)
    Blend: CC-PVTZ-JKFIT
  @DF-UKS Final Energy:   -75.45878667289416
    Total Energy =                        -75.4587866728941634
 Dipole X            :          0.0000000            0.0000000            0.0000000
 Dipole Y            :          0.0000000            0.0000000            0.0000000
 Dipole Z            :          0.0000000            0.0000000            0.0000000
 Magnitude           :                                                    0.0000000
    Molecular point group: d2h

    Geometry (in Angstrom), charge = 1, multiplicity = 4:

       Center              X                  Y                   Z               Mass
    ------------   -----------------  -----------------  -----------------  -----------------
         C            0.000000000000     0.000000000000    -0.658469000000    12.000000000000
         C            0.000000000000     0.000000000000     0.658469000000    12.000000000000

  Charge       = 1
  Multiplicity = 4
  Basis Set: CC-PVTZ
    Blend: CC-PVTZ
  Basis Set: (CC-PVTZ AUX)
    Blend: CC-PVTZ-JKFIT

    Orbital Energies [Eh]
    ---------------------

    Alpha Occupied:

       1Ag   -10.704752     1B1u  -10.703623     2Ag    -1.176717
       2B1u   -0.844012     3Ag    -0.741917     1B2u   -0.723474
       1B3u   -0.687654

    Alpha Virtual:

       1B3g   -0.409745     1B2g   -0.380044     3B1u   -0.055605
       2B2u   -0.001210     2B3u    0.010517     4Ag     0.020992
       5Ag     0.029007     2B3g    0.101798     4B1u    0.107308
       2B2g    0.110797     1B1g    0.236515     6Ag     0.237093
       5B1u    0.348853     3B2u    0.375864     3B3u    0.399420
       1Au     0.527402     6B1u    0.527501     3B3g    0.808879
       3B2g    0.823267     7Ag     0.826102     7B1u    0.952692
       4B2u    1.534641     4B3u    1.560019     8Ag     1.651356
       4B3g    1.761733     4B2g    1.789273     8B1u    1.985453
       2B1g    2.030956     9Ag     2.031557     5B2u    2.053163
       5B3u    2.083355     6B2u    2.136920     6B3u    2.137286
      10Ag     2.278993     5B3g    2.462878     5B2g    2.463246
      11Ag     2.513972     3B1g    2.514181     9B1u    2.611055
       2Au     2.611935     6B3g    2.613048     6B2g    2.633210
      10B1u    2.782026     7B2u    2.971630     7B3u    2.997381
       3Au     3.029573    11B1u    3.030141    12Ag     3.295478
      12B1u    3.464410     7B3g    4.031269     7B2g    4.059804
      13Ag     4.099838    13B1u   10.637455

    Beta Occupied:

       1Ag   -10.671325     1B1u  -10.670454     2Ag    -1.094763
       1B3u   -0.644982

    Beta Virtual:

       2B1u   -0.596491     1B2u   -0.538296     3Ag    -0.491064
       1B2g   -0.316651     1B3g   -0.276351     3B1u   -0.026207
       2B3u    0.018796     2B2u    0.030365     4Ag     0.049004
       5Ag     0.090033     2B2g    0.123720     2B3g    0.138331
       4B1u    0.221480     1B1g    0.271185     6Ag     0.275878
       5B1u    0.376653     3B3u    0.449635     3B2u    0.466188
       1Au     0.566677     6B1u    0.573002     3B2g    0.861063
       3B3g    0.875723     7Ag     0.904367     7B1u    1.016944
       4B3u    1.586749     4B2u    1.603519     8Ag     1.716817
       4B2g    1.816762     4B3g    1.830419     8B1u    2.077669
       2B1g    2.085921     9Ag     2.093202     5B3u    2.130341
       5B2u    2.150662     6B3u    2.191422     6B2u    2.195202
      10Ag     2.408885     5B2g    2.521415     5B3g    2.525499
       3B1g    2.601782    11Ag     2.613120     2Au     2.692598
       9B1u    2.702532     6B2g    2.735577     6B3g    2.771944
      10B1u    2.909457     7B3u    3.092116     3Au     3.100303
      11B1u    3.111352     7B2u    3.123509    12Ag     3.388387
      12B1u    3.562756     7B2g    4.113995     7B3g    4.137457
      13Ag     4.170313    13B1u   10.687639

    Final Occupation by Irrep:
             Ag   B1g   B2g   B3g    Au   B1u   B2u   B3u
    DOCC [     2,    0,    0,    0,    0,    1,    0,    1 ]
    SOCC [     1,    0,    0,    0,    0,    1,    1,    0 ]
    NA   [     3,    0,    0,    0,    0,    2,    1,    1 ]
    NB   [     2,    0,    0,    0,    0,    1,    0,    1 ]

  @DF-UKS Final Energy:   -75.45878667335887

   => Energetics <=

    Nuclear Repulsion Energy =             14.4656616971489935
    One-Electron Energy =                -125.1918217604719388
    Two-Electron Energy =                  43.5789581650205093
    DFT Exchange-Correlation Energy =      -8.3115847750564260
    Empirical Dispersion Energy =           0.0000000000000000
    VV10 Nonlocal Energy =                  0.0000000000000000
    Total Energy =                        -75.4587866733588726

  UHF NO Occupations:
  HONO-2 :    1B2u 1.0000000
  HONO-1 :    3 Ag 1.0000000
  HONO-0 :    2B1u 1.0000000
  LUNO+0 :    2B3u 0.0008303
  LUNO+1 :    4 Ag 0.0005292
  LUNO+2 :    3B1u 0.0000008
  LUNO+3 :    5 Ag 0.0000004

Computation Completed

Properties will be evaluated at   0.000000,   0.000000,   0.000000 [a0]

Properties computed using the B3LYP density matrix

 Multipole Moments:

 ------------------------------------------------------------------------------------
     Multipole            Electronic (a.u.)      Nuclear  (a.u.)        Total (a.u.)
 ------------------------------------------------------------------------------------

 L = 1.  Multiply by 2.5417464519 to convert [e a0] to [Debye]
 Dipole X            :          0.0000000            0.0000000            0.0000000
 Dipole Y            :          0.0000000            0.0000000            0.0000000
 Dipole Z            :          0.0000000            0.0000000            0.0000000
 Magnitude           :                                                    0.0000000

 L = 2.  Multiply by 1.3450342976 to convert [e a0^2] to [Debye ang]
 Quadrupole XX       :         -7.2588552            0.0000000           -7.2588552
 Quadrupole XY       :          0.0000000            0.0000000            0.0000000
 Quadrupole XZ       :          0.0000000            0.0000000            0.0000000
 Quadrupole YY       :         -6.0036456            0.0000000           -6.0036456
 Quadrupole YZ       :          0.0000000            0.0000000            0.0000000
 Quadrupole ZZ       :        -22.0060595           18.5801685           -3.4258910
 Traceless XX        :          4.4973316           -6.1933895           -1.6960579
 Traceless YY        :          5.7525412           -6.1933895           -0.4408483
 Traceless ZZ        :        -10.2498728           12.3867790            2.1369062

 ------------------------------------------------------------------------------------
  ==> Computing MBIS Charges <==

  Electron Count from Grid (Expected Number): 11.00000 (11.00000)
  Difference:  0.00000

  MBIS Charges: (a.u.)
   Center  Symbol  Z      Pop.       Charge
      1       C    6    5.500000    0.500000
      2       C    6    5.500000    0.500000

  MBIS Dipoles: [e a0]
   Center  Symbol  Z        X           Y           Z
      1       C    6   -0.000000    0.000000   -0.398028
      2       C    6   -0.000000    0.000000    0.398028

  MBIS Quadrupoles: [e a0^2]
   Center  Symbol  Z      XX        XY        XZ        YY        YZ        ZZ
      1       C    6   -3.6294    0.0000   -0.0000   -3.0018   -0.0000   -3.4777
      2       C    6   -3.6294    0.0000    0.0000   -3.0018    0.0000   -3.4777

  MBIS Octupoles: [e a0^3]
   Center  Symbol  Z      XXX       XXY       XXZ       XYY       XYZ       XZZ       YYY       YYZ       YZZ       ZZZ
      1       C    6   -0.0000    0.0000   -0.5471   -0.0000   -0.0000   -0.0000    0.0000   -0.3452    0.0000   -0.9243
      2       C    6   -0.0000    0.0000    0.5471   -0.0000   -0.0000   -0.0000    0.0000    0.3452    0.0000    0.9243

  MBIS Radial Moments:
   Center  Symbol  Z      [a0^2]      [a0^3]      [a0^4]
      1       C    6   10.108923   22.277261   58.571412
      2       C    6   10.108923   22.277261   58.571412

  MBIS Valence Widths: [a0]
   Center  Symbol  Z     Width
      1       C    6    0.472757
      2       C    6    0.472757

*** tstop() called on Mac.lan at Sun Aug 10 18:16:13 2025
Module time:
	user time   =       3.95 seconds =       0.07 minutes
	system time =       2.50 seconds =       0.04 minutes
	total time  =          1 seconds =       0.02 minutes
Total time:
	user time   =      16.26 seconds =       0.27 minutes
	system time =       4.89 seconds =       0.08 minutes
	total time  =          2 seconds =       0.03 minutes

    Psi4 stopped on: Sunday, 10 August 2025 06:16PM
    Psi4 wall time for execution: 0:00:02.12

*** Psi4 exiting successfully. Buy a developer a beer!
