                               Psi4 1.9.1 release

  ==> Input File <==

--------------------------------------------------------------------------
molecule {
1 2
N           0.000000           0.000000           0.000000
N           0.000000           0.000000           1.007824
}

set {
basis              cc-pvtz
reference          uks
maxiter            500
DAMPING_PERCENTAGE 1
E_CONVERGENCE      1.0E-8
D_CONVERGENCE      1.0E-8
DIIS_MAX_VECS      400
MBIS_MAXITER       8000
guess              read
}

E, wfn = energy('b3lyp', restart_file='last_wfn', return_wfn=True)
properties('b3lyp','MBIS_CHARGES', wfn=wfn)
wfn.to_file('last_wfn')
--------------------------------------------------------------------------

    Molecular point group: d2h
  Charge       = 1
  Multiplicity = 2
  Basis Set: CC-PVTZ
    Blend: CC-PVTZ
  Basis Set: (CC-PVTZ AUX)
    Blend: CC-PVTZ-JKFIT
  @DF-UKS Final Energy:  -108.95719689093487
    Total Energy =                       -108.9571968909348669
 Dipole X            :          0.0000000            0.0000000            0.0000000
 Dipole Y            :          0.0000000            0.0000000            0.0000000
 Dipole Z            :          0.0000000           -0.0000000           -0.0000000
 Magnitude           :                                                    0.0000000
    Molecular point group: d2h

    Geometry (in Angstrom), charge = 1, multiplicity = 2:

       Center              X                  Y                   Z               Mass
    ------------   -----------------  -----------------  -----------------  -----------------
         N            0.000000000000     0.000000000000    -0.503912000000    14.003074004430
         N            0.000000000000     0.000000000000     0.503912000000    14.003074004430

  Charge       = 1
  Multiplicity = 2
  Basis Set: CC-PVTZ
    Blend: CC-PVTZ
  Basis Set: (CC-PVTZ AUX)
    Blend: CC-PVTZ-JKFIT

    Orbital Energies [Eh]
    ---------------------

    Alpha Occupied:

       1Ag   -14.900733     1B1u  -14.896683     2Ag    -1.639773
       2B1u   -0.996815     1B2u   -0.930654     1B3u   -0.930654
       3Ag    -0.916854

    Alpha Virtual:

       1B3g   -0.402978     1B2g   -0.402978     3B1u    0.016414
       2B3u    0.061928     2B2u    0.061928     4Ag     0.092979
       5Ag     0.126921     2B3g    0.228788     2B2g    0.228788
       4B1u    0.367272     6Ag     0.456633     1B1g    0.456633
       5B1u    0.612535     3B3u    0.749952     3B2u    0.749952
       6B1u    0.927563     1Au     0.927563     7Ag     1.275873
       3B2g    1.319188     3B3g    1.319188     7B1u    1.682047
       4B2u    2.301167     4B3u    2.301167     8Ag     2.540008
       4B2g    2.744534     4B3g    2.744534     8B1u    2.887345
       2B1g    3.067943     9Ag     3.067943     5B3u    3.140790
       5B2u    3.140790     6B2u    3.218168     6B3u    3.218168
      10Ag     3.565263     5B3g    3.737305     5B2g    3.737305
       3B1g    3.920188    11Ag     3.920189     6B2g    3.922721
       6B3g    3.922721     2Au     4.048603     9B1u    4.048604
      10B1u    4.396753    12Ag     4.531003     7B2u    4.661867
       7B3u    4.661867    11B1u    4.688270     3Au     4.688271
      12B1u    5.510027     7B2g    6.349183     7B3g    6.349183
      13Ag     6.663127    13B1u   18.840532

    Beta Occupied:

       1Ag   -14.887093     1B1u  -14.883436     2Ag    -1.609794
       1B2u   -0.917099     1B3u   -0.917099     2B1u   -0.902465

    Beta Virtual:

       3Ag    -0.736792     1B3g   -0.377943     1B2g   -0.377943
       3B1u    0.027413     2B3u    0.066183     2B2u    0.066183
       4Ag     0.109300     5Ag     0.155891     2B3g    0.235011
       2B2g    0.235011     4B1u    0.417739     1B1g    0.461244
       6Ag     0.461244     5B1u    0.625549     3B3u    0.782315
       3B2u    0.782315     6B1u    0.939199     1Au     0.939199
       7Ag     1.315517     3B2g    1.343697     3B3g    1.343697
       7B1u    1.723184     4B2u    2.311456     4B3u    2.311456
       8Ag     2.573213     4B2g    2.754448     4B3g    2.754448
       8B1u    2.936217     2B1g    3.082410     9Ag     3.082411
       5B3u    3.146820     5B2u    3.146820     6B2u    3.255285
       6B3u    3.255285    10Ag     3.643914     5B3g    3.746213
       5B2g    3.746213     3B1g    3.941451    11Ag     3.941451
       6B2g    3.985157     6B3g    3.985157     2Au     4.068639
       9B1u    4.068639    10B1u    4.446928    12Ag     4.570215
      11B1u    4.709683     3Au     4.709684     7B2u    4.714990
       7B3u    4.714990    12B1u    5.571416     7B2g    6.383268
       7B3g    6.383268    13Ag     6.693845    13B1u   18.860118

    Final Occupation by Irrep:
             Ag   B1g   B2g   B3g    Au   B1u   B2u   B3u
    DOCC [     2,    0,    0,    0,    0,    2,    1,    1 ]
    SOCC [     1,    0,    0,    0,    0,    0,    0,    0 ]
    NA   [     3,    0,    0,    0,    0,    2,    1,    1 ]
    NB   [     2,    0,    0,    0,    0,    2,    1,    1 ]

  @DF-UKS Final Energy:  -108.95719689098971

   => Energetics <=

    Nuclear Repulsion Energy =             25.7283844429483715
    One-Electron Energy =                -192.2415622365312800
    Two-Electron Energy =                  68.3983336481461492
    DFT Exchange-Correlation Energy =     -10.8423527455529367
    Empirical Dispersion Energy =           0.0000000000000000
    VV10 Nonlocal Energy =                  0.0000000000000000
    Total Energy =                       -108.9571968909897066

  UHF NO Occupations:
  HONO-2 :    2 Ag 1.9999072
  HONO-1 :    2B1u 1.9987548
  HONO-0 :    3 Ag 1.0000000
  LUNO+0 :    3B1u 0.0012452
  LUNO+1 :    4 Ag 0.0000928
  LUNO+2 :    2B3u 0.0000799
  LUNO+3 :    2B2u 0.0000799

Computation Completed

Properties will be evaluated at   0.000000,   0.000000,   0.000000 [a0]

Properties computed using the B3LYP density matrix

 Multipole Moments:

 ------------------------------------------------------------------------------------
     Multipole            Electronic (a.u.)      Nuclear  (a.u.)        Total (a.u.)
 ------------------------------------------------------------------------------------

 L = 1.  Multiply by 2.5417464519 to convert [e a0] to [Debye]
 Dipole X            :          0.0000000            0.0000000            0.0000000
 Dipole Y            :          0.0000000            0.0000000            0.0000000
 Dipole Z            :          0.0000000           -0.0000000           -0.0000000
 Magnitude           :                                                    0.0000000

 L = 2.  Multiply by 1.3450342976 to convert [e a0^2] to [Debye ang]
 Quadrupole XX       :         -5.9434750            0.0000000           -5.9434750
 Quadrupole XY       :          0.0000000            0.0000000            0.0000000
 Quadrupole XZ       :          0.0000000            0.0000000            0.0000000
 Quadrupole YY       :         -5.9434750            0.0000000           -5.9434750
 Quadrupole YZ       :          0.0000000            0.0000000            0.0000000
 Quadrupole ZZ       :        -17.3226580           12.6950721           -4.6275859
 Traceless XX        :          3.7930610           -4.2316907           -0.4386297
 Traceless YY        :          3.7930610           -4.2316907           -0.4386297
 Traceless ZZ        :         -7.5861220            8.4633814            0.8772594

 ------------------------------------------------------------------------------------
  ==> Computing MBIS Charges <==

  Electron Count from Grid (Expected Number): 13.00000 (13.00000)
  Difference: -0.00000

  MBIS Charges: (a.u.)
   Center  Symbol  Z      Pop.       Charge
      1       N    7    6.500000    0.500000
      2       N    7    6.500000    0.500000

  MBIS Dipoles: [e a0]
   Center  Symbol  Z        X           Y           Z
      1       N    7   -0.000000   -0.000000   -0.197065
      2       N    7   -0.000000   -0.000000    0.197065

  MBIS Quadrupoles: [e a0^2]
   Center  Symbol  Z      XX        XY        XZ        YY        YZ        ZZ
      1       N    7   -2.9717    0.0000   -0.0000   -2.9717   -0.0000   -3.1425
      2       N    7   -2.9717    0.0000    0.0000   -2.9717   -0.0000   -3.1425

  MBIS Octupoles: [e a0^3]
   Center  Symbol  Z      XXX       XXY       XXZ       XYY       XYZ       XZZ       YYY       YYZ       YZZ       ZZZ
      1       N    7   -0.0000   -0.0000   -0.1445    0.0000    0.0000    0.0000   -0.0000   -0.1445   -0.0000   -0.2960
      2       N    7   -0.0000   -0.0000    0.1445    0.0000   -0.0000    0.0000   -0.0000    0.1445   -0.0000    0.2960

  MBIS Radial Moments:
   Center  Symbol  Z      [a0^2]      [a0^3]      [a0^4]
      1       N    7    9.085975   16.970616   37.836404
      2       N    7    9.085975   16.970616   37.836404

  MBIS Valence Widths: [a0]
   Center  Symbol  Z     Width
      1       N    7    0.396810
      2       N    7    0.396810

*** tstop() called on Mac.lan at Sun Aug 10 18:24:16 2025
Module time:
	user time   =       3.68 seconds =       0.06 minutes
	system time =       2.79 seconds =       0.05 minutes
	total time  =          0 seconds =       0.00 minutes
Total time:
	user time   =      17.41 seconds =       0.29 minutes
	system time =       5.53 seconds =       0.09 minutes
	total time  =          2 seconds =       0.03 minutes

    Psi4 stopped on: Sunday, 10 August 2025 06:24PM
    Psi4 wall time for execution: 0:00:02.28

*** Psi4 exiting successfully. Buy a developer a beer!
