                               Psi4 1.9.1 release

  ==> Input File <==

--------------------------------------------------------------------------
molecule {
1 3
N           0.000000           0.000000           0.000000
C           0.000000           0.000000           0.784179
}

set {
basis              cc-pvtz
reference          uks
maxiter            500
DAMPING_PERCENTAGE 1
E_CONVERGENCE      1.0E-8
D_CONVERGENCE      1.0E-8
DIIS_MAX_VECS      400
MBIS_MAXITER       8000
guess              read
}

E, wfn = energy('b3lyp', restart_file='last_wfn', return_wfn=True)
properties('b3lyp','MBIS_CHARGES', wfn=wfn)
wfn.to_file('last_wfn')
--------------------------------------------------------------------------

    Molecular point group: c2v
  Charge       = 1
  Multiplicity = 3
  Basis Set: CC-PVTZ
    Blend: CC-PVTZ
  Basis Set: (CC-PVTZ AUX)
    Blend: CC-PVTZ-JKFIT
  @DF-UKS Final Energy:   -91.50270468115760
    Total Energy =                        -91.5027046811575957
 Dipole X            :          0.0000000            0.0000000            0.0000000
 Dipole Y            :          0.0000000            0.0000000            0.0000000
 Dipole Z            :          0.0468688            0.0010511            0.0479199
 Magnitude           :                                                    0.0479199
    Molecular point group: c2v

    Geometry (in Angstrom), charge = 1, multiplicity = 3:

       Center              X                  Y                   Z               Mass
    ------------   -----------------  -----------------  -----------------  -----------------
         N            0.000000000000     0.000000000000    -0.361885983111    14.003074004430
         C            0.000000000000     0.000000000000     0.422293016889    12.000000000000

  Charge       = 1
  Multiplicity = 3
  Basis Set: CC-PVTZ
    Blend: CC-PVTZ
  Basis Set: (CC-PVTZ AUX)
    Blend: CC-PVTZ-JKFIT

    Orbital Energies [Eh]
    ---------------------

    Alpha Occupied:

       1A1   -14.815269     2A1   -10.668169     3A1    -1.477732
       1B2    -0.960370     1B1    -0.960370     4A1    -0.933828
       5A1    -0.795454

    Alpha Virtual:

       2B1    -0.213084     2B2    -0.213084     6A1    -0.095254
       3B2    -0.023944     3B1    -0.023944     7A1    -0.000851
       8A1     0.122769     4B1     0.239353     4B2     0.239353
       1A2     0.286664     9A1     0.286664    10A1     0.530598
       5B2     0.648456     5B1     0.648456    11A1     0.695211
      12A1     0.895497     2A2     0.895497     6B2     1.143802
       6B1     1.143802    13A1     1.162534     7B1     1.524676
       7B2     1.524676    14A1     1.872859    15A1     2.054113
       8B1     2.234189     8B2     2.234189     3A2     2.416722
      16A1     2.416723     9B2     2.519098     9B1     2.519098
      17A1     2.542406    18A1     2.620717     4A2     2.620717
      10B2     2.935883    10B1     2.935883    19A1     3.026704
      11B2     3.336569    11B1     3.336569    12B2     3.702954
      12B1     3.702954    20A1     4.046319     5A2     4.046319
      21A1     4.232135    13B1     4.689149    13B2     4.689149
      22A1     4.905730     6A2     4.905730    23A1     5.221824
      14B1     6.079072    14B2     6.079072    24A1     6.090247
      25A1     7.608544    26A1    17.799160

    Beta Occupied:

       1A1   -14.786176     2A1   -10.639183     3A1    -1.431435
       1B2    -0.927082     1B1    -0.927082

    Beta Virtual:

       4A1    -0.646635     5A1    -0.549669     2B1    -0.157400
       2B2    -0.157400     6A1    -0.068619     3B2    -0.010981
       3B1    -0.010981     7A1     0.038345     8A1     0.167887
       4B1     0.261438     4B2     0.261438     1A2     0.300815
       9A1     0.300815    10A1     0.583519     5B2     0.695140
       5B1     0.695140    11A1     0.766092     2A2     0.918535
      12A1     0.918535     6B2     1.178812     6B1     1.178812
      13A1     1.251076     7B1     1.565532     7B2     1.565532
      14A1     1.927879    15A1     2.193160     8B1     2.256815
       8B2     2.256815     3A2     2.444194    16A1     2.444194
      17A1     2.625434     9B2     2.627348     9B1     2.627348
       4A2     2.688786    18A1     2.688789    10B2     2.966056
      10B1     2.966056    19A1     3.142071    11B2     3.417932
      11B1     3.417932    12B2     3.727588    12B1     3.727588
       5A2     4.107309    20A1     4.107312    21A1     4.367282
      13B1     4.792115    13B2     4.792115     6A2     4.945334
      22A1     4.945338    23A1     5.320746    14B1     6.153634
      14B2     6.153634    24A1     6.184238    25A1     7.657555
      26A1    17.852325

    Final Occupation by Irrep:
             A1    A2    B1    B2
    DOCC [     3,    0,    1,    1 ]
    SOCC [     2,    0,    0,    0 ]
    NA   [     5,    0,    1,    1 ]
    NB   [     3,    0,    1,    1 ]

  @DF-UKS Final Energy:   -91.50270468251055

   => Energetics <=

    Nuclear Repulsion Energy =             28.3423081313577754
    One-Electron Energy =                -173.1452072673139924
    Two-Electron Energy =                  63.3472503211467384
    DFT Exchange-Correlation Energy =     -10.0470558677010953
    Empirical Dispersion Energy =           0.0000000000000000
    VV10 Nonlocal Energy =                  0.0000000000000000
    Total Energy =                        -91.5027046825105685

  UHF NO Occupations:
  HONO-2 :    1 B2 1.9997154
  HONO-1 :    4 A1 1.0000000
  HONO-0 :    5 A1 1.0000000
  LUNO+0 :    2 B2 0.0002846
  LUNO+1 :    2 B1 0.0002846
  LUNO+2 :    6 A1 0.0002195
  LUNO+3 :    7 A1 0.0000009

Computation Completed

Properties will be evaluated at   0.000000,   0.000000,   0.000000 [a0]

Properties computed using the B3LYP density matrix

 Multipole Moments:

 ------------------------------------------------------------------------------------
     Multipole            Electronic (a.u.)      Nuclear  (a.u.)        Total (a.u.)
 ------------------------------------------------------------------------------------

 L = 1.  Multiply by 2.5417464519 to convert [e a0] to [Debye]
 Dipole X            :          0.0000000            0.0000000            0.0000000
 Dipole Y            :          0.0000000            0.0000000            0.0000000
 Dipole Z            :          0.0468688            0.0010511            0.0479199
 Magnitude           :                                                    0.0479199

 L = 2.  Multiply by 1.3450342976 to convert [e a0^2] to [Debye ang]
 Quadrupole XX       :         -5.4149950            0.0000000           -5.4149950
 Quadrupole XY       :          0.0000000            0.0000000            0.0000000
 Quadrupole XZ       :          0.0000000            0.0000000            0.0000000
 Quadrupole YY       :         -5.4149950            0.0000000           -5.4149950
 Quadrupole YZ       :          0.0000000            0.0000000            0.0000000
 Quadrupole ZZ       :        -11.1578379            7.0947009           -4.0631370
 Traceless XX        :          1.9142810           -2.3649003           -0.4506193
 Traceless YY        :          1.9142810           -2.3649003           -0.4506193
 Traceless ZZ        :         -3.8285620            4.7298006            0.9012387

 ------------------------------------------------------------------------------------
  ==> Computing MBIS Charges <==

  Electron Count from Grid (Expected Number): 12.00000 (12.00000)
  Difference:  0.00000

  MBIS Charges: (a.u.)
   Center  Symbol  Z      Pop.       Charge
      1       N    7    6.633848    0.366152
      2       C    6    5.366152    0.633848

  MBIS Dipoles: [e a0]
   Center  Symbol  Z        X           Y           Z
      1       N    7   -0.000000   -0.000000   -0.413847
      2       C    6   -0.000000    0.000000    0.206344

  MBIS Quadrupoles: [e a0^2]
   Center  Symbol  Z      XX        XY        XZ        YY        YZ        ZZ
      1       N    7   -2.8380   -0.0000    0.0000   -2.8380   -0.0000   -2.7770
      2       C    6   -2.5770    0.0000    0.0000   -2.5770    0.0000   -2.7564

  MBIS Octupoles: [e a0^3]
   Center  Symbol  Z      XXX       XXY       XXZ       XYY       XYZ       XZZ       YYY       YYZ       YZZ       ZZZ
      1       N    7   -0.0000   -0.0000   -0.2204   -0.0000    0.0000   -0.0000   -0.0000   -0.2204    0.0000   -0.3458
      2       C    6   -0.0000   -0.0000    0.1010   -0.0000    0.0000    0.0000    0.0000    0.1010    0.0000   -0.1854

  MBIS Radial Moments:
   Center  Symbol  Z      [a0^2]      [a0^3]      [a0^4]
      1       N    7    8.453012   15.035999   32.024039
      2       C    6    7.910372   15.739790   37.555467

  MBIS Valence Widths: [a0]
   Center  Symbol  Z     Width
      1       N    7    0.375182
      2       C    6    0.419715

*** tstop() called on Mac.lan at Sun Aug 10 18:33:29 2025
Module time:
	user time   =       4.15 seconds =       0.07 minutes
	system time =       2.08 seconds =       0.03 minutes
	total time  =          0 seconds =       0.00 minutes
Total time:
	user time   =      19.07 seconds =       0.32 minutes
	system time =       3.79 seconds =       0.06 minutes
	total time  =          2 seconds =       0.03 minutes

    Psi4 stopped on: Sunday, 10 August 2025 06:33PM
    Psi4 wall time for execution: 0:00:02.26

*** Psi4 exiting successfully. Buy a developer a beer!
