                               Psi4 1.9.1 release

  ==> Input File <==

--------------------------------------------------------------------------
molecule {
1 2
O           0.000000           0.000000           0.000000
O           0.000000           0.000000           1.374990
}

set {
basis              cc-pvtz
reference          uks
maxiter            500
DAMPING_PERCENTAGE 1
E_CONVERGENCE      1.0E-8
D_CONVERGENCE      1.0E-8
DIIS_MAX_VECS      400
MBIS_MAXITER       8000
guess              read
}

E, wfn = energy('b3lyp', restart_file='last_wfn', return_wfn=True)
properties('b3lyp','MBIS_CHARGES', wfn=wfn)
wfn.to_file('last_wfn')
--------------------------------------------------------------------------

    Molecular point group: d2h
  Charge       = 1
  Multiplicity = 2
  Basis Set: CC-PVTZ
    Blend: CC-PVTZ
  Basis Set: (CC-PVTZ AUX)
    Blend: CC-PVTZ-JKFIT
  @DF-UKS Final Energy:  -149.83539242495794
    Total Energy =                       -149.8353924249579450
 Dipole X            :          0.0000000            0.0000000            0.0000000
 Dipole Y            :          0.0000000            0.0000000            0.0000000
 Dipole Z            :          0.0000000            0.0000000            0.0000000
 Magnitude           :                                                    0.0000000
    Molecular point group: d2h

    Geometry (in Angstrom), charge = 1, multiplicity = 2:

       Center              X                  Y                   Z               Mass
    ------------   -----------------  -----------------  -----------------  -----------------
         O            0.000000000000     0.000000000000    -0.687495000000    15.994914619570
         O            0.000000000000     0.000000000000     0.687495000000    15.994914619570

  Charge       = 1
  Multiplicity = 2
  Basis Set: CC-PVTZ
    Blend: CC-PVTZ
  Basis Set: (CC-PVTZ AUX)
    Blend: CC-PVTZ-JKFIT

    Orbital Energies [Eh]
    ---------------------

    Alpha Occupied:

       1Ag   -19.824015     1B1u  -19.823878     2Ag    -1.646568
       2B1u   -1.317356     3Ag    -0.967132     1B3u   -0.960479
       1B2u   -0.915810     1B2g   -0.799796

    Alpha Virtual:

       1B3g   -0.677994     3B1u   -0.429030     4B1u    0.156994
       2B3u    0.160328     2B2u    0.165875     4Ag     0.246951
       2B2g    0.284890     2B3g    0.291581     5Ag     0.295648
       3B2u    0.805177     3B3u    0.807855     5B1u    0.813772
       1B1g    0.852135     6Ag     0.853421     1Au     1.148072
       6B1u    1.149626     7Ag     1.444960     3B2g    1.640257
       3B3g    1.641300     7B1u    1.807971     4B3u    2.928048
       4B2u    2.944982     8Ag     2.985696     4B2g    3.147770
       4B3g    3.163267     8B1u    3.983725     5B2u    4.170196
       5B3u    4.174203     2B1g    4.263207     9Ag     4.264461
      10Ag     4.281381     6B3u    4.525495     6B2u    4.525773
       5B2g    4.628438     5B3g    4.628723     2Au     4.924848
       9B1u    4.926510     6B2g    5.450881     6B3g    5.456100
       3B1g    5.532905    11Ag     5.536926     3Au     5.710757
      10B1u    5.710902     7B3u    5.712651    11B1u    5.716670
       7B2u    5.722238    12Ag     6.151531    12B1u    6.159144
       7B2g    6.394943     7B3g    6.397302    13Ag     7.031176
      13B1u    8.959229

    Beta Occupied:

       1Ag   -19.807817     1B1u  -19.807628     2Ag    -1.613739
       2B1u   -1.270231     3Ag    -0.949168     1B2u   -0.901769
       1B3u   -0.858096

    Beta Virtual:

       1B3g   -0.660791     1B2g   -0.612703     3B1u   -0.407675
       4B1u    0.162515     2B2u    0.170609     2B3u    0.191742
       4Ag     0.251853     2B3g    0.296208     5Ag     0.306105
       2B2g    0.314534     3B2u    0.806653     5B1u    0.829148
       3B3u    0.831365     6Ag     0.875578     1B1g    0.875613
       1Au     1.178790     6B1u    1.178986     7Ag     1.461476
       3B3g    1.645169     3B2g    1.671396     7B1u    1.817894
       4B2u    2.955626     4B3u    2.992943     8Ag     2.995187
       4B3g    3.175265     4B2g    3.215503     8B1u    4.000581
       5B2u    4.174297     5B3u    4.205204     9Ag     4.274909
       2B1g    4.286943    10Ag     4.311249     6B2u    4.563506
       6B3u    4.563550     5B3g    4.666943     5B2g    4.666963
       2Au     4.952987     9B1u    4.953074     6B3g    5.462584
       6B2g    5.497702    11Ag     5.592076     3B1g    5.592256
      10B1u    5.725953     7B2u    5.729272     3Au     5.767865
       7B3u    5.768079    11B1u    5.771601    12Ag     6.164971
      12B1u    6.180769     7B3g    6.401817     7B2g    6.435821
      13Ag     7.062350    13B1u    8.980035

    Final Occupation by Irrep:
             Ag   B1g   B2g   B3g    Au   B1u   B2u   B3u
    DOCC [     3,    0,    0,    0,    0,    2,    1,    1 ]
    SOCC [     0,    0,    1,    0,    0,    0,    0,    0 ]
    NA   [     3,    0,    1,    0,    0,    2,    1,    1 ]
    NB   [     3,    0,    0,    0,    0,    2,    1,    1 ]

  @DF-UKS Final Energy:  -149.83539242492867

   => Energetics <=

    Nuclear Repulsion Energy =             24.6309729400795661
    One-Electron Energy =                -247.9315309492127142
    Two-Electron Energy =                  86.7280726734105230
    DFT Exchange-Correlation Energy =     -13.2629070892060401
    Empirical Dispersion Energy =           0.0000000000000000
    VV10 Nonlocal Energy =                  0.0000000000000000
    Total Energy =                       -149.8353924249286422

  UHF NO Occupations:
  HONO-2 :    2B1u 1.9997342
  HONO-1 :    1B3u 1.9987453
  HONO-0 :    1B2g 1.0000000
  LUNO+0 :    2B3u 0.0012547
  LUNO+1 :    3B1u 0.0002658
  LUNO+2 :    4 Ag 0.0001476
  LUNO+3 :    2B2u 0.0000390

Computation Completed

Properties will be evaluated at   0.000000,   0.000000,   0.000000 [a0]

Properties computed using the B3LYP density matrix

 Multipole Moments:

 ------------------------------------------------------------------------------------
     Multipole            Electronic (a.u.)      Nuclear  (a.u.)        Total (a.u.)
 ------------------------------------------------------------------------------------

 L = 1.  Multiply by 2.5417464519 to convert [e a0] to [Debye]
 Dipole X            :          0.0000000            0.0000000            0.0000000
 Dipole Y            :          0.0000000            0.0000000            0.0000000
 Dipole Z            :          0.0000000            0.0000000            0.0000000
 Magnitude           :                                                    0.0000000

 L = 2.  Multiply by 1.3450342976 to convert [e a0^2] to [Debye ang]
 Quadrupole XX       :         -6.4576321            0.0000000           -6.4576321
 Quadrupole XY       :          0.0000000            0.0000000            0.0000000
 Quadrupole XZ       :          0.0000000            0.0000000            0.0000000
 Quadrupole YY       :         -5.9107131            0.0000000           -5.9107131
 Quadrupole YZ       :          0.0000000            0.0000000            0.0000000
 Quadrupole ZZ       :        -31.1172070           27.0057850           -4.1114221
 Traceless XX        :          8.0375520           -9.0019283           -0.9643763
 Traceless YY        :          8.5844710           -9.0019283           -0.4174573
 Traceless ZZ        :        -16.6220230           18.0038566            1.3818337

 ------------------------------------------------------------------------------------
  ==> Computing MBIS Charges <==

  Electron Count from Grid (Expected Number): 15.00000 (15.00000)
  Difference: -0.00000

  MBIS Charges: (a.u.)
   Center  Symbol  Z      Pop.       Charge
      1       O    8    7.500000    0.500000
      2       O    8    7.500000    0.500000

  MBIS Dipoles: [e a0]
   Center  Symbol  Z        X           Y           Z
      1       O    8    0.000000    0.000000   -0.082604
      2       O    8   -0.000000   -0.000000    0.082604

  MBIS Quadrupoles: [e a0^2]
   Center  Symbol  Z      XX        XY        XZ        YY        YZ        ZZ
      1       O    8   -3.2288   -0.0000    0.0000   -2.9554    0.0000   -3.1143
      2       O    8   -3.2288   -0.0000    0.0000   -2.9554   -0.0000   -3.1143

  MBIS Octupoles: [e a0^3]
   Center  Symbol  Z      XXX       XXY       XXZ       XYY       XYZ       XZZ       YYY       YYZ       YZZ       ZZZ
      1       O    8   -0.0000   -0.0000   -0.0782   -0.0000   -0.0000   -0.0000    0.0000   -0.1352    0.0000   -0.4014
      2       O    8   -0.0000   -0.0000    0.0782   -0.0000    0.0000   -0.0000   -0.0000    0.1352   -0.0000    0.4014

  MBIS Radial Moments:
   Center  Symbol  Z      [a0^2]      [a0^3]      [a0^4]
      1       O    8    9.298450   16.310198   34.343959
      2       O    8    9.298450   16.310198   34.343959

  MBIS Valence Widths: [a0]
   Center  Symbol  Z     Width
      1       O    8    0.365153
      2       O    8    0.365153

*** tstop() called on Mac.lan at Sun Aug 10 18:13:51 2025
Module time:
	user time   =       4.23 seconds =       0.07 minutes
	system time =       2.17 seconds =       0.04 minutes
	total time  =          0 seconds =       0.00 minutes
Total time:
	user time   =      14.64 seconds =       0.24 minutes
	system time =       4.29 seconds =       0.07 minutes
	total time  =          1 seconds =       0.02 minutes

    Psi4 stopped on: Sunday, 10 August 2025 06:13PM
    Psi4 wall time for execution: 0:00:01.85

*** Psi4 exiting successfully. Buy a developer a beer!
