                               Psi4 1.9.1 release

  ==> Input File <==

--------------------------------------------------------------------------
molecule {
1 1
C           0.000000           0.000000           0.000000
H           0.000000           0.000000           0.932570
}

set {
basis              cc-pvtz
reference          uks
maxiter            500
DAMPING_PERCENTAGE 1
E_CONVERGENCE      1.0E-8
D_CONVERGENCE      1.0E-8
DIIS_MAX_VECS      400
MBIS_MAXITER       8000
guess              read
}

E, wfn = energy('b3lyp', restart_file='last_wfn', return_wfn=True)
properties('b3lyp','MBIS_CHARGES', wfn=wfn)
wfn.to_file('last_wfn')
--------------------------------------------------------------------------

    Molecular point group: c2v
  Charge       = 1
  Multiplicity = 1
  Basis Set: CC-PVTZ
    Blend: CC-PVTZ
  Basis Set: (CC-PVTZ AUX)
    Blend: CC-PVTZ-JKFIT
  @DF-UKS Final Energy:   -38.06124078858729
    Total Energy =                        -38.0612407885872983
 Dipole X            :          0.0000000            0.0000000            0.0000000
 Dipole Y            :          0.0000000            0.0000000            0.0000000
 Dipole Z            :         -0.0994120            0.8065200            0.7071080
 Magnitude           :                                                    0.7071080
    Molecular point group: c2v

    Geometry (in Angstrom), charge = 1, multiplicity = 1:

       Center              X                  Y                   Z               Mass
    ------------   -----------------  -----------------  -----------------  -----------------
         C            0.000000000000     0.000000000000    -0.072254000033    12.000000000000
         H            0.000000000000     0.000000000000     0.860315999967     1.007825032230

  Charge       = 1
  Multiplicity = 1
  Basis Set: CC-PVTZ
    Blend: CC-PVTZ
  Basis Set: (CC-PVTZ AUX)
    Blend: CC-PVTZ-JKFIT

    Orbital Energies [Eh]
    ---------------------

    Alpha Occupied:

       1A1   -10.793806     2A1    -1.122357     3A1    -0.736068

    Alpha Virtual:

       1B1    -0.555436     1B2    -0.555436     4A1    -0.184749
       2B2     0.006090     2B1     0.006090     5A1     0.007536
       6A1     0.032974     7A1     0.211334     3B2     0.244376
       3B1     0.244376     1A2     0.311408     8A1     0.311408
       9A1     0.659856     4B1     0.744090     4B2     0.744090
      10A1     1.286661     5B2     1.537667     5B1     1.537667
      11A1     1.542121    12A1     1.750139     2A2     2.129315
      13A1     2.129315     6B1     2.240489     6B2     2.240489
       7B2     2.244433     7B1     2.244433     3A2     2.480756
      14A1     2.480756    15A1     2.588517     8B1     2.638337
       8B2     2.638337    16A1     3.171450    17A1     3.376666
       4A2     3.376666     9B2     3.528121     9B1     3.528121
      18A1     4.666439    10B1     4.759151    10B2     4.759151
      19A1     4.901322    20A1    10.039734

    Beta Occupied:

       1A1   -10.793806     2A1    -1.122357     3A1    -0.736068

    Beta Virtual:

       1B1    -0.555436     1B2    -0.555436     4A1    -0.184749
       2B2     0.006090     2B1     0.006090     5A1     0.007536
       6A1     0.032974     7A1     0.211334     3B2     0.244376
       3B1     0.244376     1A2     0.311408     8A1     0.311408
       9A1     0.659856     4B1     0.744090     4B2     0.744090
      10A1     1.286661     5B2     1.537667     5B1     1.537667
      11A1     1.542121    12A1     1.750139     2A2     2.129315
      13A1     2.129315     6B2     2.240489     6B1     2.240489
       7B2     2.244433     7B1     2.244433     3A2     2.480756
      14A1     2.480756    15A1     2.588517     8B1     2.638337
       8B2     2.638337    16A1     3.171450    17A1     3.376666
       4A2     3.376666     9B2     3.528121     9B1     3.528121
      18A1     4.666439    10B1     4.759151    10B2     4.759151
      19A1     4.901322    20A1    10.039734

    Final Occupation by Irrep:
             A1    A2    B1    B2
    DOCC [     3,    0,    0,    0 ]
    SOCC [     0,    0,    0,    0 ]
    NA   [     3,    0,    0,    0 ]
    NB   [     3,    0,    0,    0 ]

  @DF-UKS Final Energy:   -38.06124078851325

   => Energetics <=

    Nuclear Repulsion Energy =              3.4046380046752525
    One-Electron Energy =                 -54.4970823568905445
    Two-Electron Energy =                  17.3622015827300658
    DFT Exchange-Correlation Energy =      -4.3309980190280228
    Empirical Dispersion Energy =           0.0000000000000000
    VV10 Nonlocal Energy =                  0.0000000000000000
    Total Energy =                        -38.0612407885132527

  UHF NO Occupations:
  HONO-2 :    1 A1 2.0000000
  HONO-1 :    2 A1 2.0000000
  HONO-0 :    3 A1 2.0000000
  LUNO+0 :    4 A1 0.0000000
  LUNO+1 :    5 A1 0.0000000
  LUNO+2 :    6 A1 0.0000000
  LUNO+3 :    7 A1 0.0000000

Computation Completed

Properties will be evaluated at   0.000000,   0.000000,   0.000000 [a0]

Properties computed using the B3LYP density matrix

 Multipole Moments:

 ------------------------------------------------------------------------------------
     Multipole            Electronic (a.u.)      Nuclear  (a.u.)        Total (a.u.)
 ------------------------------------------------------------------------------------

 L = 1.  Multiply by 2.5417464519 to convert [e a0] to [Debye]
 Dipole X            :          0.0000000            0.0000000            0.0000000
 Dipole Y            :          0.0000000            0.0000000            0.0000000
 Dipole Z            :         -0.0994120            0.8065200            0.7071080
 Magnitude           :                                                    0.7071080

 L = 2.  Multiply by 1.3450342976 to convert [e a0^2] to [Debye ang]
 Quadrupole XX       :         -2.7773271            0.0000000           -2.7773271
 Quadrupole XY       :          0.0000000            0.0000000            0.0000000
 Quadrupole XZ       :          0.0000000            0.0000000            0.0000000
 Quadrupole YY       :         -2.7773271            0.0000000           -2.7773271
 Quadrupole YZ       :          0.0000000            0.0000000            0.0000000
 Quadrupole ZZ       :         -6.1807886            2.7549603           -3.4258283
 Traceless XX        :          1.1344872           -0.9183201            0.2161671
 Traceless YY        :          1.1344872           -0.9183201            0.2161671
 Traceless ZZ        :         -2.2689744            1.8366402           -0.4323341

 ------------------------------------------------------------------------------------
  ==> Computing MBIS Charges <==

  Electron Count from Grid (Expected Number):  6.00000 ( 6.00000)
  Difference:  0.00000

  MBIS Charges: (a.u.)
   Center  Symbol  Z      Pop.       Charge
      1       C    6    5.163596    0.836404
      2       H    1    0.836404    0.163596

  MBIS Dipoles: [e a0]
   Center  Symbol  Z        X           Y           Z
      1       C    6    0.000000    0.000000    0.486269
      2       H    1   -0.000000    0.000000    0.069074

  MBIS Quadrupoles: [e a0^2]
   Center  Symbol  Z      XX        XY        XZ        YY        YZ        ZZ
      1       C    6   -2.4657   -0.0000   -0.0000   -2.4657   -0.0000   -3.6475
      2       H    1   -0.3117   -0.0000   -0.0000   -0.3117   -0.0000   -0.3181

  MBIS Octupoles: [e a0^3]
   Center  Symbol  Z      XXX       XXY       XXZ       XYY       XYZ       XZZ       YYY       YYZ       YZZ       ZZZ
      1       C    6   -0.0000    0.0000    0.5657   -0.0000   -0.0000    0.0000    0.0000    0.5657    0.0000    1.4393
      2       H    1    0.0000   -0.0000    0.0046   -0.0000   -0.0000   -0.0000    0.0000    0.0046    0.0000    0.0234

  MBIS Radial Moments:
   Center  Symbol  Z      [a0^2]      [a0^3]      [a0^4]
      1       C    6    8.578814   18.143455   45.793667
      2       H    1    0.941469    1.385344    2.439149

  MBIS Valence Widths: [a0]
   Center  Symbol  Z     Width
      1       C    6    0.455300
      2       H    1    0.312895

*** tstop() called on Mac.lan at Sun Aug 10 18:26:44 2025
Module time:
	user time   =       3.20 seconds =       0.05 minutes
	system time =       1.65 seconds =       0.03 minutes
	total time  =          0 seconds =       0.00 minutes
Total time:
	user time   =      11.33 seconds =       0.19 minutes
	system time =       3.81 seconds =       0.06 minutes
	total time  =          1 seconds =       0.02 minutes

    Psi4 stopped on: Sunday, 10 August 2025 06:26PM
    Psi4 wall time for execution: 0:00:01.48

*** Psi4 exiting successfully. Buy a developer a beer!
