                               Psi4 1.9.1 release

  ==> Input File <==

--------------------------------------------------------------------------
molecule {
1 1
O           0.000000           0.000000           0.000000
N           0.000000           0.000000           0.809127
}

set {
basis              cc-pvtz
reference          uks
maxiter            500
DAMPING_PERCENTAGE 1
E_CONVERGENCE      1.0E-8
D_CONVERGENCE      1.0E-8
DIIS_MAX_VECS      400
MBIS_MAXITER       8000
guess              read
}

E, wfn = energy('b3lyp', restart_file='last_wfn', return_wfn=True)
properties('b3lyp','MBIS_CHARGES', wfn=wfn)
wfn.to_file('last_wfn')
--------------------------------------------------------------------------

    Molecular point group: c2v
  Charge       = 1
  Multiplicity = 1
  Basis Set: CC-PVTZ
    Blend: CC-PVTZ
  Basis Set: (CC-PVTZ AUX)
    Blend: CC-PVTZ-JKFIT
  @DF-UKS Final Energy:  -129.20444120921616
    Total Energy =                       -129.2044412092161565
 Dipole X            :          0.0000000            0.0000000            0.0000000
 Dipole Y            :          0.0000000            0.0000000            0.0000000
 Dipole Z            :         -0.0502841           -0.0030679           -0.0533520
 Magnitude           :                                                    0.0533520
    Molecular point group: c2v

    Geometry (in Angstrom), charge = 1, multiplicity = 1:

       Center              X                  Y                   Z               Mass
    ------------   -----------------  -----------------  -----------------  -----------------
         O            0.000000000000     0.000000000000    -0.377700831946    15.994914619570
         N            0.000000000000     0.000000000000     0.431426168054    14.003074004430

  Charge       = 1
  Multiplicity = 1
  Basis Set: CC-PVTZ
    Blend: CC-PVTZ
  Basis Set: (CC-PVTZ AUX)
    Blend: CC-PVTZ-JKFIT

    Orbital Energies [Eh]
    ---------------------

    Alpha Occupied:

       1A1   -19.751954     2A1   -14.887682     3A1    -2.008160
       1B1    -1.161388     1B2    -1.161388     4A1    -1.081032
       5A1    -0.920636

    Alpha Virtual:

       2B2    -0.331405     2B1    -0.331405     6A1    -0.063705
       3B2     0.038173     3B1     0.038173     7A1     0.105635
       8A1     0.199678     4B2     0.306352     4B1     0.306352
       9A1     0.498577     1A2     0.498577    10A1     0.785328
      11A1     0.877413     5B2     0.949811     5B1     0.949811
      12A1     1.255753     2A2     1.255753    13A1     1.619705
       6B2     1.704353     6B1     1.704353     7B1     2.257650
       7B2     2.257650    14A1     2.316775    15A1     2.820855
       8B2     3.270844     8B1     3.270844    16A1     3.348437
      17A1     3.492191     3A2     3.492191     9B1     3.499116
       9B2     3.499116    10B2     3.802324    10B1     3.802324
      18A1     3.934606     4A2     3.934606    19A1     4.258374
      11B2     4.527097    11B1     4.527097    12B2     4.766985
      12B1     4.766985    20A1     5.541675    21A1     5.669107
       5A2     5.669108    22A1     6.052336     6A2     6.052337
      13B2     6.164711    13B1     6.164711    23A1     6.548692
      24A1     7.330301    14B1     7.979719    14B2     7.979719
      25A1     9.459198    26A1    23.233837

    Beta Occupied:

       1A1   -19.751954     2A1   -14.887682     3A1    -2.008160
       1B1    -1.161388     1B2    -1.161388     4A1    -1.081032
       5A1    -0.920636

    Beta Virtual:

       2B2    -0.331405     2B1    -0.331405     6A1    -0.063705
       3B2     0.038173     3B1     0.038173     7A1     0.105635
       8A1     0.199678     4B2     0.306352     4B1     0.306352
       9A1     0.498577     1A2     0.498577    10A1     0.785328
      11A1     0.877413     5B2     0.949811     5B1     0.949811
      12A1     1.255753     2A2     1.255753    13A1     1.619705
       6B2     1.704353     6B1     1.704353     7B1     2.257650
       7B2     2.257650    14A1     2.316775    15A1     2.820855
       8B2     3.270844     8B1     3.270844    16A1     3.348437
      17A1     3.492191     3A2     3.492191     9B1     3.499116
       9B2     3.499116    10B2     3.802324    10B1     3.802324
      18A1     3.934606     4A2     3.934606    19A1     4.258374
      11B2     4.527097    11B1     4.527097    12B2     4.766985
      12B1     4.766985    20A1     5.541675    21A1     5.669107
       5A2     5.669108    22A1     6.052336     6A2     6.052337
      13B2     6.164711    13B1     6.164711    23A1     6.548692
      24A1     7.330301    14B1     7.979719    14B2     7.979719
      25A1     9.459198    26A1    23.233837

    Final Occupation by Irrep:
             A1    A2    B1    B2
    DOCC [     5,    0,    1,    1 ]
    SOCC [     0,    0,    0,    0 ]
    NA   [     5,    0,    1,    1 ]
    NB   [     5,    0,    1,    1 ]

  @DF-UKS Final Energy:  -129.20444120951879

   => Energetics <=

    Nuclear Repulsion Energy =             36.6245642495183077
    One-Electron Energy =                -240.7321188140345498
    Two-Electron Energy =                  87.4138755169898900
    DFT Exchange-Correlation Energy =     -12.5107621619924387
    Empirical Dispersion Energy =           0.0000000000000000
    VV10 Nonlocal Energy =                  0.0000000000000000
    Total Energy =                       -129.2044412095187909

  UHF NO Occupations:
  HONO-2 :    4 A1 2.0000000
  HONO-1 :    1 B1 2.0000000
  HONO-0 :    5 A1 2.0000000
  LUNO+0 :    6 A1 0.0000000
  LUNO+1 :    7 A1 0.0000000
  LUNO+2 :    8 A1 0.0000000
  LUNO+3 :    9 A1 0.0000000

Computation Completed

Properties will be evaluated at   0.000000,   0.000000,   0.000000 [a0]

Properties computed using the B3LYP density matrix

 Multipole Moments:

 ------------------------------------------------------------------------------------
     Multipole            Electronic (a.u.)      Nuclear  (a.u.)        Total (a.u.)
 ------------------------------------------------------------------------------------

 L = 1.  Multiply by 2.5417464519 to convert [e a0] to [Debye]
 Dipole X            :          0.0000000            0.0000000            0.0000000
 Dipole Y            :          0.0000000            0.0000000            0.0000000
 Dipole Z            :         -0.0502841           -0.0030679           -0.0533520
 Magnitude           :                                                    0.0533520

 L = 2.  Multiply by 1.3450342976 to convert [e a0^2] to [Debye ang]
 Quadrupole XX       :         -5.2902250            0.0000000           -5.2902250
 Quadrupole XY       :          0.0000000            0.0000000            0.0000000
 Quadrupole XZ       :          0.0000000            0.0000000            0.0000000
 Quadrupole YY       :         -5.2902250            0.0000000           -5.2902250
 Quadrupole YZ       :          0.0000000            0.0000000            0.0000000
 Quadrupole ZZ       :        -14.4052606            8.7282649           -5.6769957
 Traceless XX        :          3.0383452           -2.9094216            0.1289236
 Traceless YY        :          3.0383452           -2.9094216            0.1289236
 Traceless ZZ        :         -6.0766905            5.8188433           -0.2578472

 ------------------------------------------------------------------------------------
  ==> Computing MBIS Charges <==

  Electron Count from Grid (Expected Number): 14.00000 (14.00000)
  Difference: -0.00000

  MBIS Charges: (a.u.)
   Center  Symbol  Z      Pop.       Charge
      1       O    8    7.523744    0.476256
      2       N    7    6.476255    0.523745

  MBIS Dipoles: [e a0]
   Center  Symbol  Z        X           Y           Z
      1       O    8    0.000000    0.000000   -0.021866
      2       N    7   -0.000000   -0.000000   -0.118555

  MBIS Quadrupoles: [e a0^2]
   Center  Symbol  Z      XX        XY        XZ        YY        YZ        ZZ
      1       O    8   -2.5947   -0.0000   -0.0000   -2.5947    0.0000   -2.9111
      2       N    7   -2.6956   -0.0000   -0.0000   -2.6956   -0.0000   -3.1946

  MBIS Octupoles: [e a0^3]
   Center  Symbol  Z      XXX       XXY       XXZ       XYY       XYZ       XZZ       YYY       YYZ       YZZ       ZZZ
      1       O    8    0.0000   -0.0000    0.0195    0.0000   -0.0000    0.0000   -0.0000    0.0195   -0.0000    0.0822
      2       N    7    0.0000   -0.0000   -0.1239   -0.0000   -0.0000    0.0000   -0.0000   -0.1239   -0.0000   -0.3897

  MBIS Radial Moments:
   Center  Symbol  Z      [a0^2]      [a0^3]      [a0^4]
      1       O    8    8.100437   13.108817   25.449236
      2       N    7    8.585657   15.748465   34.573068

  MBIS Valence Widths: [a0]
   Center  Symbol  Z     Width
      1       O    8    0.338350
      2       N    7    0.384662

*** tstop() called on Mac.lan at Sun Aug 10 18:41:05 2025
Module time:
	user time   =      22.24 seconds =       0.37 minutes
	system time =       3.54 seconds =       0.06 minutes
	total time  =          3 seconds =       0.05 minutes
Total time:
	user time   =      86.98 seconds =       1.45 minutes
	system time =       7.92 seconds =       0.13 minutes
	total time  =         10 seconds =       0.17 minutes

    Psi4 stopped on: Sunday, 10 August 2025 06:41PM
    Psi4 wall time for execution: 0:00:09.80

*** Psi4 exiting successfully. Buy a developer a beer!
