                               Psi4 1.9.1 release

  ==> Input File <==

--------------------------------------------------------------------------
molecule {
1 1
C           0.000000           0.000000           0.000000
H           0.000000           0.000000           1.433653
}

set {
basis              cc-pvtz
reference          uks
maxiter            500
DAMPING_PERCENTAGE 1
E_CONVERGENCE      1.0E-8
D_CONVERGENCE      1.0E-8
DIIS_MAX_VECS      400
MBIS_MAXITER       8000
guess              read
}

E, wfn = energy('b3lyp', restart_file='last_wfn', return_wfn=True)
properties('b3lyp','MBIS_CHARGES', wfn=wfn)
wfn.to_file('last_wfn')
--------------------------------------------------------------------------

    Molecular point group: c2v
  Charge       = 1
  Multiplicity = 1
  Basis Set: CC-PVTZ
    Blend: CC-PVTZ
  Basis Set: (CC-PVTZ AUX)
    Blend: CC-PVTZ-JKFIT
  @DF-UKS Final Energy:   -38.06619600922757
    Total Energy =                        -38.0661960092275606
 Dipole X            :          0.0000000            0.0000000            0.0000000
 Dipole Y            :          0.0000000            0.0000000            0.0000000
 Dipole Z            :         -0.4831198            1.2398745            0.7567548
 Magnitude           :                                                    0.7567548
    Molecular point group: c2v

    Geometry (in Angstrom), charge = 1, multiplicity = 1:

       Center              X                  Y                   Z               Mass
    ------------   -----------------  -----------------  -----------------  -----------------
         C            0.000000000000     0.000000000000    -0.111077092239    12.000000000000
         H            0.000000000000     0.000000000000     1.322575907761     1.007825032230

  Charge       = 1
  Multiplicity = 1
  Basis Set: CC-PVTZ
    Blend: CC-PVTZ
  Basis Set: (CC-PVTZ AUX)
    Blend: CC-PVTZ-JKFIT

    Orbital Energies [Eh]
    ---------------------

    Alpha Occupied:

       1A1   -10.805735     2A1    -0.986675     3A1    -0.693855

    Alpha Virtual:

       1B2    -0.534200     1B1    -0.534200     4A1    -0.314033
       5A1    -0.013775     2B1     0.010110     2B2     0.010110
       6A1     0.035501     7A1     0.160368     3B2     0.217222
       3B1     0.217222     8A1     0.328360     1A2     0.328360
       9A1     0.549617     4B1     0.631325     4B2     0.631325
      10A1     0.889533     5B1     1.523100     5B2     1.523100
      11A1     1.724947    12A1     2.075656     6B1     2.168311
       6B2     2.168311     2A2     2.196951    13A1     2.196952
       7B1     2.258737     7B2     2.258737    14A1     2.269104
       3A2     2.493549    15A1     2.493549     8B2     2.595438
       8B1     2.595438    16A1     2.760883     4A2     2.974839
      17A1     2.974843    18A1     3.281653     9B2     3.309102
       9B1     3.309102    10B1     3.706695    10B2     3.706695
      19A1     3.874719    20A1     5.474044

    Beta Occupied:

       1A1   -10.805735     2A1    -0.986675     3A1    -0.693855

    Beta Virtual:

       1B2    -0.534200     1B1    -0.534200     4A1    -0.314033
       5A1    -0.013775     2B1     0.010110     2B2     0.010110
       6A1     0.035501     7A1     0.160368     3B2     0.217222
       3B1     0.217222     8A1     0.328360     1A2     0.328360
       9A1     0.549617     4B1     0.631325     4B2     0.631325
      10A1     0.889533     5B1     1.523100     5B2     1.523100
      11A1     1.724947    12A1     2.075656     6B1     2.168311
       6B2     2.168311     2A2     2.196951    13A1     2.196952
       7B1     2.258737     7B2     2.258737    14A1     2.269104
       3A2     2.493549    15A1     2.493549     8B2     2.595438
       8B1     2.595438    16A1     2.760883     4A2     2.974839
      17A1     2.974843    18A1     3.281653     9B2     3.309102
       9B1     3.309102    10B1     3.706695    10B2     3.706695
      19A1     3.874719    20A1     5.474044

    Final Occupation by Irrep:
             A1    A2    B1    B2
    DOCC [     3,    0,    0,    0 ]
    SOCC [     0,    0,    0,    0 ]
    NA   [     3,    0,    0,    0 ]
    NB   [     3,    0,    0,    0 ]

  @DF-UKS Final Energy:   -38.06619600928060

   => Energetics <=

    Nuclear Repulsion Energy =              2.2146664946259662
    One-Electron Energy =                 -52.5494863092893780
    Two-Electron Energy =                  16.4717421708311207
    DFT Exchange-Correlation Energy =      -4.2031183654483133
    Empirical Dispersion Energy =           0.0000000000000000
    VV10 Nonlocal Energy =                  0.0000000000000000
    Total Energy =                        -38.0661960092806027

  UHF NO Occupations:
  HONO-2 :    1 A1 2.0000000
  HONO-1 :    2 A1 2.0000000
  HONO-0 :    3 A1 2.0000000
  LUNO+0 :    4 A1 0.0000000
  LUNO+1 :    5 A1 0.0000000
  LUNO+2 :    6 A1 0.0000000
  LUNO+3 :    7 A1 0.0000000

Computation Completed

Properties will be evaluated at   0.000000,   0.000000,   0.000000 [a0]

Properties computed using the B3LYP density matrix

 Multipole Moments:

 ------------------------------------------------------------------------------------
     Multipole            Electronic (a.u.)      Nuclear  (a.u.)        Total (a.u.)
 ------------------------------------------------------------------------------------

 L = 1.  Multiply by 2.5417464519 to convert [e a0] to [Debye]
 Dipole X            :          0.0000000            0.0000000            0.0000000
 Dipole Y            :          0.0000000            0.0000000            0.0000000
 Dipole Z            :         -0.4831198            1.2398745            0.7567548
 Magnitude           :                                                    0.7567548

 L = 2.  Multiply by 1.3450342976 to convert [e a0^2] to [Debye ang]
 Quadrupole XX       :         -3.0929150            0.0000000           -3.0929150
 Quadrupole XY       :          0.0000000            0.0000000            0.0000000
 Quadrupole XZ       :          0.0000000            0.0000000            0.0000000
 Quadrupole YY       :         -3.0929150            0.0000000           -3.0929150
 Quadrupole YZ       :          0.0000000            0.0000000            0.0000000
 Quadrupole ZZ       :         -8.8704664            6.5108931           -2.3595733
 Traceless XX        :          1.9258505           -2.1702977           -0.2444472
 Traceless YY        :          1.9258505           -2.1702977           -0.2444472
 Traceless ZZ        :         -3.8517009            4.3405954            0.4888945

 ------------------------------------------------------------------------------------
  ==> Computing MBIS Charges <==

  Electron Count from Grid (Expected Number):  6.00000 ( 6.00000)
  Difference:  0.00000

  MBIS Charges: (a.u.)
   Center  Symbol  Z      Pop.       Charge
      1       C    6    5.233589    0.766411
      2       H    1    0.766411    0.233589

  MBIS Dipoles: [e a0]
   Center  Symbol  Z        X           Y           Z
      1       C    6   -0.000000   -0.000000    0.186848
      2       H    1    0.000000    0.000000    0.146970

  MBIS Quadrupoles: [e a0^2]
   Center  Symbol  Z      XX        XY        XZ        YY        YZ        ZZ
      1       C    6   -2.6046    0.0000   -0.0000   -2.6046    0.0000   -4.0080
      2       H    1   -0.4883   -0.0000    0.0000   -0.4883    0.0000   -0.5007

  MBIS Octupoles: [e a0^3]
   Center  Symbol  Z      XXX       XXY       XXZ       XYY       XYZ       XZZ       YYY       YYZ       YZZ       ZZZ
      1       C    6    0.0000   -0.0000    0.2042    0.0000   -0.0000    0.0000   -0.0000    0.2042   -0.0000    0.5269
      2       H    1    0.0000    0.0000    0.0459    0.0000   -0.0000    0.0000    0.0000    0.0459   -0.0000    0.1804

  MBIS Radial Moments:
   Center  Symbol  Z      [a0^2]      [a0^3]      [a0^4]
      1       C    6    9.217131   19.885540   51.051894
      2       H    1    1.477368    2.829127    6.455403

  MBIS Valence Widths: [a0]
   Center  Symbol  Z     Width
      1       C    6    0.469506
      2       H    1    0.409625

*** tstop() called on Mac.lan at Sun Aug 10 18:27:34 2025
Module time:
	user time   =       3.24 seconds =       0.05 minutes
	system time =       1.38 seconds =       0.02 minutes
	total time  =          1 seconds =       0.02 minutes
Total time:
	user time   =      11.52 seconds =       0.19 minutes
	system time =       3.67 seconds =       0.06 minutes
	total time  =          2 seconds =       0.03 minutes

    Psi4 stopped on: Sunday, 10 August 2025 06:27PM
    Psi4 wall time for execution: 0:00:01.48

*** Psi4 exiting successfully. Buy a developer a beer!
