                               Psi4 1.9.1 release

  ==> Input File <==

--------------------------------------------------------------------------
molecule {
1 4
C           0.000000           0.000000           0.000000
C           0.000000           0.000000           1.271264
}

set {
basis              cc-pvtz
reference          uks
maxiter            500
DAMPING_PERCENTAGE 1
E_CONVERGENCE      1.0E-8
D_CONVERGENCE      1.0E-8
DIIS_MAX_VECS      400
MBIS_MAXITER       8000
guess              read
}

E, wfn = energy('b3lyp', restart_file='last_wfn', return_wfn=True)
properties('b3lyp','MBIS_CHARGES', wfn=wfn)
wfn.to_file('last_wfn')
--------------------------------------------------------------------------

    Molecular point group: d2h
  Charge       = 1
  Multiplicity = 4
  Basis Set: CC-PVTZ
    Blend: CC-PVTZ
  Basis Set: (CC-PVTZ AUX)
    Blend: CC-PVTZ-JKFIT
  @DF-UKS Final Energy:   -75.46525991788185
    Total Energy =                        -75.4652599178818519
 Dipole X            :          0.0000000            0.0000000            0.0000000
 Dipole Y            :          0.0000000            0.0000000            0.0000000
 Dipole Z            :          0.0000000            0.0000000            0.0000000
 Magnitude           :                                                    0.0000000
    Molecular point group: d2h

    Geometry (in Angstrom), charge = 1, multiplicity = 4:

       Center              X                  Y                   Z               Mass
    ------------   -----------------  -----------------  -----------------  -----------------
         C            0.000000000000     0.000000000000    -0.635632000000    12.000000000000
         C            0.000000000000     0.000000000000     0.635632000000    12.000000000000

  Charge       = 1
  Multiplicity = 4
  Basis Set: CC-PVTZ
    Blend: CC-PVTZ
  Basis Set: (CC-PVTZ AUX)
    Blend: CC-PVTZ-JKFIT

    Orbital Energies [Eh]
    ---------------------

    Alpha Occupied:

       1Ag   -10.697648     1B1u  -10.696089     2Ag    -1.193246
       2B1u   -0.839018     3Ag    -0.745115     1B2u   -0.734736
       1B3u   -0.697867

    Alpha Virtual:

       1B3g   -0.397336     1B2g   -0.367573     3B1u   -0.049633
       2B2u   -0.004777     2B3u    0.007005     4Ag     0.018985
       5Ag     0.027374     2B3g    0.104112     2B2g    0.113261
       4B1u    0.142462     1B1g    0.233265     6Ag     0.233876
       5B1u    0.357951     3B2u    0.390562     3B3u    0.414130
       1Au     0.535807     6B1u    0.535968     3B3g    0.813741
       7Ag     0.826064     3B2g    0.827905     7B1u    1.001526
       4B2u    1.532446     4B3u    1.558495     8Ag     1.665168
       4B3g    1.785180     4B2g    1.813127     8B1u    1.967902
       2B1g    2.036726     9Ag     2.037452     5B2u    2.066512
       5B3u    2.097484     6B2u    2.121823     6B3u    2.122222
      10Ag     2.301566     5B3g    2.482175     5B2g    2.482552
      11Ag     2.518568     3B1g    2.518732     6B3g    2.593605
       6B2g    2.613377     9B1u    2.614389     2Au     2.615232
      10B1u    2.845591     7B2u    3.014374     7B3u    3.040370
       3Au     3.086405    11B1u    3.086976    12Ag     3.257729
      12B1u    3.542942     7B3g    4.137169     7B2g    4.166439
      13Ag     4.288472    13B1u   11.577168

    Beta Occupied:

       1Ag   -10.664264     1B1u  -10.662997     2Ag    -1.111610
       1B3u   -0.655401

    Beta Virtual:

       2B1u   -0.589211     1B2u   -0.547455     3Ag    -0.492336
       1B2g   -0.303996     1B3g   -0.264815     3B1u   -0.021334
       2B3u    0.014919     2B2u    0.026246     4Ag     0.046211
       5Ag     0.090655     2B2g    0.126584     2B3g    0.141503
       4B1u    0.254614     1B1g    0.268096     6Ag     0.272796
       5B1u    0.388343     3B3u    0.465214     3B2u    0.481616
       1Au     0.574920     6B1u    0.581291     3B2g    0.864937
       3B3g    0.879679     7Ag     0.903911     7B1u    1.067916
       4B3u    1.584344     4B2u    1.600766     8Ag     1.730038
       4B2g    1.840467     4B3g    1.853674     8B1u    2.061602
       2B1g    2.090317     9Ag     2.097381     5B3u    2.148196
       5B2u    2.168629     6B3u    2.175875     6B2u    2.180334
      10Ag     2.438392     5B2g    2.540784     5B3g    2.544885
       3B1g    2.607991    11Ag     2.619657     2Au     2.698161
       9B1u    2.708596     6B2g    2.717519     6B3g    2.754190
      10B1u    2.974434     7B3u    3.134608     3Au     3.156032
       7B2u    3.165632    11B1u    3.166986    12Ag     3.350432
      12B1u    3.641859     7B2g    4.221181     7B3g    4.245027
      13Ag     4.356684    13B1u   11.628803

    Final Occupation by Irrep:
             Ag   B1g   B2g   B3g    Au   B1u   B2u   B3u
    DOCC [     2,    0,    0,    0,    0,    1,    0,    1 ]
    SOCC [     1,    0,    0,    0,    0,    1,    1,    0 ]
    NA   [     3,    0,    0,    0,    0,    2,    1,    1 ]
    NB   [     2,    0,    0,    0,    0,    1,    0,    1 ]

  @DF-UKS Final Energy:   -75.46525991746410

   => Energetics <=

    Nuclear Repulsion Energy =             14.9853842979270997
    One-Electron Energy =                -126.1900332411147474
    Two-Electron Energy =                  44.0797437151837244
    DFT Exchange-Correlation Energy =      -8.3403546894601703
    Empirical Dispersion Energy =           0.0000000000000000
    VV10 Nonlocal Energy =                  0.0000000000000000
    Total Energy =                        -75.4652599174640955

  UHF NO Occupations:
  HONO-2 :    1B2u 1.0000000
  HONO-1 :    3 Ag 1.0000000
  HONO-0 :    2B1u 1.0000000
  LUNO+0 :    2B3u 0.0007800
  LUNO+1 :    4 Ag 0.0005117
  LUNO+2 :    3B1u 0.0000008
  LUNO+3 :    5 Ag 0.0000005

Computation Completed

Properties will be evaluated at   0.000000,   0.000000,   0.000000 [a0]

Properties computed using the B3LYP density matrix

 Multipole Moments:

 ------------------------------------------------------------------------------------
     Multipole            Electronic (a.u.)      Nuclear  (a.u.)        Total (a.u.)
 ------------------------------------------------------------------------------------

 L = 1.  Multiply by 2.5417464519 to convert [e a0] to [Debye]
 Dipole X            :          0.0000000            0.0000000            0.0000000
 Dipole Y            :          0.0000000            0.0000000            0.0000000
 Dipole Z            :          0.0000000            0.0000000            0.0000000
 Magnitude           :                                                    0.0000000

 L = 2.  Multiply by 1.3450342976 to convert [e a0^2] to [Debye ang]
 Quadrupole XX       :         -7.1556119            0.0000000           -7.1556119
 Quadrupole XY       :          0.0000000            0.0000000            0.0000000
 Quadrupole XZ       :          0.0000000            0.0000000            0.0000000
 Quadrupole YY       :         -5.9271753            0.0000000           -5.9271753
 Quadrupole YZ       :          0.0000000            0.0000000            0.0000000
 Quadrupole ZZ       :        -20.8744754           17.3137239           -3.5607515
 Traceless XX        :          4.1634756           -5.7712413           -1.6077657
 Traceless YY        :          5.3919122           -5.7712413           -0.3793291
 Traceless ZZ        :         -9.5553878           11.5424826            1.9870947

 ------------------------------------------------------------------------------------
  ==> Computing MBIS Charges <==

  Electron Count from Grid (Expected Number): 11.00000 (11.00000)
  Difference: -0.00000

  MBIS Charges: (a.u.)
   Center  Symbol  Z      Pop.       Charge
      1       C    6    5.500000    0.500000
      2       C    6    5.500000    0.500000

  MBIS Dipoles: [e a0]
   Center  Symbol  Z        X           Y           Z
      1       C    6   -0.000000    0.000000   -0.388497
      2       C    6   -0.000000    0.000000    0.388497

  MBIS Quadrupoles: [e a0^2]
   Center  Symbol  Z      XX        XY        XZ        YY        YZ        ZZ
      1       C    6   -3.5778    0.0000   -0.0000   -2.9636   -0.0000   -3.4351
      2       C    6   -3.5778    0.0000    0.0000   -2.9636    0.0000   -3.4351

  MBIS Octupoles: [e a0^3]
   Center  Symbol  Z      XXX       XXY       XXZ       XYY       XYZ       XZZ       YYY       YYZ       YZZ       ZZZ
      1       C    6   -0.0000    0.0000   -0.5144   -0.0000    0.0000   -0.0000    0.0000   -0.3191    0.0000   -0.8325
      2       C    6   -0.0000    0.0000    0.5144   -0.0000   -0.0000   -0.0000    0.0000    0.3191    0.0000    0.8325

  MBIS Radial Moments:
   Center  Symbol  Z      [a0^2]      [a0^3]      [a0^4]
      1       C    6    9.976476   21.832255   57.017841
      2       C    6    9.976476   21.832255   57.017841

  MBIS Valence Widths: [a0]
   Center  Symbol  Z     Width
      1       C    6    0.469262
      2       C    6    0.469262

*** tstop() called on Mac.lan at Sun Aug 10 18:14:54 2025
Module time:
	user time   =       5.00 seconds =       0.08 minutes
	system time =       2.42 seconds =       0.04 minutes
	total time  =          1 seconds =       0.02 minutes
Total time:
	user time   =      24.40 seconds =       0.41 minutes
	system time =       5.56 seconds =       0.09 minutes
	total time  =          3 seconds =       0.05 minutes

    Psi4 stopped on: Sunday, 10 August 2025 06:14PM
    Psi4 wall time for execution: 0:00:03.10

*** Psi4 exiting successfully. Buy a developer a beer!
