                               Psi4 1.9.1 release

  ==> Input File <==

--------------------------------------------------------------------------
molecule {
1 4
C           0.000000           0.000000           0.000000
C           0.000000           0.000000           1.499635
}

set {
basis              cc-pvtz
reference          uks
maxiter            500
DAMPING_PERCENTAGE 1
E_CONVERGENCE      1.0E-8
D_CONVERGENCE      1.0E-8
DIIS_MAX_VECS      400
MBIS_MAXITER       8000
guess              read
}

E, wfn = energy('b3lyp', restart_file='last_wfn', return_wfn=True)
properties('b3lyp','MBIS_CHARGES', wfn=wfn)
wfn.to_file('last_wfn')
--------------------------------------------------------------------------

    Molecular point group: d2h
  Charge       = 1
  Multiplicity = 4
  Basis Set: CC-PVTZ
    Blend: CC-PVTZ
  Basis Set: (CC-PVTZ AUX)
    Blend: CC-PVTZ-JKFIT
  @DF-UKS Final Energy:   -75.50103875506633
    Total Energy =                        -75.5010387550663467
 Dipole X            :          0.0000000            0.0000000            0.0000000
 Dipole Y            :          0.0000000            0.0000000            0.0000000
 Dipole Z            :          0.0000000            0.0000000            0.0000000
 Magnitude           :                                                    0.0000000
    Molecular point group: d2h

    Geometry (in Angstrom), charge = 1, multiplicity = 4:

       Center              X                  Y                   Z               Mass
    ------------   -----------------  -----------------  -----------------  -----------------
         C            0.000000000000     0.000000000000    -0.749817500000    12.000000000000
         C            0.000000000000     0.000000000000     0.749817500000    12.000000000000

  Charge       = 1
  Multiplicity = 4
  Basis Set: CC-PVTZ
    Blend: CC-PVTZ
  Basis Set: (CC-PVTZ AUX)
    Blend: CC-PVTZ-JKFIT

    Orbital Energies [Eh]
    ---------------------

    Alpha Occupied:

       1Ag   -10.721509     1B1u  -10.721083     2Ag    -1.160404
       2B1u   -0.836180     3Ag    -0.701488     1B3u   -0.693059
       1B2u   -0.693059

    Alpha Virtual:

       1B2g   -0.440932     1B3g   -0.440932     3B1u   -0.140530
       2B3u    0.005769     2B2u    0.005769     4Ag     0.021031
       4B1u    0.028691     5Ag     0.040379     2B3g    0.095547
       2B2g    0.095547     1B1g    0.229343     6Ag     0.229343
       3B2u    0.329753     3B3u    0.329753     5B1u    0.342172
       1Au     0.488265     6B1u    0.488265     3B2g    0.796716
       3B3g    0.796716     7Ag     0.809537     7B1u    0.827679
       4B3u    1.523996     4B2u    1.523996     8Ag     1.607191
       4B2g    1.688038     4B3g    1.688038     2B1g    2.006633
       9Ag     2.006633     5B2u    2.013339     5B3u    2.013339
       8B1u    2.130239    10Ag     2.168394     6B2u    2.174379
       6B3u    2.174379     5B3g    2.382620     5B2g    2.382620
       3B1g    2.495531    11Ag     2.495532     2Au     2.564750
       9B1u    2.564751    10B1u    2.596454     6B2g    2.684848
       6B3g    2.684848     3Au     2.834675    11B1u    2.834677
       7B2u    2.841109     7B3u    2.841109    12B1u    3.187734
      12Ag     3.464748    13Ag     3.515360     7B2g    3.650851
       7B3g    3.650851    13B1u    7.579864

    Beta Occupied:

       1Ag   -10.696610     1B1u  -10.696448     2Ag    -1.061226
       2B1u   -0.717675

    Beta Virtual:

       1B3u   -0.533688     1B2u   -0.533688     3Ag    -0.533030
       1B2g   -0.343470     1B3g   -0.343470     3B1u   -0.083749
       2B3u    0.033016     2B2u    0.033016     4Ag     0.052057
       5Ag     0.074637     4B1u    0.080222     2B3g    0.118632
       2B2g    0.118632     6Ag     0.282130     1B1g    0.282130
       5B1u    0.366784     3B2u    0.391475     3B3u    0.391475
       1Au     0.532900     6B1u    0.532900     3B2g    0.839305
       3B3g    0.839305     7Ag     0.862207     7B1u    0.870553
       4B3u    1.581574     4B2u    1.581574     8Ag     1.669074
       4B2g    1.744573     4B3g    1.744573     2B1g    2.074936
       9Ag     2.074937     5B2u    2.080350     5B3u    2.080350
       8B1u    2.186341     6B2u    2.241903     6B3u    2.241903
      10Ag     2.243753     5B3g    2.449134     5B2g    2.449134
       3B1g    2.582196    11Ag     2.582198     2Au     2.646725
       9B1u    2.646727    10B1u    2.673786     6B2g    2.766637
       6B3g    2.766637     3Au     2.904915    11B1u    2.904917
       7B2u    2.925003     7B3u    2.925003    12B1u    3.256784
      12Ag     3.527781    13Ag     3.570735     7B2g    3.718039
       7B3g    3.718039    13B1u    7.623543

    Final Occupation by Irrep:
             Ag   B1g   B2g   B3g    Au   B1u   B2u   B3u
    DOCC [     2,    0,    0,    0,    0,    2,    0,    0 ]
    SOCC [     1,    0,    0,    0,    0,    0,    1,    1 ]
    NA   [     3,    0,    0,    0,    0,    2,    1,    1 ]
    NB   [     2,    0,    0,    0,    0,    2,    0,    0 ]

  @DF-UKS Final Energy:   -75.50103875534087

   => Energetics <=

    Nuclear Repulsion Energy =             12.7033442031694346
    One-Electron Energy =                -121.7737952472469232
    Two-Electron Energy =                  41.7985011325110634
    DFT Exchange-Correlation Energy =      -8.2290888437744538
    Empirical Dispersion Energy =           0.0000000000000000
    VV10 Nonlocal Energy =                  0.0000000000000000
    Total Energy =                        -75.5010387553408719

  UHF NO Occupations:
  HONO-2 :    1B3u 1.0000000
  HONO-1 :    3 Ag 1.0000000
  HONO-0 :    1B2u 1.0000000
  LUNO+0 :    3B1u 0.0013691
  LUNO+1 :    4 Ag 0.0000944
  LUNO+2 :    4B1u 0.0000008
  LUNO+3 :    5 Ag 0.0000006

Computation Completed

Properties will be evaluated at   0.000000,   0.000000,   0.000000 [a0]

Properties computed using the B3LYP density matrix

 Multipole Moments:

 ------------------------------------------------------------------------------------
     Multipole            Electronic (a.u.)      Nuclear  (a.u.)        Total (a.u.)
 ------------------------------------------------------------------------------------

 L = 1.  Multiply by 2.5417464519 to convert [e a0] to [Debye]
 Dipole X            :          0.0000000            0.0000000            0.0000000
 Dipole Y            :          0.0000000            0.0000000            0.0000000
 Dipole Z            :          0.0000000            0.0000000            0.0000000
 Magnitude           :                                                    0.0000000

 L = 2.  Multiply by 1.3450342976 to convert [e a0^2] to [Debye ang]
 Quadrupole XX       :         -6.5383127            0.0000000           -6.5383127
 Quadrupole XY       :          0.0000000            0.0000000            0.0000000
 Quadrupole XZ       :          0.0000000            0.0000000            0.0000000
 Quadrupole YY       :         -6.5383127            0.0000000           -6.5383127
 Quadrupole YZ       :          0.0000000            0.0000000            0.0000000
 Quadrupole ZZ       :        -28.9370165           24.0929581           -4.8440584
 Traceless XX        :          7.4662346           -8.0309860           -0.5647514
 Traceless YY        :          7.4662346           -8.0309860           -0.5647514
 Traceless ZZ        :        -14.9324692           16.0619721            1.1295029

 ------------------------------------------------------------------------------------
  ==> Computing MBIS Charges <==

  Electron Count from Grid (Expected Number): 11.00000 (11.00000)
  Difference:  0.00000

  MBIS Charges: (a.u.)
   Center  Symbol  Z      Pop.       Charge
      1       C    6    5.500000    0.500000
      2       C    6    5.500000    0.500000

  MBIS Dipoles: [e a0]
   Center  Symbol  Z        X           Y           Z
      1       C    6   -0.000000   -0.000000   -0.097479
      2       C    6   -0.000000    0.000000    0.097479

  MBIS Quadrupoles: [e a0^2]
   Center  Symbol  Z      XX        XY        XZ        YY        YZ        ZZ
      1       C    6   -3.2692   -0.0000   -0.0000   -3.2692   -0.0000   -3.7021
      2       C    6   -3.2692   -0.0000    0.0000   -3.2692    0.0000   -3.7021

  MBIS Octupoles: [e a0^3]
   Center  Symbol  Z      XXX       XXY       XXZ       XYY       XYZ       XZZ       YYY       YYZ       YZZ       ZZZ
      1       C    6   -0.0000   -0.0000   -0.1140   -0.0000    0.0000   -0.0000    0.0000   -0.1140    0.0000   -0.4296
      2       C    6   -0.0000    0.0000    0.1140   -0.0000   -0.0000   -0.0000    0.0000    0.1140    0.0000    0.4296

  MBIS Radial Moments:
   Center  Symbol  Z      [a0^2]      [a0^3]      [a0^4]
      1       C    6   10.240460   22.593537   59.333162
      2       C    6   10.240460   22.593537   59.333162

  MBIS Valence Widths: [a0]
   Center  Symbol  Z     Width
      1       C    6    0.476683
      2       C    6    0.476683

*** tstop() called on Mac.lan at Sun Aug 10 18:22:39 2025
Module time:
	user time   =       4.09 seconds =       0.07 minutes
	system time =       2.27 seconds =       0.04 minutes
	total time  =          0 seconds =       0.00 minutes
Total time:
	user time   =      29.92 seconds =       0.50 minutes
	system time =       4.70 seconds =       0.08 minutes
	total time  =          3 seconds =       0.05 minutes

    Psi4 stopped on: Sunday, 10 August 2025 06:22PM
    Psi4 wall time for execution: 0:00:03.46

*** Psi4 exiting successfully. Buy a developer a beer!
