                               Psi4 1.9.1 release

  ==> Input File <==

--------------------------------------------------------------------------
molecule {
1 2
O           0.000000           0.000000           0.000000
O           0.000000           0.000000           0.968589
}

set {
basis              cc-pvtz
reference          uks
maxiter            500
DAMPING_PERCENTAGE 1
E_CONVERGENCE      1.0E-8
D_CONVERGENCE      1.0E-8
DIIS_MAX_VECS      400
MBIS_MAXITER       8000
guess              read
}

E, wfn = energy('b3lyp', restart_file='last_wfn', return_wfn=True)
properties('b3lyp','MBIS_CHARGES', wfn=wfn)
wfn.to_file('last_wfn')
--------------------------------------------------------------------------

    Molecular point group: d2h
  Charge       = 1
  Multiplicity = 2
  Basis Set: CC-PVTZ
    Blend: CC-PVTZ
  Basis Set: (CC-PVTZ AUX)
    Blend: CC-PVTZ-JKFIT
  @DF-UKS Final Energy:  -149.85945266559034
    Total Energy =                       -149.8594526655903678
 Dipole X            :          0.0000000            0.0000000            0.0000000
 Dipole Y            :          0.0000000            0.0000000            0.0000000
 Dipole Z            :          0.0000000            0.0000000            0.0000000
 Magnitude           :                                                    0.0000000
    Molecular point group: d2h

    Geometry (in Angstrom), charge = 1, multiplicity = 2:

       Center              X                  Y                   Z               Mass
    ------------   -----------------  -----------------  -----------------  -----------------
         O            0.000000000000     0.000000000000    -0.484294500000    15.994914619570
         O            0.000000000000     0.000000000000     0.484294500000    15.994914619570

  Charge       = 1
  Multiplicity = 2
  Basis Set: CC-PVTZ
    Blend: CC-PVTZ
  Basis Set: (CC-PVTZ AUX)
    Blend: CC-PVTZ-JKFIT

    Orbital Energies [Eh]
    ---------------------

    Alpha Occupied:

       1Ag   -19.805649     1B1u  -19.803764     2Ag    -2.038191
       2B1u   -1.212997     1B3u   -1.149957     1B2u   -1.118275
       3Ag    -1.052290     1B2g   -0.670457

    Alpha Virtual:

       1B3g   -0.541605     3B1u    0.027029     2B2u    0.113550
       2B3u    0.114129     4Ag     0.179255     5Ag     0.255723
       2B2g    0.293399     2B3g    0.303070     4B1u    0.366263
       1B1g    0.716834     6Ag     0.718124     5B1u    0.815746
       3B3u    1.029761     3B2u    1.030467     1Au     1.297490
       6B1u    1.299279     7Ag     1.783268     3B2g    1.859694
       3B3g    1.864101     7B1u    1.984864     4B3u    2.943782
       4B2u    2.958818     8Ag     3.269737     4B2g    3.410870
       4B3g    3.422345     8B1u    3.970879     2B1g    4.057947
       9Ag     4.059183     5B3u    4.234380     5B2u    4.234597
       6B2u    4.308343     6B3u    4.313487    10Ag     4.840799
       5B2g    4.844864     5B3g    4.845165     3B1g    5.506849
      11Ag     5.510871     9B1u    5.565602     6B2g    5.650822
       6B3g    5.657735     2Au     5.680071    10B1u    5.684372
       3Au     5.925482    11B1u    5.927142     7B3u    6.267929
       7B2u    6.269433    12Ag     6.347789    12B1u    7.089843
       7B3g    7.861319     7B2g    7.862074    13Ag     7.944959
      13B1u   20.233957

    Beta Occupied:

       1Ag   -19.789264     1B1u  -19.787248     2Ag    -2.015090
       2B1u   -1.166822     1B2u   -1.104946     1B3u   -1.058881
       3Ag    -1.026433

    Beta Virtual:

       1B3g   -0.523518     1B2g   -0.474897     3B1u    0.036776
       2B2u    0.116940     2B3u    0.136203     4Ag     0.181084
       5Ag     0.268874     2B3g    0.308387     2B2g    0.327758
       4B1u    0.387908     1B1g    0.737666     6Ag     0.737882
       5B1u    0.831446     3B2u    1.033676     3B3u    1.064865
       1Au     1.331785     6B1u    1.331853     7Ag     1.795981
       3B3g    1.868856     3B2g    1.894880     7B1u    1.998664
       4B2u    2.970327     4B3u    3.010260     8Ag     3.281639
       4B3g    3.434492     4B2g    3.476367     8B1u    3.993497
       2B1g    4.076285     9Ag     4.076623     5B2u    4.267088
       5B3u    4.267647     6B2u    4.313641     6B3u    4.346888
      10Ag     4.855838     5B3g    4.885150     5B2g    4.885172
      11Ag     5.565575     3B1g    5.565669     9B1u    5.584156
       6B3g    5.662931     6B2g    5.697992     2Au     5.739526
      10B1u    5.739845     3Au     5.953581    11B1u    5.954918
       7B2u    6.274962     7B3u    6.313738    12Ag     6.375628
      12B1u    7.108293     7B3g    7.867134     7B2g    7.904131
      13Ag     7.962680    13B1u   20.256247

    Final Occupation by Irrep:
             Ag   B1g   B2g   B3g    Au   B1u   B2u   B3u
    DOCC [     3,    0,    0,    0,    0,    2,    1,    1 ]
    SOCC [     0,    0,    1,    0,    0,    0,    0,    0 ]
    NA   [     3,    0,    1,    0,    0,    2,    1,    1 ]
    NB   [     3,    0,    0,    0,    0,    2,    1,    1 ]

  @DF-UKS Final Energy:  -149.85945266640496

   => Energetics <=

    Nuclear Repulsion Energy =             34.9656474344433050
    One-Electron Energy =                -267.0850757137301912
    Two-Electron Energy =                  95.8616449442686331
    DFT Exchange-Correlation Energy =     -13.6016693313866792
    Empirical Dispersion Energy =           0.0000000000000000
    VV10 Nonlocal Energy =                  0.0000000000000000
    Total Energy =                       -149.8594526664049340

  UHF NO Occupations:
  HONO-2 :    2B1u 1.9997500
  HONO-1 :    1B3u 1.9994235
  HONO-0 :    1B2g 1.0000000
  LUNO+0 :    2B3u 0.0005765
  LUNO+1 :    3B1u 0.0002500
  LUNO+2 :    4 Ag 0.0001408
  LUNO+3 :    2B2u 0.0000235

Computation Completed

Properties will be evaluated at   0.000000,   0.000000,   0.000000 [a0]

Properties computed using the B3LYP density matrix

 Multipole Moments:

 ------------------------------------------------------------------------------------
     Multipole            Electronic (a.u.)      Nuclear  (a.u.)        Total (a.u.)
 ------------------------------------------------------------------------------------

 L = 1.  Multiply by 2.5417464519 to convert [e a0] to [Debye]
 Dipole X            :          0.0000000            0.0000000            0.0000000
 Dipole Y            :          0.0000000            0.0000000            0.0000000
 Dipole Z            :          0.0000000            0.0000000            0.0000000
 Magnitude           :                                                    0.0000000

 L = 2.  Multiply by 1.3450342976 to convert [e a0^2] to [Debye ang]
 Quadrupole XX       :         -5.9272491            0.0000000           -5.9272491
 Quadrupole XY       :          0.0000000            0.0000000            0.0000000
 Quadrupole XZ       :          0.0000000            0.0000000            0.0000000
 Quadrupole YY       :         -5.3607428            0.0000000           -5.3607428
 Quadrupole YZ       :          0.0000000            0.0000000            0.0000000
 Quadrupole ZZ       :        -18.7695809           13.4009872           -5.3685937
 Traceless XX        :          4.0919418           -4.4669957           -0.3750539
 Traceless YY        :          4.6584482           -4.4669957            0.1914524
 Traceless ZZ        :         -8.7503900            8.9339914            0.1836015

 ------------------------------------------------------------------------------------
  ==> Computing MBIS Charges <==

  Electron Count from Grid (Expected Number): 15.00000 (15.00000)
  Difference: -0.00000

  MBIS Charges: (a.u.)
   Center  Symbol  Z      Pop.       Charge
      1       O    8    7.500000    0.500000
      2       O    8    7.500000    0.500000

  MBIS Dipoles: [e a0]
   Center  Symbol  Z        X           Y           Z
      1       O    8   -0.000000    0.000000    0.046946
      2       O    8    0.000000   -0.000000   -0.046946

  MBIS Quadrupoles: [e a0^2]
   Center  Symbol  Z      XX        XY        XZ        YY        YZ        ZZ
      1       O    8   -2.9636   -0.0000    0.0000   -2.6804   -0.0000   -3.0171
      2       O    8   -2.9636   -0.0000   -0.0000   -2.6804    0.0000   -3.0171

  MBIS Octupoles: [e a0^3]
   Center  Symbol  Z      XXX       XXY       XXZ       XYY       XYZ       XZZ       YYY       YYZ       YZZ       ZZZ
      1       O    8   -0.0000   -0.0000    0.1075    0.0000   -0.0000   -0.0000    0.0000    0.0153    0.0000   -0.0485
      2       O    8   -0.0000   -0.0000   -0.1075   -0.0000    0.0000   -0.0000    0.0000   -0.0153    0.0000    0.0485

  MBIS Radial Moments:
   Center  Symbol  Z      [a0^2]      [a0^3]      [a0^4]
      1       O    8    8.661145   14.585535   29.496516
      2       O    8    8.661145   14.585535   29.496516

  MBIS Valence Widths: [a0]
   Center  Symbol  Z     Width
      1       O    8    0.351612
      2       O    8    0.351612

*** tstop() called on Mac.lan at Sun Aug 10 18:12:45 2025
Module time:
	user time   =       3.58 seconds =       0.06 minutes
	system time =       2.48 seconds =       0.04 minutes
	total time  =          1 seconds =       0.02 minutes
Total time:
	user time   =      14.64 seconds =       0.24 minutes
	system time =       4.89 seconds =       0.08 minutes
	total time  =          2 seconds =       0.03 minutes

    Psi4 stopped on: Sunday, 10 August 2025 06:12PM
    Psi4 wall time for execution: 0:00:01.91

*** Psi4 exiting successfully. Buy a developer a beer!
