                               Psi4 1.9.1 release

  ==> Input File <==

--------------------------------------------------------------------------
molecule {
1 3
O           0.000000           0.000000           0.000000
H           0.000000           0.000000           1.481203
}

set {
basis              cc-pvtz
reference          uks
maxiter            500
DAMPING_PERCENTAGE 1
E_CONVERGENCE      1.0E-8
D_CONVERGENCE      1.0E-8
DIIS_MAX_VECS      400
MBIS_MAXITER       8000
guess              read
}

E, wfn = energy('b3lyp', restart_file='last_wfn', return_wfn=True)
properties('b3lyp','MBIS_CHARGES', wfn=wfn)
wfn.to_file('last_wfn')
--------------------------------------------------------------------------

    Molecular point group: c2v
  Charge       = 1
  Multiplicity = 3
  Basis Set: CC-PVTZ
    Blend: CC-PVTZ
  Basis Set: (CC-PVTZ AUX)
    Blend: CC-PVTZ-JKFIT
  @DF-UKS Final Energy:   -75.23293836476994
    Total Energy =                        -75.2329383647699359
 Dipole X            :          0.0000000            0.0000000            0.0000000
 Dipole Y            :          0.0000000            0.0000000            0.0000000
 Dipole Z            :          0.0999581            1.3058535            1.4058116
 Magnitude           :                                                    1.4058116
    Molecular point group: c2v

    Geometry (in Angstrom), charge = 1, multiplicity = 3:

       Center              X                  Y                   Z               Mass
    ------------   -----------------  -----------------  -----------------  -----------------
         O            0.000000000000     0.000000000000    -0.087797231022    15.994914619570
         H            0.000000000000     0.000000000000     1.393405768978     1.007825032230

  Charge       = 1
  Multiplicity = 3
  Basis Set: CC-PVTZ
    Blend: CC-PVTZ
  Basis Set: (CC-PVTZ AUX)
    Blend: CC-PVTZ-JKFIT

    Orbital Energies [Eh]
    ---------------------

    Alpha Occupied:

       1A1   -19.765019     2A1    -1.467035     1B2    -0.888135
       1B1    -0.888135     3A1    -0.868526

    Alpha Virtual:

       4A1    -0.458945     5A1    -0.027554     2B2     0.135849
       2B1     0.135849     6A1     0.238743     3B2     0.338284
       3B1     0.338284     7A1     0.390921     8A1     0.671580
       9A1     0.979926     1A2     0.979926     4B2     1.094601
       4B1     1.094601    10A1     1.497921    11A1     1.997837
      12A1     2.672438     2A2     2.791180    13A1     2.791180
       5B2     2.820562     5B1     2.820562     6B2     3.091355
       6B1     3.091355     7B2     3.246245     7B1     3.246245
      14A1     3.359213    15A1     4.049163     8B1     4.559380
       8B2     4.559380     3A2     4.592158    16A1     4.592158
       9B1     4.782961     9B2     4.782961    17A1     5.140108
       4A2     5.563736    18A1     5.563739    10B1     5.767473
      10B2     5.767473    19A1     6.374120    20A1     6.945684

    Beta Occupied:

       1A1   -19.706114     2A1    -1.296015     3A1    -0.814446

    Beta Virtual:

       1B1    -0.585596     1B2    -0.585596     4A1    -0.465354
       5A1    -0.037741     2B2     0.177841     2B1     0.177841
       6A1     0.264014     3B2     0.357832     3B1     0.357832
       7A1     0.419306     8A1     0.703879     1A2     1.093517
       9A1     1.093517     4B2     1.152146     4B1     1.152146
      10A1     1.523698    11A1     1.962595    12A1     2.686473
       2A2     2.759791    13A1     2.759795     5B1     2.822984
       5B2     2.822984     6B2     3.202102     6B1     3.202102
       7B2     3.219435     7B1     3.219435    14A1     3.348576
      15A1     4.072236    16A1     4.695635     3A2     4.695635
       8B1     4.710620     8B2     4.710620     9B1     4.861625
       9B2     4.861625    17A1     5.201936     4A2     5.778805
      18A1     5.778808    10B1     5.887613    10B2     5.887613
      19A1     6.439181    20A1     7.064794

    Final Occupation by Irrep:
             A1    A2    B1    B2
    DOCC [     3,    0,    0,    0 ]
    SOCC [     0,    0,    1,    1 ]
    NA   [     3,    0,    1,    1 ]
    NB   [     3,    0,    0,    0 ]

  @DF-UKS Final Energy:   -75.23293836471842

   => Energetics <=

    Nuclear Repulsion Energy =              2.8580941878729655
    One-Electron Energy =                -105.6016114236333436
    Two-Electron Energy =                  34.3072887818256405
    DFT Exchange-Correlation Energy =      -6.7967099107836955
    Empirical Dispersion Energy =           0.0000000000000000
    VV10 Nonlocal Energy =                  0.0000000000000000
    Total Energy =                        -75.2329383647184358

  UHF NO Occupations:
  HONO-2 :    3 A1 1.9858219
  HONO-1 :    1 B2 1.0000000
  HONO-0 :    1 B1 1.0000000
  LUNO+0 :    4 A1 0.0141781
  LUNO+1 :    5 A1 0.0009053
  LUNO+2 :    6 A1 0.0000014
  LUNO+3 :    7 A1 0.0000000

Computation Completed

Properties will be evaluated at   0.000000,   0.000000,   0.000000 [a0]

Properties computed using the B3LYP density matrix

 Multipole Moments:

 ------------------------------------------------------------------------------------
     Multipole            Electronic (a.u.)      Nuclear  (a.u.)        Total (a.u.)
 ------------------------------------------------------------------------------------

 L = 1.  Multiply by 2.5417464519 to convert [e a0] to [Debye]
 Dipole X            :          0.0000000            0.0000000            0.0000000
 Dipole Y            :          0.0000000            0.0000000            0.0000000
 Dipole Z            :          0.0999581            1.3058535            1.4058116
 Magnitude           :                                                    1.4058116

 L = 2.  Multiply by 1.3450342976 to convert [e a0^2] to [Debye ang]
 Quadrupole XX       :         -3.2412742            0.0000000           -3.2412742
 Quadrupole XY       :          0.0000000            0.0000000            0.0000000
 Quadrupole XZ       :          0.0000000            0.0000000            0.0000000
 Quadrupole YY       :         -3.2412742            0.0000000           -3.2412742
 Quadrupole YZ       :          0.0000000            0.0000000            0.0000000
 Quadrupole ZZ       :         -6.4010010            7.1537230            0.7527220
 Traceless XX        :          1.0532423           -2.3845743           -1.3313320
 Traceless YY        :          1.0532423           -2.3845743           -1.3313320
 Traceless ZZ        :         -2.1064846            4.7691487            2.6626641

 ------------------------------------------------------------------------------------
  ==> Computing MBIS Charges <==

  Electron Count from Grid (Expected Number):  8.00000 ( 8.00000)
  Difference: -0.00000

  MBIS Charges: (a.u.)
   Center  Symbol  Z      Pop.       Charge
      1       O    8    7.589632    0.410368
      2       H    1    0.410368    0.589632

  MBIS Dipoles: [e a0]
   Center  Symbol  Z        X           Y           Z
      1       O    8   -0.000000   -0.000000   -0.160676
      2       H    1    0.000000    0.000000    0.081981

  MBIS Quadrupoles: [e a0^2]
   Center  Symbol  Z      XX        XY        XZ        YY        YZ        ZZ
      1       O    8   -2.9764   -0.0000    0.0000   -2.9764    0.0000   -3.5877
      2       H    1   -0.2649    0.0000    0.0000   -0.2649    0.0000   -0.2442

  MBIS Octupoles: [e a0^3]
   Center  Symbol  Z      XXX       XXY       XXZ       XYY       XYZ       XZZ       YYY       YYZ       YZZ       ZZZ
      1       O    8   -0.0000   -0.0000   -0.1386   -0.0000    0.0000   -0.0000   -0.0000   -0.1386   -0.0000   -0.5517
      2       H    1    0.0000    0.0000    0.0449    0.0000    0.0000   -0.0000    0.0000    0.0449    0.0000    0.1206

  MBIS Radial Moments:
   Center  Symbol  Z      [a0^2]      [a0^3]      [a0^4]
      1       O    8    9.540427   16.803237   35.390147
      2       H    1    0.773963    1.475071    3.338575

  MBIS Valence Widths: [a0]
   Center  Symbol  Z     Width
      1       O    8    0.367261
      2       H    1    0.403644

*** tstop() called on Mac.lan at Sun Aug 10 18:30:40 2025
Module time:
	user time   =       4.52 seconds =       0.08 minutes
	system time =       3.21 seconds =       0.05 minutes
	total time  =          1 seconds =       0.02 minutes
Total time:
	user time   =      40.90 seconds =       0.68 minutes
	system time =       6.55 seconds =       0.11 minutes
	total time  =          5 seconds =       0.08 minutes

    Psi4 stopped on: Sunday, 10 August 2025 06:30PM
    Psi4 wall time for execution: 0:00:04.88

*** Psi4 exiting successfully. Buy a developer a beer!
