                               Psi4 1.9.1 release

  ==> Input File <==

--------------------------------------------------------------------------
molecule {
1 4
C           0.000000           0.000000           0.000000
C           0.000000           0.000000           1.590983
}

set {
basis              cc-pvtz
reference          uks
maxiter            500
DAMPING_PERCENTAGE 1
E_CONVERGENCE      1.0E-8
D_CONVERGENCE      1.0E-8
DIIS_MAX_VECS      400
MBIS_MAXITER       8000
guess              read
}

E, wfn = energy('b3lyp', restart_file='last_wfn', return_wfn=True)
properties('b3lyp','MBIS_CHARGES', wfn=wfn)
wfn.to_file('last_wfn')
--------------------------------------------------------------------------

    Molecular point group: d2h
  Charge       = 1
  Multiplicity = 4
  Basis Set: CC-PVTZ
    Blend: CC-PVTZ
  Basis Set: (CC-PVTZ AUX)
    Blend: CC-PVTZ-JKFIT
  @DF-UKS Final Energy:   -75.48915258829651
    Total Energy =                        -75.4891525882965055
 Dipole X            :          0.0000000            0.0000000            0.0000000
 Dipole Y            :          0.0000000            0.0000000            0.0000000
 Dipole Z            :          0.0000000           -0.0000000           -0.0000000
 Magnitude           :                                                    0.0000000
    Molecular point group: d2h

    Geometry (in Angstrom), charge = 1, multiplicity = 4:

       Center              X                  Y                   Z               Mass
    ------------   -----------------  -----------------  -----------------  -----------------
         C            0.000000000000     0.000000000000    -0.795491500000    12.000000000000
         C            0.000000000000     0.000000000000     0.795491500000    12.000000000000

  Charge       = 1
  Multiplicity = 4
  Basis Set: CC-PVTZ
    Blend: CC-PVTZ
  Basis Set: (CC-PVTZ AUX)
    Blend: CC-PVTZ-JKFIT

    Orbital Energies [Eh]
    ---------------------

    Alpha Occupied:

       1Ag   -10.723900     1B1u  -10.723607     2Ag    -1.124210
       2B1u   -0.844822     3Ag    -0.693804     1B3u   -0.672680
       1B2u   -0.672680

    Alpha Virtual:

       1B2g   -0.453762     1B3g   -0.453762     3B1u   -0.196244
       2B3u    0.011792     2B2u    0.011792     4B1u    0.019610
       4Ag     0.028669     5Ag     0.044485     2B2g    0.094604
       2B3g    0.094604     1B1g    0.241639     6Ag     0.241639
       3B3u    0.309205     3B2u    0.309205     5B1u    0.346383
       1Au     0.476041     6B1u    0.476041     7Ag     0.775716
       3B3g    0.777886     3B2g    0.777886     7B1u    0.806578
       4B3u    1.517534     4B2u    1.517534     8Ag     1.602626
       4B2g    1.667178     4B3g    1.667178     5B3u    2.022123
       5B2u    2.022123     2B1g    2.025849     9Ag     2.025850
      10Ag     2.118289     8B1u    2.168624     6B2u    2.204287
       6B3u    2.204287     5B3g    2.362428     5B2g    2.362428
      11Ag     2.498808     3B1g    2.498809     9B1u    2.545151
       2Au     2.545153    10B1u    2.579417     6B3g    2.681969
       6B2g    2.681969    11B1u    2.764134     3Au     2.764135
       7B3u    2.773033     7B2u    2.773033    12B1u    3.092359
      12Ag     3.321755     7B3g    3.494667     7B2g    3.494667
      13Ag     3.538368    13B1u    6.537532

    Beta Occupied:

       1Ag   -10.699307     1B1u  -10.699228     2Ag    -1.027617
       2B1u   -0.727921

    Beta Virtual:

       3Ag    -0.525871     1B3u   -0.517976     1B2u   -0.517976
       1B2g   -0.356033     1B3g   -0.356033     3B1u   -0.126268
       2B3u    0.039497     2B2u    0.039497     4B1u    0.059531
       4Ag     0.060168     5Ag     0.077668     2B2g    0.117414
       2B3g    0.117414     1B1g    0.292758     6Ag     0.292758
       3B3u    0.370422     3B2u    0.370422     5B1u    0.372884
       1Au     0.520777     6B1u    0.520777     3B3g    0.822091
       3B2g    0.822091     7Ag     0.830828     7B1u    0.848501
       4B3u    1.574640     4B2u    1.574640     8Ag     1.663772
       4B2g    1.722856     4B3g    1.722856     5B3u    2.085899
       5B2u    2.085899     2B1g    2.093456     9Ag     2.093457
      10Ag     2.188855     8B1u    2.225024     6B2u    2.270276
       6B3u    2.270276     5B3g    2.427687     5B2g    2.427687
      11Ag     2.583373     3B1g    2.583375     9B1u    2.622556
       2Au     2.622557    10B1u    2.657259     6B3g    2.763259
       6B2g    2.763259     3Au     2.836322    11B1u    2.836323
       7B3u    2.857955     7B2u    2.857955    12B1u    3.158389
      12Ag     3.386732     7B3g    3.561465     7B2g    3.561465
      13Ag     3.594597    13B1u    6.582849

    Final Occupation by Irrep:
             Ag   B1g   B2g   B3g    Au   B1u   B2u   B3u
    DOCC [     2,    0,    0,    0,    0,    2,    0,    0 ]
    SOCC [     1,    0,    0,    0,    0,    0,    1,    1 ]
    NA   [     3,    0,    0,    0,    0,    2,    1,    1 ]
    NB   [     2,    0,    0,    0,    0,    2,    0,    0 ]

  @DF-UKS Final Energy:   -75.48915258877813

   => Energetics <=

    Nuclear Repulsion Energy =             11.9739680336747796
    One-Electron Energy =                -120.4005655303513151
    Two-Electron Energy =                  41.1367546743648660
    DFT Exchange-Correlation Energy =      -8.1993097664664383
    Empirical Dispersion Energy =           0.0000000000000000
    VV10 Nonlocal Energy =                  0.0000000000000000
    Total Energy =                        -75.4891525887781114

  UHF NO Occupations:
  HONO-2 :    1B3u 1.0000000
  HONO-1 :    3 Ag 1.0000000
  HONO-0 :    1B2u 1.0000000
  LUNO+0 :    3B1u 0.0015045
  LUNO+1 :    4 Ag 0.0001131
  LUNO+2 :    4B1u 0.0000008
  LUNO+3 :    5 Ag 0.0000006

Computation Completed

Properties will be evaluated at   0.000000,   0.000000,   0.000000 [a0]

Properties computed using the B3LYP density matrix

 Multipole Moments:

 ------------------------------------------------------------------------------------
     Multipole            Electronic (a.u.)      Nuclear  (a.u.)        Total (a.u.)
 ------------------------------------------------------------------------------------

 L = 1.  Multiply by 2.5417464519 to convert [e a0] to [Debye]
 Dipole X            :          0.0000000            0.0000000            0.0000000
 Dipole Y            :          0.0000000            0.0000000            0.0000000
 Dipole Z            :          0.0000000           -0.0000000           -0.0000000
 Magnitude           :                                                    0.0000000

 L = 2.  Multiply by 1.3450342976 to convert [e a0^2] to [Debye ang]
 Quadrupole XX       :         -6.6584924            0.0000000           -6.6584924
 Quadrupole XY       :          0.0000000            0.0000000            0.0000000
 Quadrupole XZ       :          0.0000000            0.0000000            0.0000000
 Quadrupole YY       :         -6.6584924            0.0000000           -6.6584924
 Quadrupole YZ       :          0.0000000            0.0000000            0.0000000
 Quadrupole ZZ       :        -31.5532525           27.1175261           -4.4357264
 Traceless XX        :          8.2982534           -9.0391754           -0.7409220
 Traceless YY        :          8.2982534           -9.0391754           -0.7409220
 Traceless ZZ        :        -16.5965068           18.0783508            1.4818440

 ------------------------------------------------------------------------------------
  ==> Computing MBIS Charges <==

  Electron Count from Grid (Expected Number): 11.00000 (11.00000)
  Difference:  0.00000

  MBIS Charges: (a.u.)
   Center  Symbol  Z      Pop.       Charge
      1       C    6    5.500000    0.500000
      2       C    6    5.500000    0.500000

  MBIS Dipoles: [e a0]
   Center  Symbol  Z        X           Y           Z
      1       C    6   -0.000000    0.000000   -0.125825
      2       C    6   -0.000000    0.000000    0.125825

  MBIS Quadrupoles: [e a0^2]
   Center  Symbol  Z      XX        XY        XZ        YY        YZ        ZZ
      1       C    6   -3.3292    0.0000   -0.0000   -3.3292   -0.0000   -3.7261
      2       C    6   -3.3292    0.0000    0.0000   -3.3292    0.0000   -3.7261

  MBIS Octupoles: [e a0^3]
   Center  Symbol  Z      XXX       XXY       XXZ       XYY       XYZ       XZZ       YYY       YYZ       YZZ       ZZZ
      1       C    6   -0.0000   -0.0000   -0.1693   -0.0000   -0.0000   -0.0000    0.0000   -0.1693    0.0000   -0.5910
      2       C    6   -0.0000   -0.0000    0.1693   -0.0000   -0.0000   -0.0000    0.0000    0.1693    0.0000    0.5910

  MBIS Radial Moments:
   Center  Symbol  Z      [a0^2]      [a0^3]      [a0^4]
      1       C    6   10.384547   23.086955   61.075301
      2       C    6   10.384547   23.086955   61.075301

  MBIS Valence Widths: [a0]
   Center  Symbol  Z     Width
      1       C    6    0.480393
      2       C    6    0.480393

*** tstop() called on Mac.lan at Sun Aug 10 18:22:50 2025
Module time:
	user time   =       3.83 seconds =       0.06 minutes
	system time =       2.41 seconds =       0.04 minutes
	total time  =          1 seconds =       0.02 minutes
Total time:
	user time   =      15.23 seconds =       0.25 minutes
	system time =       4.58 seconds =       0.08 minutes
	total time  =          2 seconds =       0.03 minutes

    Psi4 stopped on: Sunday, 10 August 2025 06:22PM
    Psi4 wall time for execution: 0:00:01.94

*** Psi4 exiting successfully. Buy a developer a beer!
