                               Psi4 1.9.1 release

  ==> Input File <==

--------------------------------------------------------------------------
molecule {
1 2
H           0.000000           0.000000           0.000000
H           0.000000           0.000000           0.852376
}

set {
basis              cc-pvtz
reference          uks
maxiter            500
DAMPING_PERCENTAGE 1
E_CONVERGENCE      1.0E-8
D_CONVERGENCE      1.0E-8
DIIS_MAX_VECS      400
MBIS_MAXITER       8000
guess              read
}

E, wfn = energy('b3lyp', restart_file='last_wfn', return_wfn=True)
properties('b3lyp','MBIS_CHARGES', wfn=wfn)
wfn.to_file('last_wfn')
--------------------------------------------------------------------------

    Molecular point group: d2h
  Charge       = 1
  Multiplicity = 2
  Basis Set: CC-PVTZ
    Blend: CC-PVTZ
  Basis Set: (CC-PVTZ AUX)
    Blend: CC-PVTZ-JKFIT
  @DF-UKS Final Energy:    -0.59522456777645
    Total Energy =                         -0.5952245677764521
 Dipole X            :          0.0000000            0.0000000            0.0000000
 Dipole Y            :          0.0000000            0.0000000            0.0000000
 Dipole Z            :          0.0000000            0.0000000            0.0000000
 Magnitude           :                                                    0.0000000
    Molecular point group: d2h

    Geometry (in Angstrom), charge = 1, multiplicity = 2:

       Center              X                  Y                   Z               Mass
    ------------   -----------------  -----------------  -----------------  -----------------
         H            0.000000000000     0.000000000000    -0.426188000000     1.007825032230
         H            0.000000000000     0.000000000000     0.426188000000     1.007825032230

  Charge       = 1
  Multiplicity = 2
  Basis Set: CC-PVTZ
    Blend: CC-PVTZ
  Basis Set: (CC-PVTZ AUX)
    Blend: CC-PVTZ-JKFIT

    Orbital Energies [Eh]
    ---------------------

    Alpha Occupied:

       1Ag    -1.003415

    Alpha Virtual:

       1B1u   -0.362555     2Ag    -0.112336     1B2u    0.043260
       1B3u    0.043260     2B1u    0.063763     3Ag     0.458634
       1B2g    0.508245     1B3g    0.508245     3B1u    0.970161
       4Ag     1.583739     4B1u    1.583830     1B1g    2.342164
       5Ag     2.342164     2B2u    2.421914     2B3u    2.421914
       6Ag     2.706545     2B3g    3.128478     2B2g    3.128478
       1Au     3.156911     5B1u    3.156911     3B2u    3.173268
       3B3u    3.173268     6B1u    3.521105     3B3g    4.457289
       3B2g    4.457289     7Ag     4.497034     7B1u    5.522160

    Beta Occupied:

    Beta Virtual:

       1Ag    -0.613775     1B1u   -0.208080     2Ag    -0.023601
       1B2u    0.188025     1B3u    0.188025     2B1u    0.194174
       3Ag     0.582398     1B3g    0.613682     1B2g    0.613682
       3B1u    1.052817     4B1u    1.858692     4Ag     1.875464
       1B1g    2.540007     5Ag     2.540007     2B2u    2.679524
       2B3u    2.679524     6Ag     2.983456     1Au     3.342333
       5B1u    3.342333     2B3g    3.357165     2B2g    3.357165
       3B2u    3.394390     3B3u    3.394390     6B1u    3.727834
       3B3g    4.679169     3B2g    4.679169     7Ag     4.741811
       7B1u    5.852261

    Final Occupation by Irrep:
             Ag   B1g   B2g   B3g    Au   B1u   B2u   B3u
    DOCC [     0,    0,    0,    0,    0,    0,    0,    0 ]
    SOCC [     1,    0,    0,    0,    0,    0,    0,    0 ]
    NA   [     1,    0,    0,    0,    0,    0,    0,    0 ]
    NB   [     0,    0,    0,    0,    0,    0,    0,    0 ]

  @DF-UKS Final Energy:    -0.59522456782714

   => Energetics <=

    Nuclear Repulsion Energy =              0.6208260329596327
    One-Electron Energy =                  -1.2114631788421235
    Two-Electron Energy =                   0.2928007750896489
    DFT Exchange-Correlation Energy =      -0.2973881970342991
    Empirical Dispersion Energy =           0.0000000000000000
    VV10 Nonlocal Energy =                  0.0000000000000000
    Total Energy =                         -0.5952245678271411

  UHF NO Occupations:
  HONO-0 :    1 Ag 1.0000000
  LUNO+0 :    2 Ag 0.0000000
  LUNO+1 :    3 Ag 0.0000000
  LUNO+2 :    3B3u 0.0000000
  LUNO+3 :    2B3u 0.0000000

Computation Completed

Properties will be evaluated at   0.000000,   0.000000,   0.000000 [a0]

Properties computed using the B3LYP density matrix

 Multipole Moments:

 ------------------------------------------------------------------------------------
     Multipole            Electronic (a.u.)      Nuclear  (a.u.)        Total (a.u.)
 ------------------------------------------------------------------------------------

 L = 1.  Multiply by 2.5417464519 to convert [e a0] to [Debye]
 Dipole X            :          0.0000000            0.0000000            0.0000000
 Dipole Y            :          0.0000000            0.0000000            0.0000000
 Dipole Z            :          0.0000000            0.0000000            0.0000000
 Magnitude           :                                                    0.0000000

 L = 2.  Multiply by 1.3450342976 to convert [e a0^2] to [Debye ang]
 Quadrupole XX       :         -0.5565050            0.0000000           -0.5565050
 Quadrupole XY       :          0.0000000            0.0000000            0.0000000
 Quadrupole XZ       :          0.0000000            0.0000000            0.0000000
 Quadrupole YY       :         -0.5565050            0.0000000           -0.5565050
 Quadrupole YZ       :          0.0000000            0.0000000            0.0000000
 Quadrupole ZZ       :         -0.8683361            1.2972694            0.4289333
 Traceless XX        :          0.1039437           -0.4324231           -0.3284794
 Traceless YY        :          0.1039437           -0.4324231           -0.3284794
 Traceless ZZ        :         -0.2078874            0.8648462            0.6569589

 ------------------------------------------------------------------------------------
  ==> Computing MBIS Charges <==

  Electron Count from Grid (Expected Number):  1.00000 ( 1.00000)
  Difference:  0.00000

  MBIS Charges: (a.u.)
   Center  Symbol  Z      Pop.       Charge
      1       H    1    0.500000    0.500000
      2       H    1    0.500000    0.500000

  MBIS Dipoles: [e a0]
   Center  Symbol  Z        X           Y           Z
      1       H    1   -0.000000   -0.000000   -0.083670
      2       H    1   -0.000000   -0.000000    0.083670

  MBIS Quadrupoles: [e a0^2]
   Center  Symbol  Z      XX        XY        XZ        YY        YZ        ZZ
      1       H    1   -0.2783    0.0000    0.0000   -0.2783    0.0000   -0.2446
      2       H    1   -0.2783    0.0000   -0.0000   -0.2783   -0.0000   -0.2446

  MBIS Octupoles: [e a0^3]
   Center  Symbol  Z      XXX       XXY       XXZ       XYY       XYZ       XZZ       YYY       YYZ       YZZ       ZZZ
      1       H    1   -0.0000   -0.0000   -0.0486   -0.0000   -0.0000   -0.0000   -0.0000   -0.0486   -0.0000   -0.0895
      2       H    1    0.0000   -0.0000    0.0486   -0.0000    0.0000   -0.0000   -0.0000    0.0486   -0.0000    0.0895

  MBIS Radial Moments:
   Center  Symbol  Z      [a0^2]      [a0^3]      [a0^4]
      1       H    1    0.801128    1.413717    2.964838
      2       H    1    0.801128    1.413717    2.964838

  MBIS Valence Widths: [a0]
   Center  Symbol  Z     Width
      1       H    1    0.371209
      2       H    1    0.371209

*** tstop() called on Mac.lan at Sun Aug 10 18:11:22 2025
Module time:
	user time   =       1.57 seconds =       0.03 minutes
	system time =       0.23 seconds =       0.00 minutes
	total time  =          0 seconds =       0.00 minutes
Total time:
	user time   =       2.40 seconds =       0.04 minutes
	system time =       2.45 seconds =       0.04 minutes
	total time  =          0 seconds =       0.00 minutes

    Psi4 stopped on: Sunday, 10 August 2025 06:11PM
    Psi4 wall time for execution: 0:00:00.73

*** Psi4 exiting successfully. Buy a developer a beer!
