                               Psi4 1.9.1 release

  ==> Input File <==

--------------------------------------------------------------------------
molecule {
1 1
O           0.000000           0.000000           0.000000
N           0.000000           0.000000           1.314022
}

set {
basis              cc-pvtz
reference          uks
maxiter            500
DAMPING_PERCENTAGE 1
E_CONVERGENCE      1.0E-8
D_CONVERGENCE      1.0E-8
DIIS_MAX_VECS      400
MBIS_MAXITER       8000
guess              read
}

E, wfn = energy('b3lyp', restart_file='last_wfn', return_wfn=True)
properties('b3lyp','MBIS_CHARGES', wfn=wfn)
wfn.to_file('last_wfn')
--------------------------------------------------------------------------

    Molecular point group: c2v
  Charge       = 1
  Multiplicity = 1
  Basis Set: CC-PVTZ
    Blend: CC-PVTZ
  Basis Set: (CC-PVTZ AUX)
    Blend: CC-PVTZ-JKFIT
  @DF-UKS Final Energy:  -129.47537776725150
    Total Energy =                       -129.4753777672515014
 Dipole X            :          0.0000000            0.0000000            0.0000000
 Dipole Y            :          0.0000000            0.0000000            0.0000000
 Dipole Z            :          0.3815128           -0.0049823            0.3765305
 Magnitude           :                                                    0.3765305
    Molecular point group: c2v

    Geometry (in Angstrom), charge = 1, multiplicity = 1:

       Center              X                  Y                   Z               Mass
    ------------   -----------------  -----------------  -----------------  -----------------
         O            0.000000000000     0.000000000000    -0.613386035313    15.994914619570
         N            0.000000000000     0.000000000000     0.700635964687    14.003074004430

  Charge       = 1
  Multiplicity = 1
  Basis Set: CC-PVTZ
    Blend: CC-PVTZ
  Basis Set: (CC-PVTZ AUX)
    Blend: CC-PVTZ-JKFIT

    Orbital Energies [Eh]
    ---------------------

    Alpha Occupied:

       1A1   -19.763549     2A1   -15.008759     3A1    -1.576769
       4A1    -1.132446     5A1    -0.894422     1B1    -0.877161
       1B2    -0.877161

    Alpha Virtual:

       2B1    -0.580245     2B2    -0.580245     6A1    -0.252959
       7A1     0.072462     3B1     0.105354     3B2     0.105354
       8A1     0.146589     9A1     0.234985     4B1     0.282656
       4B2     0.282656     1A2     0.567324    10A1     0.567324
       5B2     0.660785     5B1     0.660785    11A1     0.817990
      12A1     1.104244     2A2     1.104244    13A1     1.172234
       6B2     1.530533     6B1     1.530533    14A1     1.710055
       7B1     2.362639     7B2     2.362639    15A1     2.604358
       8B1     3.033481     8B2     3.033481     3A2     3.329407
      16A1     3.329407     9B2     3.378947     9B1     3.378947
      17A1     3.470632    10B1     3.569710    10B2     3.569710
      18A1     3.824611    19A1     3.902756     4A2     3.902758
      20A1     4.122757    11B2     4.189394    11B1     4.189394
      12B2     4.629750    12B1     4.629750    21A1     4.868849
       5A2     4.868850    22A1     5.177037    13B1     5.530708
      13B2     5.530708    23A1     5.704316     6A2     5.704326
      24A1     6.045877    14B2     6.226977    14B1     6.226977
      25A1     6.895870    26A1     9.613583

    Beta Occupied:

       1A1   -19.763549     2A1   -15.008759     3A1    -1.576769
       4A1    -1.132446     5A1    -0.894422     1B1    -0.877161
       1B2    -0.877161

    Beta Virtual:

       2B1    -0.580245     2B2    -0.580245     6A1    -0.252959
       7A1     0.072462     3B1     0.105354     3B2     0.105354
       8A1     0.146589     9A1     0.234985     4B1     0.282656
       4B2     0.282656     1A2     0.567324    10A1     0.567324
       5B2     0.660785     5B1     0.660785    11A1     0.817990
      12A1     1.104244     2A2     1.104244    13A1     1.172234
       6B2     1.530533     6B1     1.530533    14A1     1.710055
       7B1     2.362639     7B2     2.362639    15A1     2.604358
       8B1     3.033481     8B2     3.033481     3A2     3.329407
      16A1     3.329407     9B2     3.378947     9B1     3.378947
      17A1     3.470632    10B1     3.569710    10B2     3.569710
      18A1     3.824611    19A1     3.902756     4A2     3.902758
      20A1     4.122757    11B2     4.189394    11B1     4.189394
      12B2     4.629750    12B1     4.629750    21A1     4.868849
       5A2     4.868850    22A1     5.177037    13B1     5.530708
      13B2     5.530708    23A1     5.704316     6A2     5.704326
      24A1     6.045877    14B2     6.226977    14B1     6.226977
      25A1     6.895870    26A1     9.613583

    Final Occupation by Irrep:
             A1    A2    B1    B2
    DOCC [     5,    0,    1,    1 ]
    SOCC [     0,    0,    0,    0 ]
    NA   [     5,    0,    1,    1 ]
    NB   [     5,    0,    1,    1 ]

  @DF-UKS Final Energy:  -129.47537776278904

   => Energetics <=

    Nuclear Repulsion Energy =             22.5520758385476086
    One-Electron Energy =                -215.2134726392336006
    Two-Electron Energy =                  75.1102661782865084
    DFT Exchange-Correlation Energy =     -11.9242471403895625
    Empirical Dispersion Energy =           0.0000000000000000
    VV10 Nonlocal Energy =                  0.0000000000000000
    Total Energy =                       -129.4753777627890372

  UHF NO Occupations:
  HONO-2 :    4 A1 2.0000000
  HONO-1 :    1 B2 2.0000000
  HONO-0 :    5 A1 2.0000000
  LUNO+0 :    6 A1 0.0000000
  LUNO+1 :    7 A1 0.0000000
  LUNO+2 :    8 A1 0.0000000
  LUNO+3 :    9 A1 0.0000000

Computation Completed

Properties will be evaluated at   0.000000,   0.000000,   0.000000 [a0]

Properties computed using the B3LYP density matrix

 Multipole Moments:

 ------------------------------------------------------------------------------------
     Multipole            Electronic (a.u.)      Nuclear  (a.u.)        Total (a.u.)
 ------------------------------------------------------------------------------------

 L = 1.  Multiply by 2.5417464519 to convert [e a0] to [Debye]
 Dipole X            :          0.0000000            0.0000000            0.0000000
 Dipole Y            :          0.0000000            0.0000000            0.0000000
 Dipole Z            :          0.3815129           -0.0049823            0.3765306
 Magnitude           :                                                    0.3765306

 L = 2.  Multiply by 1.3450342976 to convert [e a0^2] to [Debye ang]
 Quadrupole XX       :         -6.1847239            0.0000000           -6.1847239
 Quadrupole XY       :          0.0000000            0.0000000            0.0000000
 Quadrupole XZ       :          0.0000000            0.0000000            0.0000000
 Quadrupole YY       :         -6.1847239            0.0000000           -6.1847239
 Quadrupole YZ       :          0.0000000            0.0000000            0.0000000
 Quadrupole ZZ       :        -27.6975814           23.0197078           -4.6778736
 Traceless XX        :          7.1709525           -7.6732359           -0.5022834
 Traceless YY        :          7.1709525           -7.6732359           -0.5022834
 Traceless ZZ        :        -14.3419050           15.3464719            1.0045669

 ------------------------------------------------------------------------------------
  ==> Computing MBIS Charges <==

  Electron Count from Grid (Expected Number): 14.00000 (14.00000)
  Difference:  0.00000

  MBIS Charges: (a.u.)
   Center  Symbol  Z      Pop.       Charge
      1       O    8    7.684184    0.315816
      2       N    7    6.315816    0.684184

  MBIS Dipoles: [e a0]
   Center  Symbol  Z        X           Y           Z
      1       O    8   -0.000000    0.000000   -0.156139
      2       N    7    0.000000   -0.000000   -0.007125

  MBIS Quadrupoles: [e a0^2]
   Center  Symbol  Z      XX        XY        XZ        YY        YZ        ZZ
      1       O    8   -3.2130    0.0000    0.0000   -3.2130   -0.0000   -3.3432
      2       N    7   -2.9717    0.0000    0.0000   -2.9717    0.0000   -3.3015

  MBIS Octupoles: [e a0^3]
   Center  Symbol  Z      XXX       XXY       XXZ       XYY       XYZ       XZZ       YYY       YYZ       YZZ       ZZZ
      1       O    8   -0.0000   -0.0000   -0.1485   -0.0000    0.0000    0.0000   -0.0000   -0.1485   -0.0000   -0.4389
      2       N    7   -0.0000    0.0000    0.1199   -0.0000   -0.0000    0.0000   -0.0000    0.1199    0.0000    0.2454

  MBIS Radial Moments:
   Center  Symbol  Z      [a0^2]      [a0^3]      [a0^4]
      1       O    8    9.769168   17.233257   36.392822
      2       N    7    9.244962   17.797748   40.864544

  MBIS Valence Widths: [a0]
   Center  Symbol  Z     Width
      1       O    8    0.368955
      2       N    7    0.409528

*** tstop() called on Mac.lan at Sun Aug 10 18:42:26 2025
Module time:
	user time   =       4.00 seconds =       0.07 minutes
	system time =       2.49 seconds =       0.04 minutes
	total time  =          1 seconds =       0.02 minutes
Total time:
	user time   =      18.11 seconds =       0.30 minutes
	system time =       4.82 seconds =       0.08 minutes
	total time  =          2 seconds =       0.03 minutes

    Psi4 stopped on: Sunday, 10 August 2025 06:42PM
    Psi4 wall time for execution: 0:00:02.25

*** Psi4 exiting successfully. Buy a developer a beer!
