                               Psi4 1.9.1 release

  ==> Input File <==

--------------------------------------------------------------------------
molecule {
1 3
N           0.000000           0.000000           0.000000
C           0.000000           0.000000           1.575898
}

set {
basis              cc-pvtz
reference          uks
maxiter            500
DAMPING_PERCENTAGE 1
E_CONVERGENCE      1.0E-8
D_CONVERGENCE      1.0E-8
DIIS_MAX_VECS      400
MBIS_MAXITER       8000
guess              read
}

E, wfn = energy('b3lyp', restart_file='last_wfn', return_wfn=True)
properties('b3lyp','MBIS_CHARGES', wfn=wfn)
wfn.to_file('last_wfn')
--------------------------------------------------------------------------

    Molecular point group: c2v
  Charge       = 1
  Multiplicity = 3
  Basis Set: CC-PVTZ
    Blend: CC-PVTZ
  Basis Set: (CC-PVTZ AUX)
    Blend: CC-PVTZ-JKFIT
  @DF-UKS Final Energy:   -92.15613889954693
    Total Energy =                        -92.1561388995469315
 Dipole X            :          0.0000000            0.0000000            0.0000000
 Dipole Y            :          0.0000000            0.0000000            0.0000000
 Dipole Z            :          0.5564556            0.0021123            0.5585679
 Magnitude           :                                                    0.5585679
    Molecular point group: c2v

    Geometry (in Angstrom), charge = 1, multiplicity = 3:

       Center              X                  Y                   Z               Mass
    ------------   -----------------  -----------------  -----------------  -----------------
         N            0.000000000000     0.000000000000    -0.727251554827    14.003074004430
         C            0.000000000000     0.000000000000     0.848646445173    12.000000000000

  Charge       = 1
  Multiplicity = 3
  Basis Set: CC-PVTZ
    Blend: CC-PVTZ
  Basis Set: (CC-PVTZ AUX)
    Blend: CC-PVTZ-JKFIT

    Orbital Energies [Eh]
    ---------------------

    Alpha Occupied:

       1A1   -14.863396     2A1   -10.784136     3A1    -1.250118
       4A1    -0.931842     5A1    -0.761327     1B1    -0.744788
       1B2    -0.716384

    Alpha Virtual:

       2B1    -0.501008     2B2    -0.463552     6A1    -0.272503
       7A1    -0.004202     3B1     0.021311     3B2     0.036619
       8A1     0.039884     9A1     0.153703     4B1     0.185874
       4B2     0.198143     1A2     0.319026    10A1     0.319343
       5B1     0.359274     5B2     0.382153    11A1     0.538222
      12A1     0.713315     2A2     0.713565    13A1     0.717672
       6B1     0.990659     6B2     1.009927    14A1     1.176384
       7B1     1.571316     7B2     1.602709    15A1     1.801104
       8B1     2.193735     8B2     2.218937    16A1     2.257466
       3A2     2.259139     9B1     2.286878     9B2     2.287156
      17A1     2.331299    10B1     2.509263    18A1     2.536215
       4A2     2.536513    10B2     2.537042    19A1     2.743623
      11B1     2.749265    11B2     2.776974    20A1     2.819963
      12B1     3.457603    12B2     3.457648    21A1     3.574728
       5A2     3.575788    22A1     3.662301    13B1     3.901244
      13B2     3.925137    23A1     4.000881     6A2     4.001056
      24A1     4.263881    14B1     4.408992    14B2     4.430077
      25A1     5.118250    26A1     6.599937

    Beta Occupied:

       1A1   -14.824233     2A1   -10.780342     3A1    -1.157325
       4A1    -0.851160     1B2    -0.669893

    Beta Virtual:

       5A1    -0.588497     1B1    -0.567828     2B2    -0.454432
       2B1    -0.414648     6A1    -0.205424     7A1     0.016164
       3B2     0.023311     3B1     0.033373     8A1     0.063273
       9A1     0.186553     4B2     0.229847     4B1     0.235936
       1A2     0.316872    10A1     0.319996     5B2     0.400009
       5B1     0.409103    11A1     0.580875    12A1     0.751907
       2A2     0.771578    13A1     0.773182     6B2     1.048224
       6B1     1.053268    14A1     1.232280     7B2     1.572032
       7B1     1.591638    15A1     1.845758     8B2     2.247030
       8B1     2.260026     9B2     2.272851     3A2     2.272979
       9B1     2.274372    16A1     2.276759    17A1     2.373211
       4A2     2.519681    18A1     2.527067    10B2     2.571546
      10B1     2.587468    19A1     2.810288    11B2     2.812355
      11B1     2.824594    20A1     2.870525    12B2     3.543988
      12B1     3.544484     5A2     3.653616    21A1     3.655577
      22A1     3.719268    13B2     3.994124    13B1     4.005058
       6A2     4.118549    23A1     4.121911    24A1     4.352690
      14B2     4.510026    14B1     4.517629    25A1     5.186924
      26A1     6.650988

    Final Occupation by Irrep:
             A1    A2    B1    B2
    DOCC [     4,    0,    0,    1 ]
    SOCC [     1,    0,    1,    0 ]
    NA   [     5,    0,    1,    1 ]
    NB   [     4,    0,    0,    1 ]

  @DF-UKS Final Energy:   -92.15613890033129

   => Energetics <=

    Nuclear Repulsion Energy =             14.1033511357587891
    One-Electron Energy =                -147.4183716056766684
    Two-Electron Energy =                  50.5406782101321213
    DFT Exchange-Correlation Energy =      -9.3817966405455451
    Empirical Dispersion Energy =           0.0000000000000000
    VV10 Nonlocal Energy =                  0.0000000000000000
    Total Energy =                        -92.1561389003312996

  UHF NO Occupations:
  HONO-2 :    1 B2 1.8819937
  HONO-1 :    1 B1 1.0000000
  HONO-0 :    5 A1 1.0000000
  LUNO+0 :    2 B2 0.1180063
  LUNO+1 :    6 A1 0.0055436
  LUNO+2 :    7 A1 0.0005050
  LUNO+3 :    8 A1 0.0000010

Computation Completed

Properties will be evaluated at   0.000000,   0.000000,   0.000000 [a0]

Properties computed using the B3LYP density matrix

 Multipole Moments:

 ------------------------------------------------------------------------------------
     Multipole            Electronic (a.u.)      Nuclear  (a.u.)        Total (a.u.)
 ------------------------------------------------------------------------------------

 L = 1.  Multiply by 2.5417464519 to convert [e a0] to [Debye]
 Dipole X            :          0.0000000            0.0000000            0.0000000
 Dipole Y            :          0.0000000            0.0000000            0.0000000
 Dipole Z            :          0.5564556            0.0021123            0.5585679
 Magnitude           :                                                    0.5585679

 L = 2.  Multiply by 1.3450342976 to convert [e a0^2] to [Debye ang]
 Quadrupole XX       :         -6.1258297            0.0000000           -6.1258297
 Quadrupole XY       :          0.0000000            0.0000000            0.0000000
 Quadrupole XZ       :          0.0000000            0.0000000            0.0000000
 Quadrupole YY       :         -7.2863620            0.0000000           -7.2863620
 Quadrupole YZ       :          0.0000000            0.0000000            0.0000000
 Quadrupole ZZ       :        -32.1747374           28.6523262           -3.5224112
 Traceless XX        :          9.0698133           -9.5507754           -0.4809621
 Traceless YY        :          7.9092810           -9.5507754           -1.6414944
 Traceless ZZ        :        -16.9790943           19.1015508            2.1224564

 ------------------------------------------------------------------------------------
  ==> Computing MBIS Charges <==

  Electron Count from Grid (Expected Number): 12.00000 (12.00000)
  Difference: -0.00000

  MBIS Charges: (a.u.)
   Center  Symbol  Z      Pop.       Charge
      1       N    7    6.699725    0.300275
      2       C    6    5.300275    0.699725

  MBIS Dipoles: [e a0]
   Center  Symbol  Z        X           Y           Z
      1       N    7   -0.000000    0.000000   -0.264105
      2       C    6   -0.000000    0.000000    0.113187

  MBIS Quadrupoles: [e a0^2]
   Center  Symbol  Z      XX        XY        XZ        YY        YZ        ZZ
      1       N    7   -3.3193    0.0000   -0.0000   -3.7893    0.0000   -3.5948
      2       C    6   -2.8065    0.0000    0.0000   -3.4971    0.0000   -3.3834

  MBIS Octupoles: [e a0^3]
   Center  Symbol  Z      XXX       XXY       XXZ       XYY       XYZ       XZZ       YYY       YYZ       YZZ       ZZZ
      1       N    7   -0.0000   -0.0000   -0.1921    0.0000    0.0000    0.0000    0.0000   -0.3760   -0.0000   -0.9236
      2       C    6   -0.0000    0.0000    0.1617    0.0000    0.0000    0.0000    0.0000    0.3094    0.0000    0.6167

  MBIS Radial Moments:
   Center  Symbol  Z      [a0^2]      [a0^3]      [a0^4]
      1       N    7   10.703408   21.435306   51.185321
      2       C    6    9.686904   21.396566   56.245113

  MBIS Valence Widths: [a0]
   Center  Symbol  Z     Width
      1       N    7    0.423846
      2       C    6    0.476478

*** tstop() called on Mac.lan at Sun Aug 10 18:34:42 2025
Module time:
	user time   =       3.56 seconds =       0.06 minutes
	system time =       2.47 seconds =       0.04 minutes
	total time  =          0 seconds =       0.00 minutes
Total time:
	user time   =      20.21 seconds =       0.34 minutes
	system time =       4.35 seconds =       0.07 minutes
	total time  =          2 seconds =       0.03 minutes

    Psi4 stopped on: Sunday, 10 August 2025 06:34PM
    Psi4 wall time for execution: 0:00:02.37

*** Psi4 exiting successfully. Buy a developer a beer!
