                               Psi4 1.9.1 release

  ==> Input File <==

--------------------------------------------------------------------------
molecule {
1 2
O           0.000000           0.000000           0.000000
C           0.000000           0.000000           1.542661
}

set {
basis              cc-pvtz
reference          uks
maxiter            500
DAMPING_PERCENTAGE 1
E_CONVERGENCE      1.0E-8
D_CONVERGENCE      1.0E-8
DIIS_MAX_VECS      400
MBIS_MAXITER       8000
guess              read
}

E, wfn = energy('b3lyp', restart_file='last_wfn', return_wfn=True)
properties('b3lyp','MBIS_CHARGES', wfn=wfn)
wfn.to_file('last_wfn')
--------------------------------------------------------------------------

    Molecular point group: c2v
  Charge       = 1
  Multiplicity = 2
  Basis Set: CC-PVTZ
    Blend: CC-PVTZ
  Basis Set: (CC-PVTZ AUX)
    Blend: CC-PVTZ-JKFIT
  @DF-UKS Final Energy:  -112.66745333863541
    Total Energy =                       -112.6674533386354113
 Dipole X            :          0.0000000            0.0000000            0.0000000
 Dipole Y            :          0.0000000            0.0000000            0.0000000
 Dipole Z            :          1.2140514           -0.0031773            1.2108740
 Magnitude           :                                                    1.2108740
    Molecular point group: c2v

    Geometry (in Angstrom), charge = 1, multiplicity = 2:

       Center              X                  Y                   Z               Mass
    ------------   -----------------  -----------------  -----------------  -----------------
         O            0.000000000000     0.000000000000    -0.661260527191    15.994914619570
         C            0.000000000000     0.000000000000     0.881400472809    12.000000000000

  Charge       = 1
  Multiplicity = 2
  Basis Set: CC-PVTZ
    Blend: CC-PVTZ
  Basis Set: (CC-PVTZ AUX)
    Blend: CC-PVTZ-JKFIT

    Orbital Energies [Eh]
    ---------------------

    Alpha Occupied:

       1A1   -19.667239     2A1   -10.864050     3A1    -1.393861
       4A1    -1.004095     5A1    -0.830454     1B2    -0.757322
       1B1    -0.757322

    Alpha Virtual:

       2B2    -0.530982     2B1    -0.530982     6A1    -0.337295
       7A1    -0.013269     3B1     0.009514     3B2     0.009514
       8A1     0.010512     9A1     0.245491     4B1     0.288933
       4B2     0.288933     1A2     0.308103    10A1     0.308103
       5B1     0.415494     5B2     0.415494    11A1     0.630078
      12A1     0.880945    13A1     1.116871     2A2     1.116871
       6B1     1.264535     6B2     1.264535    14A1     1.456146
       7B1     1.573937     7B2     1.573937    15A1     1.856714
       8B2     2.243783     8B1     2.243783     3A2     2.264435
      16A1     2.264435     9B2     2.399786     9B1     2.399786
      17A1     2.427049     4A2     2.476237    18A1     2.476238
      10B1     2.659764    10B2     2.659764    19A1     2.732897
      20A1     3.276656    11B1     3.303952    11B2     3.303952
      21A1     4.438886    12B1     4.720260    12B2     4.720260
      22A1     4.756535     5A2     4.756537    13B2     5.010020
      13B1     5.010020    23A1     5.414005     6A2     5.776387
      24A1     5.776441    14B1     6.079139    14B2     6.079139
      25A1     6.697422    26A1     7.904727

    Beta Occupied:

       1A1   -19.651984     2A1   -10.854153     3A1    -1.352947
       4A1    -0.943561     1B2    -0.740766     1B1    -0.740766

    Beta Virtual:

       5A1    -0.653767     2B2    -0.514672     2B1    -0.514672
       6A1    -0.278219     7A1    -0.001322     3B1     0.011336
       3B2     0.011336     8A1     0.037931     9A1     0.268096
       4B1     0.301569     4B2     0.301569    10A1     0.310599
       1A2     0.310599     5B1     0.434990     5B2     0.434990
      11A1     0.663692    12A1     0.903433    13A1     1.124459
       2A2     1.124460     6B1     1.293723     6B2     1.293723
      14A1     1.497041     7B1     1.580979     7B2     1.580979
      15A1     1.896485     8B2     2.246288     8B1     2.246288
       3A2     2.281519    16A1     2.281519     9B1     2.420789
       9B2     2.420789    17A1     2.471588     4A2     2.485345
      18A1     2.485345    10B1     2.716217    10B2     2.716217
      19A1     2.802940    20A1     3.317877    11B1     3.319420
      11B2     3.319420    21A1     4.473846    12B1     4.726277
      12B2     4.726277    22A1     4.782942     5A2     4.782942
      13B2     5.050860    13B1     5.050860    23A1     5.476506
       6A2     5.790048    24A1     5.790103    14B1     6.134465
      14B2     6.134465    25A1     6.763147    26A1     7.924542

    Final Occupation by Irrep:
             A1    A2    B1    B2
    DOCC [     4,    0,    1,    1 ]
    SOCC [     1,    0,    0,    0 ]
    NA   [     5,    0,    1,    1 ]
    NB   [     4,    0,    1,    1 ]

  @DF-UKS Final Energy:  -112.66745333528520

   => Energetics <=

    Nuclear Repulsion Energy =             16.4653842368219578
    One-Electron Energy =                -180.9943627273247557
    Two-Electron Energy =                  62.5676490982940692
    DFT Exchange-Correlation Energy =     -10.7061239430764719
    Empirical Dispersion Energy =           0.0000000000000000
    VV10 Nonlocal Energy =                  0.0000000000000000
    Total Energy =                       -112.6674533352852023

  UHF NO Occupations:
  HONO-2 :    1 B1 1.9992052
  HONO-1 :    4 A1 1.9933003
  HONO-0 :    5 A1 1.0000000
  LUNO+0 :    6 A1 0.0066997
  LUNO+1 :    2 B2 0.0007948
  LUNO+2 :    2 B1 0.0007948
  LUNO+3 :    7 A1 0.0001576

Computation Completed

Properties will be evaluated at   0.000000,   0.000000,   0.000000 [a0]

Properties computed using the B3LYP density matrix

 Multipole Moments:

 ------------------------------------------------------------------------------------
     Multipole            Electronic (a.u.)      Nuclear  (a.u.)        Total (a.u.)
 ------------------------------------------------------------------------------------

 L = 1.  Multiply by 2.5417464519 to convert [e a0] to [Debye]
 Dipole X            :          0.0000000            0.0000000            0.0000000
 Dipole Y            :          0.0000000            0.0000000            0.0000000
 Dipole Z            :          1.2140517           -0.0031773            1.2108743
 Magnitude           :                                                    1.2108743

 L = 2.  Multiply by 1.3450342976 to convert [e a0^2] to [Debye ang]
 Quadrupole XX       :         -6.5979161            0.0000000           -6.5979161
 Quadrupole XY       :          0.0000000            0.0000000            0.0000000
 Quadrupole XZ       :          0.0000000            0.0000000            0.0000000
 Quadrupole YY       :         -6.5979161            0.0000000           -6.5979161
 Quadrupole YZ       :          0.0000000            0.0000000            0.0000000
 Quadrupole ZZ       :        -31.6469104           29.1374773           -2.5094332
 Traceless XX        :          8.3496648           -9.7124924           -1.3628276
 Traceless YY        :          8.3496648           -9.7124924           -1.3628276
 Traceless ZZ        :        -16.6993295           19.4249848            2.7256553

 ------------------------------------------------------------------------------------
  ==> Computing MBIS Charges <==

  Electron Count from Grid (Expected Number): 13.00000 (13.00000)
  Difference: -0.00000

  MBIS Charges: (a.u.)
   Center  Symbol  Z      Pop.       Charge
      1       O    8    7.915912    0.084088
      2       C    6    5.084087    0.915913

  MBIS Dipoles: [e a0]
   Center  Symbol  Z        X           Y           Z
      1       O    8   -0.000000   -0.000000   -0.356555
      2       C    6   -0.000000    0.000000    0.146954

  MBIS Quadrupoles: [e a0^2]
   Center  Symbol  Z      XX        XY        XZ        YY        YZ        ZZ
      1       O    8   -3.6988   -0.0000   -0.0000   -3.6988    0.0000   -3.5009
      2       C    6   -2.8991    0.0000    0.0000   -2.8991    0.0000   -3.0615

  MBIS Octupoles: [e a0^3]
   Center  Symbol  Z      XXX       XXY       XXZ       XYY       XYZ       XZZ       YYY       YYZ       YZZ       ZZZ
      1       O    8   -0.0000    0.0000   -0.3366   -0.0000    0.0000   -0.0000   -0.0000   -0.3366   -0.0000   -1.0427
      2       C    6   -0.0000   -0.0000    0.3420    0.0000    0.0000    0.0000    0.0000    0.3420    0.0000    0.6653

  MBIS Radial Moments:
   Center  Symbol  Z      [a0^2]      [a0^3]      [a0^4]
      1       O    8   10.898477   20.098511   44.298606
      2       C    6    8.859693   19.275400   49.892862

  MBIS Valence Widths: [a0]
   Center  Symbol  Z     Width
      1       O    8    0.382391
      2       C    6    0.469929

*** tstop() called on Mac.lan at Sun Aug 10 18:38:47 2025
Module time:
	user time   =       8.99 seconds =       0.15 minutes
	system time =       2.02 seconds =       0.03 minutes
	total time  =          1 seconds =       0.02 minutes
Total time:
	user time   =      59.54 seconds =       0.99 minutes
	system time =       5.55 seconds =       0.09 minutes
	total time  =          6 seconds =       0.10 minutes

    Psi4 stopped on: Sunday, 10 August 2025 06:38PM
    Psi4 wall time for execution: 0:00:06.48

*** Psi4 exiting successfully. Buy a developer a beer!
