                               Psi4 1.9.1 release

  ==> Input File <==

--------------------------------------------------------------------------
molecule {
1 2
O           0.000000           0.000000           0.000000
C           0.000000           0.000000           0.931033
}

set {
basis              cc-pvtz
reference          uks
maxiter            500
DAMPING_PERCENTAGE 1
E_CONVERGENCE      1.0E-8
D_CONVERGENCE      1.0E-8
DIIS_MAX_VECS      400
MBIS_MAXITER       8000
guess              read
}

E, wfn = energy('b3lyp', restart_file='last_wfn', return_wfn=True)
properties('b3lyp','MBIS_CHARGES', wfn=wfn)
wfn.to_file('last_wfn')
--------------------------------------------------------------------------

    Molecular point group: c2v
  Charge       = 1
  Multiplicity = 2
  Basis Set: CC-PVTZ
    Blend: CC-PVTZ
  Basis Set: (CC-PVTZ AUX)
    Blend: CC-PVTZ-JKFIT
  @DF-UKS Final Energy:  -112.71402654771276
    Total Energy =                       -112.7140265477127627
 Dipole X            :          0.0000000            0.0000000            0.0000000
 Dipole Y            :          0.0000000            0.0000000            0.0000000
 Dipole Z            :          0.9497099           -0.0019176            0.9477922
 Magnitude           :                                                    0.9477922
    Molecular point group: c2v

    Geometry (in Angstrom), charge = 1, multiplicity = 2:

       Center              X                  Y                   Z               Mass
    ------------   -----------------  -----------------  -----------------  -----------------
         O            0.000000000000     0.000000000000    -0.399086625261    15.994914619570
         C            0.000000000000     0.000000000000     0.531946374739    12.000000000000

  Charge       = 1
  Multiplicity = 2
  Basis Set: CC-PVTZ
    Blend: CC-PVTZ
  Basis Set: (CC-PVTZ AUX)
    Blend: CC-PVTZ-JKFIT

    Orbital Energies [Eh]
    ---------------------

    Alpha Occupied:

       1A1   -19.627269     2A1   -10.745027     3A1    -1.681249
       1B1    -0.951822     1B2    -0.951822     4A1    -0.941495
       5A1    -0.875521

    Alpha Virtual:

       2B1    -0.345774     2B2    -0.345774     6A1    -0.106644
       7A1    -0.024440     3B1    -0.019840     3B2    -0.019840
       8A1     0.238645     9A1     0.270072     1A2     0.270072
       4B2     0.327204     4B1     0.327204    10A1     0.420119
       5B2     0.564231     5B1     0.564231    11A1     0.860921
       2A2     1.205576    12A1     1.205576    13A1     1.228271
       6B2     1.448214     6B1     1.448214    14A1     1.505886
       7B2     1.669025     7B1     1.669025     8B2     2.209466
       8B1     2.209466    15A1     2.247188    16A1     2.431310
       3A2     2.431310     9B2     2.514085     9B1     2.514085
      17A1     2.559569     4A2     2.559569    18A1     2.636225
      10B1     3.064316    10B2     3.064316    19A1     3.258015
      11B1     3.845636    11B2     3.845636    12B2     4.752243
      12B1     4.752243    20A1     4.765423     5A2     5.433035
      21A1     5.433035    22A1     5.851143     6A2     5.887833
      23A1     5.887838    13B2     6.182949    13B1     6.182949
      14B1     6.520034    14B2     6.520034    24A1     6.566771
      25A1     7.979569    26A1    14.574047

    Beta Occupied:

       1A1   -19.628072     2A1   -10.719703     3A1    -1.674370
       1B1    -0.943858     1B2    -0.943858     4A1    -0.933401

    Beta Virtual:

       5A1    -0.634550     2B1    -0.301870     2B2    -0.301870
       6A1    -0.093169     3B1    -0.008528     3B2    -0.008528
       7A1     0.017543     8A1     0.257059     1A2     0.290083
       9A1     0.290084     4B2     0.327763     4B1     0.327763
      10A1     0.467418     5B2     0.599244     5B1     0.599244
      11A1     0.863186     2A2     1.207583    12A1     1.207583
      13A1     1.285982     6B2     1.469645     6B1     1.469645
      14A1     1.549999     7B2     1.688211     7B1     1.688211
       8B2     2.244444     8B1     2.244444    15A1     2.297102
      16A1     2.480751     3A2     2.480751     4A2     2.612711
      17A1     2.612714     9B2     2.623344     9B1     2.623344
      18A1     2.723024    10B1     3.084916    10B2     3.084916
      19A1     3.320524    11B1     3.863237    11B2     3.863237
      12B2     4.746601    12B1     4.746601    20A1     4.786932
       5A2     5.435944    21A1     5.435944    22A1     5.868623
       6A2     5.879981    23A1     5.879986    13B2     6.183191
      13B1     6.183191    14B1     6.542857    14B2     6.542857
      24A1     6.575005    25A1     7.991714    26A1    14.604768

    Final Occupation by Irrep:
             A1    A2    B1    B2
    DOCC [     4,    0,    1,    1 ]
    SOCC [     1,    0,    0,    0 ]
    NA   [     5,    0,    1,    1 ]
    NB   [     4,    0,    1,    1 ]

  @DF-UKS Final Energy:  -112.71402654756280

   => Energetics <=

    Nuclear Repulsion Energy =             27.2820685326513654
    One-Electron Energy =                -201.3523057223635533
    Two-Electron Energy =                  72.5183791427388513
    DFT Exchange-Correlation Energy =     -11.1621685005894449
    Empirical Dispersion Energy =           0.0000000000000000
    VV10 Nonlocal Energy =                  0.0000000000000000
    Total Energy =                       -112.7140265475627956

  UHF NO Occupations:
  HONO-2 :    1 B2 1.9983297
  HONO-1 :    1 B1 1.9983297
  HONO-0 :    5 A1 1.0000000
  LUNO+0 :    2 B1 0.0016703
  LUNO+1 :    2 B2 0.0016703
  LUNO+2 :    6 A1 0.0000348
  LUNO+3 :    7 A1 0.0000109

Computation Completed

Properties will be evaluated at   0.000000,   0.000000,   0.000000 [a0]

Properties computed using the B3LYP density matrix

 Multipole Moments:

 ------------------------------------------------------------------------------------
     Multipole            Electronic (a.u.)      Nuclear  (a.u.)        Total (a.u.)
 ------------------------------------------------------------------------------------

 L = 1.  Multiply by 2.5417464519 to convert [e a0] to [Debye]
 Dipole X            :          0.0000000            0.0000000            0.0000000
 Dipole Y            :          0.0000000            0.0000000            0.0000000
 Dipole Z            :          0.9497099           -0.0019176            0.9477923
 Magnitude           :                                                    0.9477923

 L = 2.  Multiply by 1.3450342976 to convert [e a0^2] to [Debye ang]
 Quadrupole XX       :         -5.5204782            0.0000000           -5.5204782
 Quadrupole XY       :          0.0000000            0.0000000            0.0000000
 Quadrupole XZ       :          0.0000000            0.0000000            0.0000000
 Quadrupole YY       :         -5.5204782            0.0000000           -5.5204782
 Quadrupole YZ       :          0.0000000            0.0000000            0.0000000
 Quadrupole ZZ       :        -15.0662535           10.6130716           -4.4531819
 Traceless XX        :          3.1819251           -3.5376905           -0.3557654
 Traceless YY        :          3.1819251           -3.5376905           -0.3557654
 Traceless ZZ        :         -6.3638502            7.0753811            0.7115309

 ------------------------------------------------------------------------------------
  ==> Computing MBIS Charges <==

  Electron Count from Grid (Expected Number): 13.00000 (13.00000)
  Difference: -0.00000

  MBIS Charges: (a.u.)
   Center  Symbol  Z      Pop.       Charge
      1       O    8    8.053015   -0.053015
      2       C    6    4.946984    1.053016

  MBIS Dipoles: [e a0]
   Center  Symbol  Z        X           Y           Z
      1       O    8    0.000000    0.000000   -0.235009
      2       C    6    0.000000    0.000000    0.084293

  MBIS Quadrupoles: [e a0^2]
   Center  Symbol  Z      XX        XY        XZ        YY        YZ        ZZ
      1       O    8   -3.2363    0.0000   -0.0000   -3.2363   -0.0000   -3.5030
      2       C    6   -2.2842   -0.0000   -0.0000   -2.2842    0.0000   -2.5080

  MBIS Octupoles: [e a0^3]
   Center  Symbol  Z      XXX       XXY       XXZ       XYY       XYZ       XZZ       YYY       YYZ       YZZ       ZZZ
      1       O    8    0.0000    0.0000   -0.1636   -0.0000   -0.0000   -0.0000    0.0000   -0.1636    0.0000   -0.2629
      2       C    6   -0.0000    0.0000    0.0306   -0.0000   -0.0000   -0.0000    0.0000    0.0306    0.0000   -0.1148

  MBIS Radial Moments:
   Center  Symbol  Z      [a0^2]      [a0^3]      [a0^4]
      1       O    8    9.975621   17.186150   35.410392
      2       C    6    7.076368   14.071491   33.458194

  MBIS Valence Widths: [a0]
   Center  Symbol  Z     Width
      1       O    8    0.361274
      2       C    6    0.423472

*** tstop() called on Mac.lan at Sun Aug 10 18:36:46 2025
Module time:
	user time   =       4.90 seconds =       0.08 minutes
	system time =       1.98 seconds =       0.03 minutes
	total time  =          1 seconds =       0.02 minutes
Total time:
	user time   =      19.40 seconds =       0.32 minutes
	system time =       3.59 seconds =       0.06 minutes
	total time  =          3 seconds =       0.05 minutes

    Psi4 stopped on: Sunday, 10 August 2025 06:36PM
    Psi4 wall time for execution: 0:00:02.25

*** Psi4 exiting successfully. Buy a developer a beer!
