                               Psi4 1.9.1 release

  ==> Input File <==

--------------------------------------------------------------------------
molecule {
1 2
N           0.000000           0.000000           0.000000
N           0.000000           0.000000           1.575994
}

set {
basis              cc-pvtz
reference          uks
maxiter            500
DAMPING_PERCENTAGE 1
E_CONVERGENCE      1.0E-8
D_CONVERGENCE      1.0E-8
DIIS_MAX_VECS      400
MBIS_MAXITER       8000
guess              read
}

E, wfn = energy('b3lyp', restart_file='last_wfn', return_wfn=True)
properties('b3lyp','MBIS_CHARGES', wfn=wfn)
wfn.to_file('last_wfn')
--------------------------------------------------------------------------

    Molecular point group: d2h
  Charge       = 1
  Multiplicity = 2
  Basis Set: CC-PVTZ
    Blend: CC-PVTZ
  Basis Set: (CC-PVTZ AUX)
    Blend: CC-PVTZ-JKFIT
  @DF-UKS Final Energy:  -108.78550471474149
    Total Energy =                       -108.7855047147415064
 Dipole X            :          0.0000000            0.0000000            0.0000000
 Dipole Y            :          0.0000000            0.0000000            0.0000000
 Dipole Z            :          0.0000000           -0.0000000           -0.0000000
 Magnitude           :                                                    0.0000000
    Molecular point group: d2h

    Geometry (in Angstrom), charge = 1, multiplicity = 2:

       Center              X                  Y                   Z               Mass
    ------------   -----------------  -----------------  -----------------  -----------------
         N            0.000000000000     0.000000000000    -0.787997000000    14.003074004430
         N            0.000000000000     0.000000000000     0.787997000000    14.003074004430

  Charge       = 1
  Multiplicity = 2
  Basis Set: CC-PVTZ
    Blend: CC-PVTZ
  Basis Set: (CC-PVTZ AUX)
    Blend: CC-PVTZ-JKFIT

    Orbital Energies [Eh]
    ---------------------

    Alpha Occupied:

       1Ag   -14.952236     1B1u  -14.952068     2Ag    -1.315703
       2B1u   -1.086186     3Ag    -0.848588     1B3u   -0.752316
       1B2u   -0.752316

    Alpha Virtual:

       1B3g   -0.565182     1B2g   -0.565182     3B1u   -0.384593
       4B1u    0.088172     2B2u    0.113627     2B3u    0.113627
       4Ag     0.136751     5Ag     0.175593     2B3g    0.207835
       2B2g    0.207835     3B3u    0.512475     3B2u    0.512475
       5B1u    0.538006     6Ag     0.553239     1B1g    0.553239
       1Au     0.780860     6B1u    0.780860     7Ag     1.006526
       3B3g    1.134953     3B2g    1.134953     7B1u    1.304425
       4B3u    2.279709     4B2u    2.279709     8Ag     2.283244
       4B2g    2.454034     4B3g    2.454034     8B1u    2.979231
       5B3u    3.103374     5B2u    3.103374     9Ag     3.148210
      10Ag     3.185491     2B1g    3.185491     6B2u    3.407101
       6B3u    3.407101     5B3g    3.484424     5B2g    3.484424
       9B1u    3.682801     2Au     3.682803    11Ag     3.916780
       3B1g    3.916784     6B2g    3.952389     6B3g    3.952389
       7B2u    4.034224     7B3u    4.034224    10B1u    4.054075
       3Au     4.054078    11B1u    4.101490    12Ag     4.432600
      12B1u    4.494861     7B2g    4.647222     7B3g    4.647222
      13Ag     5.151644    13B1u    6.643347

    Beta Occupied:

       1Ag   -14.940455     1B1u  -14.940366     2Ag    -1.281493
       2B1u   -1.022535     1B3u   -0.740435     1B2u   -0.740435

    Beta Virtual:

       3Ag    -0.672131     1B3g   -0.549777     1B2g   -0.549777
       3B1u   -0.313023     2B2u    0.117764     2B3u    0.117764
       4B1u    0.120361     4Ag     0.165640     5Ag     0.188689
       2B3g    0.211537     2B2g    0.211537     3B3u    0.542802
       3B2u    0.542802     5B1u    0.548946     6Ag     0.555899
       1B1g    0.555899     1Au     0.784892     6B1u    0.784892
       7Ag     1.048601     3B3g    1.163482     3B2g    1.163482
       7B1u    1.348868     4B3u    2.294411     4B2u    2.294411
       8Ag     2.345452     4B2g    2.461131     4B3g    2.461131
       8B1u    3.024588     5B3u    3.138415     5B2u    3.138415
       9Ag     3.189391    10Ag     3.213702     2B1g    3.213702
       6B2u    3.409158     6B3u    3.409158     5B3g    3.486343
       5B2g    3.486343     9B1u    3.695466     2Au     3.695468
      11Ag     3.920404     3B1g    3.920408     6B2g    3.987856
       6B3g    3.987856    10B1u    4.070294     3Au     4.070297
       7B2u    4.084683     7B3u    4.084683    11B1u    4.169826
      12Ag     4.501938    12B1u    4.542116     7B2g    4.699522
       7B3g    4.699522    13Ag     5.179266    13B1u    6.672937

    Final Occupation by Irrep:
             Ag   B1g   B2g   B3g    Au   B1u   B2u   B3u
    DOCC [     2,    0,    0,    0,    0,    2,    1,    1 ]
    SOCC [     1,    0,    0,    0,    0,    0,    0,    0 ]
    NA   [     3,    0,    0,    0,    0,    2,    1,    1 ]
    NB   [     2,    0,    0,    0,    0,    2,    1,    1 ]

  @DF-UKS Final Energy:  -108.78550471431842

   => Energetics <=

    Nuclear Repulsion Energy =             16.4529073859608665
    One-Electron Energy =                -174.5975671283323152
    Two-Electron Energy =                  59.8365351936609358
    DFT Exchange-Correlation Energy =     -10.4773801656079133
    Empirical Dispersion Energy =           0.0000000000000000
    VV10 Nonlocal Energy =                  0.0000000000000000
    Total Energy =                       -108.7855047143184350

  UHF NO Occupations:
  HONO-2 :    2 Ag 1.9997687
  HONO-1 :    2B1u 1.9955026
  HONO-0 :    3 Ag 1.0000000
  LUNO+0 :    3B1u 0.0044974
  LUNO+1 :    4 Ag 0.0002313
  LUNO+2 :    2B3u 0.0000985
  LUNO+3 :    2B2u 0.0000985

Computation Completed

Properties will be evaluated at   0.000000,   0.000000,   0.000000 [a0]

Properties computed using the B3LYP density matrix

 Multipole Moments:

 ------------------------------------------------------------------------------------
     Multipole            Electronic (a.u.)      Nuclear  (a.u.)        Total (a.u.)
 ------------------------------------------------------------------------------------

 L = 1.  Multiply by 2.5417464519 to convert [e a0] to [Debye]
 Dipole X            :          0.0000000            0.0000000            0.0000000
 Dipole Y            :          0.0000000            0.0000000            0.0000000
 Dipole Z            :          0.0000000           -0.0000000           -0.0000000
 Magnitude           :                                                    0.0000000

 L = 2.  Multiply by 1.3450342976 to convert [e a0^2] to [Debye ang]
 Quadrupole XX       :         -6.9094893            0.0000000           -6.9094893
 Quadrupole XY       :          0.0000000            0.0000000            0.0000000
 Quadrupole XZ       :          0.0000000            0.0000000            0.0000000
 Quadrupole YY       :         -6.9094893            0.0000000           -6.9094893
 Quadrupole YZ       :          0.0000000            0.0000000            0.0000000
 Quadrupole ZZ       :        -33.7218735           31.0438015           -2.6780719
 Traceless XX        :          8.9374614          -10.3479338           -1.4104725
 Traceless YY        :          8.9374614          -10.3479338           -1.4104725
 Traceless ZZ        :        -17.8749228           20.6958677            2.8209449

 ------------------------------------------------------------------------------------
  ==> Computing MBIS Charges <==

  Electron Count from Grid (Expected Number): 13.00000 (13.00000)
  Difference: -0.00000

  MBIS Charges: (a.u.)
   Center  Symbol  Z      Pop.       Charge
      1       N    7    6.500000    0.500000
      2       N    7    6.500000    0.500000

  MBIS Dipoles: [e a0]
   Center  Symbol  Z        X           Y           Z
      1       N    7    0.000000   -0.000000   -0.299234
      2       N    7   -0.000000    0.000000    0.299234

  MBIS Quadrupoles: [e a0^2]
   Center  Symbol  Z      XX        XY        XZ        YY        YZ        ZZ
      1       N    7   -3.4547   -0.0000    0.0000   -3.4547   -0.0000   -3.3389
      2       N    7   -3.4547   -0.0000   -0.0000   -3.4547    0.0000   -3.3389

  MBIS Octupoles: [e a0^3]
   Center  Symbol  Z      XXX       XXY       XXZ       XYY       XYZ       XZZ       YYY       YYZ       YZZ       ZZZ
      1       N    7   -0.0000   -0.0000   -0.4027    0.0000   -0.0000   -0.0000   -0.0000   -0.4027   -0.0000   -1.0604
      2       N    7   -0.0000   -0.0000    0.4027    0.0000    0.0000    0.0000   -0.0000    0.4027   -0.0000    1.0604

  MBIS Radial Moments:
   Center  Symbol  Z      [a0^2]      [a0^3]      [a0^4]
      1       N    7   10.248412   20.554414   49.190409
      2       N    7   10.248412   20.554414   49.190409

  MBIS Valence Widths: [a0]
   Center  Symbol  Z     Width
      1       N    7    0.423068
      2       N    7    0.423068

*** tstop() called on Mac.lan at Sun Aug 10 18:25:55 2025
Module time:
	user time   =       4.67 seconds =       0.08 minutes
	system time =       1.92 seconds =       0.03 minutes
	total time  =          1 seconds =       0.02 minutes
Total time:
	user time   =      18.02 seconds =       0.30 minutes
	system time =       4.21 seconds =       0.07 minutes
	total time  =          2 seconds =       0.03 minutes

    Psi4 stopped on: Sunday, 10 August 2025 06:25PM
    Psi4 wall time for execution: 0:00:02.19

*** Psi4 exiting successfully. Buy a developer a beer!
