                               Psi4 1.9.1 release

  ==> Input File <==

--------------------------------------------------------------------------
molecule {
1 2
H           0.000000           0.000000           0.000000
H           0.000000           0.000000           0.750091
}

set {
basis              cc-pvtz
reference          uks
maxiter            500
DAMPING_PERCENTAGE 1
E_CONVERGENCE      1.0E-8
D_CONVERGENCE      1.0E-8
DIIS_MAX_VECS      400
MBIS_MAXITER       8000
guess              read
}

E, wfn = energy('b3lyp', restart_file='last_wfn', return_wfn=True)
properties('b3lyp','MBIS_CHARGES', wfn=wfn)
wfn.to_file('last_wfn')
--------------------------------------------------------------------------

    Molecular point group: d2h
  Charge       = 1
  Multiplicity = 2
  Basis Set: CC-PVTZ
    Blend: CC-PVTZ
  Basis Set: (CC-PVTZ AUX)
    Blend: CC-PVTZ-JKFIT
  @DF-UKS Final Energy:    -0.57431349937176
    Total Energy =                         -0.5743134993717636
 Dipole X            :          0.0000000            0.0000000            0.0000000
 Dipole Y            :          0.0000000            0.0000000            0.0000000
 Dipole Z            :          0.0000000            0.0000000            0.0000000
 Magnitude           :                                                    0.0000000
    Molecular point group: d2h

    Geometry (in Angstrom), charge = 1, multiplicity = 2:

       Center              X                  Y                   Z               Mass
    ------------   -----------------  -----------------  -----------------  -----------------
         H            0.000000000000     0.000000000000    -0.375045500000     1.007825032230
         H            0.000000000000     0.000000000000     0.375045500000     1.007825032230

  Charge       = 1
  Multiplicity = 2
  Basis Set: CC-PVTZ
    Blend: CC-PVTZ
  Basis Set: (CC-PVTZ AUX)
    Blend: CC-PVTZ-JKFIT

    Orbital Energies [Eh]
    ---------------------

    Alpha Occupied:

       1Ag    -1.054699

    Alpha Virtual:

       1B1u   -0.328679     2Ag    -0.122427     1B2u    0.038891
       1B3u    0.038891     2B1u    0.083189     3Ag     0.490895
       1B2g    0.527168     1B3g    0.527168     3B1u    1.006906
       4B1u    1.495175     4Ag     1.516787     5Ag     2.314331
       1B1g    2.314331     2B2u    2.447639     2B3u    2.447639
       6Ag     2.775771     2B2g    3.066893     2B3g    3.066893
       5B1u    3.246227     1Au     3.246227     3B2u    3.249023
       3B3u    3.249023     6B1u    3.785333     3B2g    4.776266
       3B3g    4.776266     7Ag     4.831182     7B1u    5.824978

    Beta Occupied:

    Beta Virtual:

       1Ag    -0.642921     1B1u   -0.191615     2Ag    -0.034762
       1B3u    0.184559     1B2u    0.184559     2B1u    0.217163
       3Ag     0.608489     1B2g    0.627413     1B3g    0.627413
       3B1u    1.077015     4B1u    1.766380     4Ag     1.809625
       1B1g    2.517137     5Ag     2.517137     2B3u    2.724758
       2B2u    2.724758     6Ag     3.037063     2B3g    3.282680
       2B2g    3.282680     1Au     3.430814     5B1u    3.430814
       3B2u    3.459469     3B3u    3.459469     6B1u    3.998752
       3B2g    5.011249     3B3g    5.011249     7Ag     5.094559
       7B1u    6.203563

    Final Occupation by Irrep:
             Ag   B1g   B2g   B3g    Au   B1u   B2u   B3u
    DOCC [     0,    0,    0,    0,    0,    0,    0,    0 ]
    SOCC [     1,    0,    0,    0,    0,    0,    0,    0 ]
    NA   [     1,    0,    0,    0,    0,    0,    0,    0 ]
    NB   [     0,    0,    0,    0,    0,    0,    0,    0 ]

  @DF-UKS Final Energy:    -0.57431349942490

   => Energetics <=

    Nuclear Repulsion Energy =              0.7054840154994529
    One-Electron Energy =                  -1.2769284814191413
    Two-Electron Energy =                   0.3094849345455962
    DFT Exchange-Correlation Energy =      -0.3123539680508128
    Empirical Dispersion Energy =           0.0000000000000000
    VV10 Nonlocal Energy =                  0.0000000000000000
    Total Energy =                         -0.5743134994249048

  UHF NO Occupations:
  HONO-0 :    1 Ag 1.0000000
  LUNO+0 :    2 Ag 0.0000000
  LUNO+1 :    3 Ag 0.0000000
  LUNO+2 :    3B3u 0.0000000
  LUNO+3 :    2B3u 0.0000000

Computation Completed

Properties will be evaluated at   0.000000,   0.000000,   0.000000 [a0]

Properties computed using the B3LYP density matrix

 Multipole Moments:

 ------------------------------------------------------------------------------------
     Multipole            Electronic (a.u.)      Nuclear  (a.u.)        Total (a.u.)
 ------------------------------------------------------------------------------------

 L = 1.  Multiply by 2.5417464519 to convert [e a0] to [Debye]
 Dipole X            :          0.0000000            0.0000000            0.0000000
 Dipole Y            :          0.0000000            0.0000000            0.0000000
 Dipole Z            :          0.0000000            0.0000000            0.0000000
 Magnitude           :                                                    0.0000000

 L = 2.  Multiply by 1.3450342976 to convert [e a0^2] to [Debye ang]
 Quadrupole XX       :         -0.5183821            0.0000000           -0.5183821
 Quadrupole XY       :          0.0000000            0.0000000            0.0000000
 Quadrupole XZ       :          0.0000000            0.0000000            0.0000000
 Quadrupole YY       :         -0.5183821            0.0000000           -0.5183821
 Quadrupole YZ       :          0.0000000            0.0000000            0.0000000
 Quadrupole ZZ       :         -0.7469362            1.0046057            0.2576695
 Traceless XX        :          0.0761847           -0.3348686           -0.2586839
 Traceless YY        :          0.0761847           -0.3348686           -0.2586839
 Traceless ZZ        :         -0.1523694            0.6697371            0.5173678

 ------------------------------------------------------------------------------------
  ==> Computing MBIS Charges <==

  Electron Count from Grid (Expected Number):  1.00000 ( 1.00000)
  Difference: -0.00000

  MBIS Charges: (a.u.)
   Center  Symbol  Z      Pop.       Charge
      1       H    1    0.500000    0.500000
      2       H    1    0.500000    0.500000

  MBIS Dipoles: [e a0]
   Center  Symbol  Z        X           Y           Z
      1       H    1    0.000000    0.000000   -0.070325
      2       H    1    0.000000   -0.000000    0.070325

  MBIS Quadrupoles: [e a0^2]
   Center  Symbol  Z      XX        XY        XZ        YY        YZ        ZZ
      1       H    1   -0.2592   -0.0000    0.0000   -0.2592   -0.0000   -0.2220
      2       H    1   -0.2592   -0.0000   -0.0000   -0.2592    0.0000   -0.2220

  MBIS Octupoles: [e a0^3]
   Center  Symbol  Z      XXX       XXY       XXZ       XYY       XYZ       XZZ       YYY       YYZ       YZZ       ZZZ
      1       H    1    0.0000    0.0000   -0.0377   -0.0000   -0.0000   -0.0000    0.0000   -0.0377    0.0000   -0.0672
      2       H    1   -0.0000   -0.0000    0.0377    0.0000    0.0000   -0.0000    0.0000    0.0377    0.0000    0.0672

  MBIS Radial Moments:
   Center  Symbol  Z      [a0^2]      [a0^3]      [a0^4]
      1       H    1    0.740383    1.261763    2.557044
      2       H    1    0.740383    1.261763    2.557044

  MBIS Valence Widths: [a0]
   Center  Symbol  Z     Width
      1       H    1    0.356169
      2       H    1    0.356169

*** tstop() called on Mac.lan at Sun Aug 10 18:11:28 2025
Module time:
	user time   =       0.66 seconds =       0.01 minutes
	system time =       1.23 seconds =       0.02 minutes
	total time  =          0 seconds =       0.00 minutes
Total time:
	user time   =       1.89 seconds =       0.03 minutes
	system time =       3.02 seconds =       0.05 minutes
	total time  =          1 seconds =       0.02 minutes

    Psi4 stopped on: Sunday, 10 August 2025 06:11PM
    Psi4 wall time for execution: 0:00:00.72

*** Psi4 exiting successfully. Buy a developer a beer!
