                               Psi4 1.9.1 release

  ==> Input File <==

--------------------------------------------------------------------------
molecule {
1 4
C           0.000000           0.000000           0.000000
C           0.000000           0.000000           1.179916
}

set {
basis              cc-pvtz
reference          uks
maxiter            500
DAMPING_PERCENTAGE 1
E_CONVERGENCE      1.0E-8
D_CONVERGENCE      1.0E-8
DIIS_MAX_VECS      400
MBIS_MAXITER       8000
guess              read
}

E, wfn = energy('b3lyp', restart_file='last_wfn', return_wfn=True)
properties('b3lyp','MBIS_CHARGES', wfn=wfn)
wfn.to_file('last_wfn')
--------------------------------------------------------------------------

    Molecular point group: d2h
  Charge       = 1
  Multiplicity = 4
  Basis Set: CC-PVTZ
    Blend: CC-PVTZ
  Basis Set: (CC-PVTZ AUX)
    Blend: CC-PVTZ-JKFIT
  @DF-UKS Final Energy:   -75.45905091181362
    Total Energy =                        -75.4590509118136197
 Dipole X            :          0.0000000            0.0000000            0.0000000
 Dipole Y            :          0.0000000            0.0000000            0.0000000
 Dipole Z            :          0.0000000            0.0000000            0.0000000
 Magnitude           :                                                    0.0000000
    Molecular point group: d2h

    Geometry (in Angstrom), charge = 1, multiplicity = 4:

       Center              X                  Y                   Z               Mass
    ------------   -----------------  -----------------  -----------------  -----------------
         C            0.000000000000     0.000000000000    -0.589958000000    12.000000000000
         C            0.000000000000     0.000000000000     0.589958000000    12.000000000000

  Charge       = 1
  Multiplicity = 4
  Basis Set: CC-PVTZ
    Blend: CC-PVTZ
  Basis Set: (CC-PVTZ AUX)
    Blend: CC-PVTZ-JKFIT

    Orbital Energies [Eh]
    ---------------------

    Alpha Occupied:

       1Ag   -10.682815     1B1u  -10.679670     2Ag    -1.226926
       2B1u   -0.828264     1B2u   -0.760203     3Ag    -0.751303
       1B3u   -0.720970

    Alpha Virtual:

       1B3g   -0.369543     1B2g   -0.339750     3B1u   -0.043879
       2B2u   -0.012805     2B3u   -0.000904     4Ag     0.014079
       5Ag     0.026254     2B3g    0.109664     2B2g    0.119229
       4B1u    0.208716     1B1g    0.227504     6Ag     0.228181
       5B1u    0.393772     3B2u    0.421662     3B3u    0.445015
       1Au     0.553245     6B1u    0.553592     7Ag     0.817922
       3B3g    0.820992     3B2g    0.834777     7B1u    1.120607
       4B2u    1.518703     4B3u    1.546370     8Ag     1.702280
       4B3g    1.838044     4B2g    1.866642     8B1u    1.956590
       2B1g    2.050405     9Ag     2.051388     5B2u    2.092259
       5B3u    2.092630     6B2u    2.104875     6B3u    2.137255
      10Ag     2.341400     5B3g    2.524216     5B2g    2.524768
      11Ag     2.533723     3B1g    2.533780     6B3g    2.554553
       6B2g    2.573761     9B1u    2.615430     2Au     2.616210
      10B1u    2.966135     7B2u    3.105163     7B3u    3.131738
      12Ag     3.191768     3Au     3.211546    11B1u    3.212014
      12B1u    3.729472     7B3g    4.351420     7B2g    4.382055
      13Ag     4.710346    13B1u   13.536801

    Beta Occupied:

       1Ag   -10.649423     1B1u  -10.646672     2Ag    -1.144901
       1B3u   -0.678754

    Beta Virtual:

       2B1u   -0.574550     1B2u   -0.568003     3Ag    -0.495301
       1B2g   -0.276052     1B3g   -0.239430     3B1u   -0.015289
       2B3u    0.006385     2B2u    0.017228     4Ag     0.041091
       5Ag     0.092652     2B2g    0.133675     2B3g    0.149343
       1B1g    0.262681     6Ag     0.267373     4B1u    0.303270
       5B1u    0.440746     3B3u    0.497481     3B2u    0.513401
       1Au     0.591831     6B1u    0.598240     3B2g    0.870167
       3B3g    0.885069     7Ag     0.894729     7B1u    1.193790
       4B3u    1.570568     4B2u    1.586308     8Ag     1.766219
       4B2g    1.893434     4B3g    1.905741     8B1u    2.051100
       2B1g    2.101809     9Ag     2.108425     5B3u    2.145380
       5B2u    2.148587     6B3u    2.197010     6B2u    2.220493
      10Ag     2.490692     5B2g    2.583342     5B3g    2.587451
       3B1g    2.626122    11Ag     2.638445     6B2g    2.679849
       2Au     2.703134     9B1u    2.714534     6B3g    2.716630
      10B1u    3.100306     7B3u    3.223821     7B2u    3.253844
       3Au     3.279596    12Ag     3.283286    11B1u    3.290365
      12B1u    3.827755     7B2g    4.439292     7B3g    4.464076
      13Ag     4.775789    13B1u   13.592190

    Final Occupation by Irrep:
             Ag   B1g   B2g   B3g    Au   B1u   B2u   B3u
    DOCC [     2,    0,    0,    0,    0,    1,    0,    1 ]
    SOCC [     1,    0,    0,    0,    0,    1,    1,    0 ]
    NA   [     3,    0,    0,    0,    0,    2,    1,    1 ]
    NB   [     2,    0,    0,    0,    0,    1,    0,    1 ]

  @DF-UKS Final Energy:   -75.45905091147162

   => Energetics <=

    Nuclear Repulsion Energy =             16.1455388215093301
    One-Electron Energy =                -128.3807314450255319
    Two-Electron Energy =                  45.1819648762020734
    DFT Exchange-Correlation Energy =      -8.4058231641574945
    Empirical Dispersion Energy =           0.0000000000000000
    VV10 Nonlocal Energy =                  0.0000000000000000
    Total Energy =                        -75.4590509114716212

  UHF NO Occupations:
  HONO-2 :    2B1u 1.0000000
  HONO-1 :    3 Ag 1.0000000
  HONO-0 :    1B2u 1.0000000
  LUNO+0 :    2B3u 0.0006794
  LUNO+1 :    4 Ag 0.0004850
  LUNO+2 :    3B1u 0.0000009
  LUNO+3 :    5 Ag 0.0000005

Computation Completed

Properties will be evaluated at   0.000000,   0.000000,   0.000000 [a0]

Properties computed using the B3LYP density matrix

 Multipole Moments:

 ------------------------------------------------------------------------------------
     Multipole            Electronic (a.u.)      Nuclear  (a.u.)        Total (a.u.)
 ------------------------------------------------------------------------------------

 L = 1.  Multiply by 2.5417464519 to convert [e a0] to [Debye]
 Dipole X            :          0.0000000            0.0000000            0.0000000
 Dipole Y            :          0.0000000            0.0000000            0.0000000
 Dipole Z            :          0.0000000            0.0000000            0.0000000
 Magnitude           :                                                    0.0000000

 L = 2.  Multiply by 1.3450342976 to convert [e a0^2] to [Debye ang]
 Quadrupole XX       :         -6.9342899            0.0000000           -6.9342899
 Quadrupole XY       :          0.0000000            0.0000000            0.0000000
 Quadrupole XZ       :          0.0000000            0.0000000            0.0000000
 Quadrupole YY       :         -5.7647972            0.0000000           -5.7647972
 Quadrupole YZ       :          0.0000000            0.0000000            0.0000000
 Quadrupole ZZ       :        -18.7245186           14.9149283           -3.8095903
 Traceless XX        :          3.5402453           -4.9716428           -1.4313974
 Traceless YY        :          4.7097381           -4.9716428           -0.2619047
 Traceless ZZ        :         -8.2499834            9.9432855            1.6933022

 ------------------------------------------------------------------------------------
  ==> Computing MBIS Charges <==

  Electron Count from Grid (Expected Number): 11.00000 (11.00000)
  Difference: -0.00000

  MBIS Charges: (a.u.)
   Center  Symbol  Z      Pop.       Charge
      1       C    6    5.500000    0.500000
      2       C    6    5.500000    0.500000

  MBIS Dipoles: [e a0]
   Center  Symbol  Z        X           Y           Z
      1       C    6   -0.000000    0.000000   -0.366153
      2       C    6   -0.000000    0.000000    0.366153

  MBIS Quadrupoles: [e a0^2]
   Center  Symbol  Z      XX        XY        XZ        YY        YZ        ZZ
      1       C    6   -3.4671    0.0000    0.0000   -2.8824   -0.0000   -3.3427
      2       C    6   -3.4671    0.0000   -0.0000   -2.8824   -0.0000   -3.3427

  MBIS Octupoles: [e a0^3]
   Center  Symbol  Z      XXX       XXY       XXZ       XYY       XYZ       XZZ       YYY       YYZ       YZZ       ZZZ
      1       C    6   -0.0000    0.0000   -0.4459    0.0000    0.0000   -0.0000    0.0000   -0.2651    0.0000   -0.6461
      2       C    6   -0.0000    0.0000    0.4459    0.0000   -0.0000   -0.0000    0.0000    0.2651    0.0000    0.6461

  MBIS Radial Moments:
   Center  Symbol  Z      [a0^2]      [a0^3]      [a0^4]
      1       C    6    9.692212   20.896945   53.805259
      2       C    6    9.692212   20.896945   53.805259

  MBIS Valence Widths: [a0]
   Center  Symbol  Z     Width
      1       C    6    0.461635
      2       C    6    0.461635

*** tstop() called on Mac.lan at Sun Aug 10 18:15:05 2025
Module time:
	user time   =       3.92 seconds =       0.07 minutes
	system time =       2.15 seconds =       0.04 minutes
	total time  =          1 seconds =       0.02 minutes
Total time:
	user time   =      19.37 seconds =       0.32 minutes
	system time =       5.30 seconds =       0.09 minutes
	total time  =          3 seconds =       0.05 minutes

    Psi4 stopped on: Sunday, 10 August 2025 06:15PM
    Psi4 wall time for execution: 0:00:02.49

*** Psi4 exiting successfully. Buy a developer a beer!
