                               Psi4 1.9.1 release

  ==> Input File <==

--------------------------------------------------------------------------
molecule {
1 3
N           0.000000           0.000000           0.000000
C           0.000000           0.000000           1.191349
}

set {
basis              cc-pvtz
reference          uks
maxiter            500
DAMPING_PERCENTAGE 1
E_CONVERGENCE      1.0E-8
D_CONVERGENCE      1.0E-8
DIIS_MAX_VECS      400
MBIS_MAXITER       8000
guess              read
}

E, wfn = energy('b3lyp', restart_file='last_wfn', return_wfn=True)
properties('b3lyp','MBIS_CHARGES', wfn=wfn)
wfn.to_file('last_wfn')
--------------------------------------------------------------------------

    Molecular point group: c2v
  Charge       = 1
  Multiplicity = 3
  Basis Set: CC-PVTZ
    Blend: CC-PVTZ
  Basis Set: (CC-PVTZ AUX)
    Blend: CC-PVTZ-JKFIT
  @DF-UKS Final Energy:   -92.22788539299943
    Total Energy =                        -92.2278853929994256
 Dipole X            :          0.0000000            0.0000000            0.0000000
 Dipole Y            :          0.0000000            0.0000000            0.0000000
 Dipole Z            :          0.7441654            0.0015969            0.7457623
 Magnitude           :                                                    0.7457623
    Molecular point group: c2v

    Geometry (in Angstrom), charge = 1, multiplicity = 3:

       Center              X                  Y                   Z               Mass
    ------------   -----------------  -----------------  -----------------  -----------------
         N            0.000000000000     0.000000000000    -0.549788382618    14.003074004430
         C            0.000000000000     0.000000000000     0.641560617382    12.000000000000

  Charge       = 1
  Multiplicity = 3
  Basis Set: CC-PVTZ
    Blend: CC-PVTZ
  Basis Set: (CC-PVTZ AUX)
    Blend: CC-PVTZ-JKFIT

    Orbital Energies [Eh]
    ---------------------

    Alpha Occupied:

       1A1   -14.844581     2A1   -10.761526     3A1    -1.409078
       4A1    -0.898567     1B1    -0.835241     5A1    -0.798329
       1B2    -0.791724

    Alpha Virtual:

       2B1    -0.437460     2B2    -0.404188     6A1    -0.102132
       3B1    -0.010779     7A1    -0.002318     3B2    -0.000404
       8A1     0.144161     9A1     0.182049     4B1     0.202978
       4B2     0.220427     1A2     0.263802    10A1     0.264352
       5B1     0.450490     5B2     0.472855    11A1     0.562212
       2A2     0.782970    12A1     0.783663    13A1     0.880760
       6B1     1.139424     6B2     1.162038    14A1     1.385746
       7B1     1.557788     7B2     1.579878    15A1     1.788801
       8B1     2.216057     8B2     2.216211    16A1     2.282065
       3A2     2.283014     9B1     2.335189    17A1     2.362360
       9B2     2.365296    10B1     2.476725    18A1     2.497317
       4A2     2.497517    10B2     2.508725    19A1     2.673490
      11B1     2.972570    11B2     3.000793    20A1     3.407375
      12B1     3.493726    12B2     3.493878    21A1     3.918704
       5A2     3.918828     6A2     4.111363    22A1     4.111638
      13B1     4.344055    13B2     4.380729    23A1     4.494551
      24A1     4.925820    14B1     5.029008    14B2     5.061627
      25A1     5.374362    26A1    11.631522

    Beta Occupied:

       1A1   -14.828038     2A1   -10.735974     3A1    -1.341440
       4A1    -0.809097     1B2    -0.769281

    Beta Virtual:

       1B1    -0.653060     5A1    -0.610061     2B2    -0.367166
       2B1    -0.333142     6A1    -0.083020     3B2     0.008051
       3B1     0.014756     7A1     0.036685     8A1     0.159365
       4B2     0.224402     4B1     0.233859     9A1     0.248997
       1A2     0.296914    10A1     0.299462     5B2     0.507957
       5B1     0.513169    11A1     0.584376     2A2     0.813610
      12A1     0.816341    13A1     0.932383     6B2     1.180414
       6B1     1.185158    14A1     1.422372     7B2     1.601241
       7B1     1.609974    15A1     1.853646     8B2     2.263752
       8B1     2.264992     3A2     2.327583    16A1     2.330622
       9B2     2.401255     9B1     2.418539    17A1     2.418893
      10B2     2.558097     4A2     2.573373    10B1     2.573533
      18A1     2.578799    19A1     2.769242    11B2     3.046578
      11B1     3.055656    20A1     3.463627    12B2     3.534077
      12B1     3.535391     5A2     3.968077    21A1     3.974352
       6A2     4.154084    22A1     4.158343    13B2     4.403698
      13B1     4.418294    23A1     4.545283    24A1     4.965396
      14B2     5.089431    14B1     5.098538    25A1     5.408302
      26A1    11.669232

    Final Occupation by Irrep:
             A1    A2    B1    B2
    DOCC [     4,    0,    0,    1 ]
    SOCC [     1,    0,    1,    0 ]
    NA   [     5,    0,    1,    1 ]
    NB   [     4,    0,    0,    1 ]

  @DF-UKS Final Energy:   -92.22788539129604

   => Energetics <=

    Nuclear Repulsion Energy =             18.6556943835433628
    One-Electron Energy =                -156.0657956307666723
    Two-Electron Energy =                  54.7294121775523621
    DFT Exchange-Correlation Energy =      -9.5471963216250870
    Empirical Dispersion Energy =           0.0000000000000000
    VV10 Nonlocal Energy =                  0.0000000000000000
    Total Energy =                        -92.2278853912960415

  UHF NO Occupations:
  HONO-2 :    1 B2 1.9984588
  HONO-1 :    1 B1 1.0000000
  HONO-0 :    5 A1 1.0000000
  LUNO+0 :    2 B2 0.0015412
  LUNO+1 :    6 A1 0.0007468
  LUNO+2 :    7 A1 0.0002826
  LUNO+3 :    8 A1 0.0000005

Computation Completed

Properties will be evaluated at   0.000000,   0.000000,   0.000000 [a0]

Properties computed using the B3LYP density matrix

 Multipole Moments:

 ------------------------------------------------------------------------------------
     Multipole            Electronic (a.u.)      Nuclear  (a.u.)        Total (a.u.)
 ------------------------------------------------------------------------------------

 L = 1.  Multiply by 2.5417464519 to convert [e a0] to [Debye]
 Dipole X            :          0.0000000            0.0000000            0.0000000
 Dipole Y            :          0.0000000            0.0000000            0.0000000
 Dipole Z            :          0.7441656            0.0015969            0.7457625
 Magnitude           :                                                    0.7457625

 L = 2.  Multiply by 1.3450342976 to convert [e a0^2] to [Debye ang]
 Quadrupole XX       :         -5.6432929            0.0000000           -5.6432929
 Quadrupole XY       :          0.0000000            0.0000000            0.0000000
 Quadrupole XZ       :          0.0000000            0.0000000            0.0000000
 Quadrupole YY       :         -6.6272416            0.0000000           -6.6272416
 Quadrupole YZ       :          0.0000000            0.0000000            0.0000000
 Quadrupole ZZ       :        -21.1469017           16.3750143           -4.7718874
 Traceless XX        :          5.4958525           -5.4583381            0.0375144
 Traceless YY        :          4.5119038           -5.4583381           -0.9464343
 Traceless ZZ        :        -10.0077563           10.9166762            0.9089199

 ------------------------------------------------------------------------------------
  ==> Computing MBIS Charges <==

  Electron Count from Grid (Expected Number): 12.00000 (12.00000)
  Difference:  0.00000

  MBIS Charges: (a.u.)
   Center  Symbol  Z      Pop.       Charge
      1       N    7    6.796564    0.203436
      2       C    6    5.203436    0.796564

  MBIS Dipoles: [e a0]
   Center  Symbol  Z        X           Y           Z
      1       N    7    0.000000    0.000000   -0.142176
      2       C    6   -0.000000    0.000000    0.133566

  MBIS Quadrupoles: [e a0^2]
   Center  Symbol  Z      XX        XY        XZ        YY        YZ        ZZ
      1       N    7   -3.1063   -0.0000   -0.0000   -3.6491   -0.0000   -3.7862
      2       C    6   -2.5370    0.0000   -0.0000   -2.9781    0.0000   -2.9954

  MBIS Octupoles: [e a0^3]
   Center  Symbol  Z      XXX       XXY       XXZ       XYY       XYZ       XZZ       YYY       YYZ       YZZ       ZZZ
      1       N    7    0.0000   -0.0000   -0.0847    0.0000    0.0000    0.0000    0.0000   -0.2386    0.0000   -0.3431
      2       C    6   -0.0000    0.0000    0.0298   -0.0000    0.0000   -0.0000    0.0000    0.1749    0.0000    0.2017

  MBIS Radial Moments:
   Center  Symbol  Z      [a0^2]      [a0^3]      [a0^4]
      1       N    7   10.541634   20.657249   48.274382
      2       C    6    8.510502   17.824477   44.543497

  MBIS Valence Widths: [a0]
   Center  Symbol  Z     Width
      1       N    7    0.416160
      2       C    6    0.450102

*** tstop() called on Mac.lan at Sun Aug 10 18:32:35 2025
Module time:
	user time   =       3.49 seconds =       0.06 minutes
	system time =       2.35 seconds =       0.04 minutes
	total time  =          1 seconds =       0.02 minutes
Total time:
	user time   =      19.58 seconds =       0.33 minutes
	system time =       4.39 seconds =       0.07 minutes
	total time  =          3 seconds =       0.05 minutes

    Psi4 stopped on: Sunday, 10 August 2025 06:32PM
    Psi4 wall time for execution: 0:00:02.35

*** Psi4 exiting successfully. Buy a developer a beer!
