                               Psi4 1.9.1 release

  ==> Input File <==

--------------------------------------------------------------------------
molecule {
1 2
H           0.000000           0.000000           0.000000
H           0.000000           0.000000           1.118317
}

set {
basis              cc-pvtz
reference          uks
maxiter            500
DAMPING_PERCENTAGE 1
E_CONVERGENCE      1.0E-8
D_CONVERGENCE      1.0E-8
DIIS_MAX_VECS      400
MBIS_MAXITER       8000
guess              read
}

E, wfn = energy('b3lyp', restart_file='last_wfn', return_wfn=True)
properties('b3lyp','MBIS_CHARGES', wfn=wfn)
wfn.to_file('last_wfn')
--------------------------------------------------------------------------

    Molecular point group: d2h
  Charge       = 1
  Multiplicity = 2
  Basis Set: CC-PVTZ
    Blend: CC-PVTZ
  Basis Set: (CC-PVTZ AUX)
    Blend: CC-PVTZ-JKFIT
  @DF-UKS Final Energy:    -0.61024957420285
    Total Energy =                         -0.6102495742028509
 Dipole X            :          0.0000000            0.0000000            0.0000000
 Dipole Y            :          0.0000000            0.0000000            0.0000000
 Dipole Z            :          0.0000000            0.0000000            0.0000000
 Magnitude           :                                                    0.0000000
    Molecular point group: d2h

    Geometry (in Angstrom), charge = 1, multiplicity = 2:

       Center              X                  Y                   Z               Mass
    ------------   -----------------  -----------------  -----------------  -----------------
         H            0.000000000000     0.000000000000    -0.559158500000     1.007825032230
         H            0.000000000000     0.000000000000     0.559158500000     1.007825032230

  Charge       = 1
  Multiplicity = 2
  Basis Set: CC-PVTZ
    Blend: CC-PVTZ
  Basis Set: (CC-PVTZ AUX)
    Blend: CC-PVTZ-JKFIT

    Orbital Energies [Eh]
    ---------------------

    Alpha Occupied:

       1Ag    -0.897270

    Alpha Virtual:

       1B1u   -0.439320     2Ag    -0.086897     2B1u    0.031312
       1B3u    0.063412     1B2u    0.063412     3Ag     0.359937
       1B3g    0.453606     1B2g    0.453606     3B1u    0.883727
       4Ag     1.726795     4B1u    1.872410     2B2u    2.342259
       2B3u    2.342259     5Ag     2.439781     6Ag     2.483686
       1B1g    2.483686     5B1u    2.958311     1Au     2.958311
       3B2u    3.078478     3B3u    3.078478     2B3g    3.158540
       2B2g    3.158540     6B1u    3.289875     3B3g    3.840184
       3B2g    3.840184     7Ag     3.934324     7B1u    5.112957

    Beta Occupied:

    Beta Virtual:

       1Ag    -0.552587     1B1u   -0.249583     2Ag     0.004347
       2B1u    0.148467     1B2u    0.203858     1B3u    0.203858
       3Ag     0.498383     1B3g    0.568552     1B2g    0.568552
       3B1u    1.001855     4Ag     2.022224     4B1u    2.162875
       2B2u    2.554639     2B3u    2.554639     5Ag     2.671335
       1B1g    2.671335     6Ag     2.713883     5B1u    3.142767
       1Au     3.142768     3B2u    3.323173     3B3u    3.323173
       2B3g    3.410804     2B2g    3.410804     6B1u    3.509418
       3B3g    4.036764     3B2g    4.036764     7Ag     4.159639
       7B1u    5.361248

    Final Occupation by Irrep:
             Ag   B1g   B2g   B3g    Au   B1u   B2u   B3u
    DOCC [     0,    0,    0,    0,    0,    0,    0,    0 ]
    SOCC [     1,    0,    0,    0,    0,    0,    0,    0 ]
    NA   [     1,    0,    0,    0,    0,    0,    0,    0 ]
    NB   [     0,    0,    0,    0,    0,    0,    0,    0 ]

  @DF-UKS Final Energy:    -0.61024957424506

   => Energetics <=

    Nuclear Repulsion Energy =              0.4731907059179106
    One-Electron Energy =                  -1.0737791134054271
    Two-Electron Energy =                   0.2577097394641677
    DFT Exchange-Correlation Energy =      -0.2673709062217067
    Empirical Dispersion Energy =           0.0000000000000000
    VV10 Nonlocal Energy =                  0.0000000000000000
    Total Energy =                         -0.6102495742450555

  UHF NO Occupations:
  HONO-0 :    1 Ag 1.0000000
  LUNO+0 :    2 Ag 0.0000000
  LUNO+1 :    3 Ag 0.0000000
  LUNO+2 :    4 Ag 0.0000000
  LUNO+3 :    3B3u 0.0000000

Computation Completed

Properties will be evaluated at   0.000000,   0.000000,   0.000000 [a0]

Properties computed using the B3LYP density matrix

 Multipole Moments:

 ------------------------------------------------------------------------------------
     Multipole            Electronic (a.u.)      Nuclear  (a.u.)        Total (a.u.)
 ------------------------------------------------------------------------------------

 L = 1.  Multiply by 2.5417464519 to convert [e a0] to [Debye]
 Dipole X            :          0.0000000            0.0000000            0.0000000
 Dipole Y            :          0.0000000            0.0000000            0.0000000
 Dipole Z            :          0.0000000            0.0000000            0.0000000
 Magnitude           :                                                    0.0000000

 L = 2.  Multiply by 1.3450342976 to convert [e a0^2] to [Debye ang]
 Quadrupole XX       :         -0.6471994            0.0000000           -0.6471994
 Quadrupole XY       :          0.0000000            0.0000000            0.0000000
 Quadrupole XZ       :          0.0000000            0.0000000            0.0000000
 Quadrupole YY       :         -0.6471994            0.0000000           -0.6471994
 Quadrupole YZ       :          0.0000000            0.0000000            0.0000000
 Quadrupole ZZ       :         -1.2603537            2.2330456            0.9726919
 Traceless XX        :          0.2043848           -0.7443485           -0.5399638
 Traceless YY        :          0.2043848           -0.7443485           -0.5399638
 Traceless ZZ        :         -0.4087695            1.4886971            1.0799276

 ------------------------------------------------------------------------------------
  ==> Computing MBIS Charges <==

  Electron Count from Grid (Expected Number):  1.00000 ( 1.00000)
  Difference: -0.00000

  MBIS Charges: (a.u.)
   Center  Symbol  Z      Pop.       Charge
      1       H    1    0.500000    0.500000
      2       H    1    0.500000    0.500000

  MBIS Dipoles: [e a0]
   Center  Symbol  Z        X           Y           Z
      1       H    1    0.000000    0.000000   -0.112468
      2       H    1   -0.000000    0.000000    0.112468

  MBIS Quadrupoles: [e a0^2]
   Center  Symbol  Z      XX        XY        XZ        YY        YZ        ZZ
      1       H    1   -0.3236   -0.0000    0.0000   -0.3236   -0.0000   -0.3096
      2       H    1   -0.3236   -0.0000   -0.0000   -0.3236    0.0000   -0.3096

  MBIS Octupoles: [e a0^3]
   Center  Symbol  Z      XXX       XXY       XXZ       XYY       XYZ       XZZ       YYY       YYZ       YZZ       ZZZ
      1       H    1   -0.0000    0.0000   -0.0775   -0.0000    0.0000   -0.0000    0.0000   -0.0775    0.0000   -0.1582
      2       H    1   -0.0000    0.0000    0.0775   -0.0000   -0.0000   -0.0000    0.0000    0.0775    0.0000    0.1582

  MBIS Radial Moments:
   Center  Symbol  Z      [a0^2]      [a0^3]      [a0^4]
      1       H    1    0.956795    1.832890    4.167564
      2       H    1    0.956795    1.832890    4.167564

  MBIS Valence Widths: [a0]
   Center  Symbol  Z     Width
      1       H    1    0.406686
      2       H    1    0.406686

*** tstop() called on Mac.lan at Sun Aug 10 18:11:08 2025
Module time:
	user time   =       0.55 seconds =       0.01 minutes
	system time =       1.30 seconds =       0.02 minutes
	total time  =          0 seconds =       0.00 minutes
Total time:
	user time   =       2.00 seconds =       0.03 minutes
	system time =       2.62 seconds =       0.04 minutes
	total time  =          1 seconds =       0.02 minutes

    Psi4 stopped on: Sunday, 10 August 2025 06:11PM
    Psi4 wall time for execution: 0:00:00.60

*** Psi4 exiting successfully. Buy a developer a beer!
