                               Psi4 1.9.1 release

  ==> Input File <==

--------------------------------------------------------------------------
molecule {
1 1
C           0.000000           0.000000           0.000000
H           0.000000           0.000000           1.371017
}

set {
basis              cc-pvtz
reference          uks
maxiter            500
DAMPING_PERCENTAGE 1
E_CONVERGENCE      1.0E-8
D_CONVERGENCE      1.0E-8
DIIS_MAX_VECS      400
MBIS_MAXITER       8000
guess              read
}

E, wfn = energy('b3lyp', restart_file='last_wfn', return_wfn=True)
properties('b3lyp','MBIS_CHARGES', wfn=wfn)
wfn.to_file('last_wfn')
--------------------------------------------------------------------------

    Molecular point group: c2v
  Charge       = 1
  Multiplicity = 1
  Basis Set: CC-PVTZ
    Blend: CC-PVTZ
  Basis Set: (CC-PVTZ AUX)
    Blend: CC-PVTZ-JKFIT
  @DF-UKS Final Energy:   -38.07433389374538
    Total Energy =                        -38.0743338937453757
 Dipole X            :          0.0000000            0.0000000            0.0000000
 Dipole Y            :          0.0000000            0.0000000            0.0000000
 Dipole Z            :         -0.4422696            1.1857047            0.7434351
 Magnitude           :                                                    0.7434351
    Molecular point group: c2v

    Geometry (in Angstrom), charge = 1, multiplicity = 1:

       Center              X                  Y                   Z               Mass
    ------------   -----------------  -----------------  -----------------  -----------------
         C            0.000000000000     0.000000000000    -0.106224157289    12.000000000000
         H            0.000000000000     0.000000000000     1.264792842711     1.007825032230

  Charge       = 1
  Multiplicity = 1
  Basis Set: CC-PVTZ
    Blend: CC-PVTZ
  Basis Set: (CC-PVTZ AUX)
    Blend: CC-PVTZ-JKFIT

    Orbital Energies [Eh]
    ---------------------

    Alpha Occupied:

       1A1   -10.805823     2A1    -0.997220     3A1    -0.700677

    Alpha Virtual:

       1B2    -0.536567     1B1    -0.536567     4A1    -0.295563
       5A1    -0.014798     2B2     0.009579     2B1     0.009579
       6A1     0.034144     7A1     0.161770     3B1     0.217461
       3B2     0.217461     8A1     0.326142     1A2     0.326142
       9A1     0.570485     4B1     0.647227     4B2     0.647227
      10A1     0.897670     5B1     1.524339     5B2     1.524339
      11A1     1.731876    12A1     2.043423     6B1     2.171163
       6B2     2.171163     2A2     2.179023    13A1     2.179024
       7B2     2.256586     7B1     2.256586    14A1     2.312642
       3A2     2.493427    15A1     2.493427     8B2     2.609747
       8B1     2.609747    16A1     2.722251     4A2     3.005787
      17A1     3.005792     9B2     3.335682     9B1     3.335682
      18A1     3.375262    10B1     3.800663    10B2     3.800663
      19A1     3.951035    20A1     5.802077

    Beta Occupied:

       1A1   -10.805823     2A1    -0.997220     3A1    -0.700677

    Beta Virtual:

       1B2    -0.536567     1B1    -0.536567     4A1    -0.295563
       5A1    -0.014798     2B2     0.009579     2B1     0.009579
       6A1     0.034144     7A1     0.161770     3B1     0.217461
       3B2     0.217461     8A1     0.326142     1A2     0.326142
       9A1     0.570485     4B1     0.647227     4B2     0.647227
      10A1     0.897670     5B1     1.524339     5B2     1.524339
      11A1     1.731876    12A1     2.043423     6B1     2.171163
       6B2     2.171163     2A2     2.179023    13A1     2.179024
       7B2     2.256586     7B1     2.256586    14A1     2.312642
       3A2     2.493427    15A1     2.493427     8B2     2.609747
       8B1     2.609747    16A1     2.722251     4A2     3.005787
      17A1     3.005792     9B2     3.335682     9B1     3.335682
      18A1     3.375262    10B1     3.800663    10B2     3.800663
      19A1     3.951035    20A1     5.802077

    Final Occupation by Irrep:
             A1    A2    B1    B2
    DOCC [     3,    0,    0,    0 ]
    SOCC [     0,    0,    0,    0 ]
    NA   [     3,    0,    0,    0 ]
    NB   [     3,    0,    0,    0 ]

  @DF-UKS Final Energy:   -38.07433389377981

   => Energetics <=

    Nuclear Repulsion Energy =              2.3158452915025860
    One-Electron Energy =                 -52.7255980908266366
    Two-Electron Energy =                  16.5493953831663561
    DFT Exchange-Correlation Energy =      -4.2139764776221087
    Empirical Dispersion Energy =           0.0000000000000000
    VV10 Nonlocal Energy =                  0.0000000000000000
    Total Energy =                        -38.0743338937798086

  UHF NO Occupations:
  HONO-2 :    1 A1 2.0000000
  HONO-1 :    2 A1 2.0000000
  HONO-0 :    3 A1 2.0000000
  LUNO+0 :    4 A1 0.0000000
  LUNO+1 :    5 A1 0.0000000
  LUNO+2 :    6 A1 0.0000000
  LUNO+3 :    7 A1 0.0000000

Computation Completed

Properties will be evaluated at   0.000000,   0.000000,   0.000000 [a0]

Properties computed using the B3LYP density matrix

 Multipole Moments:

 ------------------------------------------------------------------------------------
     Multipole            Electronic (a.u.)      Nuclear  (a.u.)        Total (a.u.)
 ------------------------------------------------------------------------------------

 L = 1.  Multiply by 2.5417464519 to convert [e a0] to [Debye]
 Dipole X            :          0.0000000            0.0000000            0.0000000
 Dipole Y            :          0.0000000            0.0000000            0.0000000
 Dipole Z            :         -0.4422696            1.1857047            0.7434351
 Magnitude           :                                                    0.7434351

 L = 2.  Multiply by 1.3450342976 to convert [e a0^2] to [Debye ang]
 Quadrupole XX       :         -3.0565981            0.0000000           -3.0565981
 Quadrupole XY       :          0.0000000            0.0000000            0.0000000
 Quadrupole XZ       :          0.0000000            0.0000000            0.0000000
 Quadrupole YY       :         -3.0565981            0.0000000           -3.0565981
 Quadrupole YZ       :          0.0000000            0.0000000            0.0000000
 Quadrupole ZZ       :         -8.5028735            5.9544019           -2.5484715
 Traceless XX        :          1.8154251           -1.9848006           -0.1693755
 Traceless YY        :          1.8154251           -1.9848006           -0.1693755
 Traceless ZZ        :         -3.6308503            3.9696013            0.3387510

 ------------------------------------------------------------------------------------
  ==> Computing MBIS Charges <==

  Electron Count from Grid (Expected Number):  6.00000 ( 6.00000)
  Difference:  0.00000

  MBIS Charges: (a.u.)
   Center  Symbol  Z      Pop.       Charge
      1       C    6    5.225484    0.774516
      2       H    1    0.774516    0.225484

  MBIS Dipoles: [e a0]
   Center  Symbol  Z        X           Y           Z
      1       C    6    0.000000   -0.000000    0.221666
      2       H    1    0.000000   -0.000000    0.138309

  MBIS Quadrupoles: [e a0^2]
   Center  Symbol  Z      XX        XY        XZ        YY        YZ        ZZ
      1       C    6   -2.5881    0.0000    0.0000   -2.5881    0.0000   -3.9598
      2       H    1   -0.4685   -0.0000    0.0000   -0.4685    0.0000   -0.4801

  MBIS Octupoles: [e a0^3]
   Center  Symbol  Z      XXX       XXY       XXZ       XYY       XYZ       XZZ       YYY       YYZ       YZZ       ZZZ
      1       C    6    0.0000   -0.0000    0.2474    0.0000   -0.0000    0.0000    0.0000    0.2474   -0.0000    0.6500
      2       H    1    0.0000    0.0000    0.0370    0.0000   -0.0000    0.0000    0.0000    0.0370    0.0000    0.1516

  MBIS Radial Moments:
   Center  Symbol  Z      [a0^2]      [a0^3]      [a0^4]
      1       C    6    9.136053   19.648277   50.310792
      2       H    1    1.417086    2.646906    5.900217

  MBIS Valence Widths: [a0]
   Center  Symbol  Z     Width
      1       C    6    0.467773
      2       H    1    0.399067

*** tstop() called on Mac.lan at Sun Aug 10 18:27:28 2025
Module time:
	user time   =       2.66 seconds =       0.04 minutes
	system time =       1.89 seconds =       0.03 minutes
	total time  =          0 seconds =       0.00 minutes
Total time:
	user time   =      11.08 seconds =       0.18 minutes
	system time =       4.14 seconds =       0.07 minutes
	total time  =          1 seconds =       0.02 minutes

    Psi4 stopped on: Sunday, 10 August 2025 06:27PM
    Psi4 wall time for execution: 0:00:01.49

*** Psi4 exiting successfully. Buy a developer a beer!
