                               Psi4 1.9.1 release

  ==> Input File <==

--------------------------------------------------------------------------
molecule {
1 3
N           0.000000           0.000000           0.000000
C           0.000000           0.000000           0.965143
}

set {
basis              cc-pvtz
reference          uks
maxiter            500
DAMPING_PERCENTAGE 1
E_CONVERGENCE      1.0E-8
D_CONVERGENCE      1.0E-8
DIIS_MAX_VECS      400
MBIS_MAXITER       8000
guess              read
}

E, wfn = energy('b3lyp', restart_file='last_wfn', return_wfn=True)
properties('b3lyp','MBIS_CHARGES', wfn=wfn)
wfn.to_file('last_wfn')
--------------------------------------------------------------------------

    Molecular point group: c2v
  Charge       = 1
  Multiplicity = 3
  Basis Set: CC-PVTZ
    Blend: CC-PVTZ
  Basis Set: (CC-PVTZ AUX)
    Blend: CC-PVTZ-JKFIT
  @DF-UKS Final Energy:   -92.03804140055442
    Total Energy =                        -92.0380414005544196
 Dipole X            :          0.0000000            0.0000000            0.0000000
 Dipole Y            :          0.0000000            0.0000000            0.0000000
 Dipole Z            :          0.8711083            0.0012937            0.8724020
 Magnitude           :                                                    0.8724020
    Molecular point group: c2v

    Geometry (in Angstrom), charge = 1, multiplicity = 3:

       Center              X                  Y                   Z               Mass
    ------------   -----------------  -----------------  -----------------  -----------------
         N            0.000000000000     0.000000000000    -0.445397955566    14.003074004430
         C            0.000000000000     0.000000000000     0.519745044434    12.000000000000

  Charge       = 1
  Multiplicity = 3
  Basis Set: CC-PVTZ
    Blend: CC-PVTZ
  Basis Set: (CC-PVTZ AUX)
    Blend: CC-PVTZ-JKFIT

    Orbital Energies [Eh]
    ---------------------

    Alpha Occupied:

       1A1   -14.797359     2A1   -10.733286     3A1    -1.520644
       1B1    -0.932510     1B2    -0.882791     4A1    -0.873568
       5A1    -0.802331

    Alpha Virtual:

       2B1    -0.346254     2B2    -0.312830     6A1    -0.097295
       3B1    -0.034588     3B2    -0.022702     7A1    -0.019584
       8A1     0.152439     4B1     0.215811     4B2     0.231943
       1A2     0.242047     9A1     0.242557    10A1     0.419531
       5B1     0.533935     5B2     0.555873    11A1     0.612212
       2A2     0.842652    12A1     0.843644    13A1     1.134710
       6B1     1.214744     6B2     1.236984     7B1     1.457932
       7B2     1.485313    14A1     1.534955    15A1     1.930934
       8B1     2.172555     8B2     2.172845    16A1     2.327808
       3A2     2.331005    17A1     2.366132     9B1     2.419246
       9B2     2.444993     4A2     2.507389    18A1     2.508509
      10B1     2.658582    10B2     2.699284    19A1     2.810693
      11B1     3.104982    11B2     3.136484    12B1     3.573007
      12B2     3.573161    20A1     4.005282     5A2     4.072202
      21A1     4.073055     6A2     4.407842    22A1     4.408540
      13B1     4.501500    13B2     4.534759    23A1     4.940861
      24A1     5.163476    14B1     5.612045    14B2     5.649013
      25A1     6.824991    26A1    15.297322

    Beta Occupied:

       1A1   -14.783803     2A1   -10.702210     3A1    -1.449772
       1B2    -0.855608     4A1    -0.786092

    Beta Virtual:

       1B1    -0.730106     5A1    -0.607498     2B2    -0.272003
       2B1    -0.243696     6A1    -0.080493     3B2    -0.013138
       3B1    -0.004744     7A1     0.023929     8A1     0.168337
       4B2     0.237950     4B1     0.247265     1A2     0.279118
       9A1     0.283000    10A1     0.486935     5B2     0.589437
       5B1     0.596447    11A1     0.629923     2A2     0.870183
      12A1     0.873264    13A1     1.200514     6B2     1.246892
       6B1     1.250519     7B2     1.514427     7B1     1.526236
      14A1     1.584451    15A1     1.992855     8B2     2.228352
       8B1     2.230967     3A2     2.383318    16A1     2.387849
      17A1     2.427721     9B2     2.533099     9B1     2.557184
       4A2     2.600177    18A1     2.611073    10B2     2.718380
      10B1     2.733869    19A1     2.925422    11B2     3.174044
      11B1     3.186638    12B2     3.612309    12B1     3.613718
      20A1     4.048724     5A2     4.117660    21A1     4.124094
       6A2     4.447130    22A1     4.451538    13B2     4.545650
      13B1     4.550833    23A1     4.977866    24A1     5.201518
      14B2     5.682351    14B1     5.697115    25A1     6.863384
      26A1    15.341337

    Final Occupation by Irrep:
             A1    A2    B1    B2
    DOCC [     4,    0,    0,    1 ]
    SOCC [     1,    0,    1,    0 ]
    NA   [     5,    0,    1,    1 ]
    NB   [     4,    0,    0,    1 ]

  @DF-UKS Final Energy:   -92.03804140238638

   => Energetics <=

    Nuclear Repulsion Energy =             23.0281345335768890
    One-Electron Energy =                -163.9740815765836146
    Two-Electron Energy =                  58.6866513941072014
    DFT Exchange-Correlation Energy =      -9.7787457534868594
    Empirical Dispersion Energy =           0.0000000000000000
    VV10 Nonlocal Energy =                  0.0000000000000000
    Total Energy =                        -92.0380414023863835

  UHF NO Occupations:
  HONO-2 :    1 B2 1.9986555
  HONO-1 :    5 A1 1.0000000
  HONO-0 :    1 B1 1.0000000
  LUNO+0 :    2 B2 0.0013445
  LUNO+1 :    6 A1 0.0003335
  LUNO+2 :    7 A1 0.0002411
  LUNO+3 :    8 A1 0.0000007

Computation Completed

Properties will be evaluated at   0.000000,   0.000000,   0.000000 [a0]

Properties computed using the B3LYP density matrix

 Multipole Moments:

 ------------------------------------------------------------------------------------
     Multipole            Electronic (a.u.)      Nuclear  (a.u.)        Total (a.u.)
 ------------------------------------------------------------------------------------

 L = 1.  Multiply by 2.5417464519 to convert [e a0] to [Debye]
 Dipole X            :          0.0000000            0.0000000            0.0000000
 Dipole Y            :          0.0000000            0.0000000            0.0000000
 Dipole Z            :          0.8711083            0.0012937            0.8724020
 Magnitude           :                                                    0.8724020

 L = 2.  Multiply by 1.3450342976 to convert [e a0^2] to [Debye ang]
 Quadrupole XX       :         -5.2175023            0.0000000           -5.2175023
 Quadrupole XY       :          0.0000000            0.0000000            0.0000000
 Quadrupole XZ       :          0.0000000            0.0000000            0.0000000
 Quadrupole YY       :         -6.0668151            0.0000000           -6.0668151
 Quadrupole YZ       :          0.0000000            0.0000000            0.0000000
 Quadrupole ZZ       :        -15.9846592           10.7469940           -5.2376652
 Traceless XX        :          3.8721566           -3.5823313            0.2898252
 Traceless YY        :          3.0228438           -3.5823313           -0.5594876
 Traceless ZZ        :         -6.8950003            7.1646627            0.2696623

 ------------------------------------------------------------------------------------
  ==> Computing MBIS Charges <==

  Electron Count from Grid (Expected Number): 12.00000 (12.00000)
  Difference: -0.00000

  MBIS Charges: (a.u.)
   Center  Symbol  Z      Pop.       Charge
      1       N    7    6.921808    0.078192
      2       C    6    5.078192    0.921808

  MBIS Dipoles: [e a0]
   Center  Symbol  Z        X           Y           Z
      1       N    7   -0.000000    0.000000   -0.058391
      2       C    6    0.000000    0.000000    0.091228

  MBIS Quadrupoles: [e a0^2]
   Center  Symbol  Z      XX        XY        XZ        YY        YZ        ZZ
      1       N    7   -3.0190    0.0000   -0.0000   -3.5036    0.0000   -3.8189
      2       C    6   -2.1985    0.0000    0.0000   -2.5632    0.0000   -2.6409

  MBIS Octupoles: [e a0^3]
   Center  Symbol  Z      XXX       XXY       XXZ       XYY       XYZ       XZZ       YYY       YYZ       YZZ       ZZZ
      1       N    7   -0.0000   -0.0000    0.0337   -0.0000    0.0000   -0.0000   -0.0000   -0.1139    0.0000    0.0988
      2       C    6   -0.0000   -0.0000   -0.0601   -0.0000    0.0000   -0.0000    0.0000    0.0370    0.0000   -0.1024

  MBIS Radial Moments:
   Center  Symbol  Z      [a0^2]      [a0^3]      [a0^4]
      1       N    7   10.341488   19.891403   45.728026
      2       C    6    7.402626   14.791175   35.438466

  MBIS Valence Widths: [a0]
   Center  Symbol  Z     Width
      1       N    7    0.405703
      2       C    6    0.424206

*** tstop() called on Mac.lan at Sun Aug 10 18:33:05 2025
Module time:
	user time   =       3.65 seconds =       0.06 minutes
	system time =       3.06 seconds =       0.05 minutes
	total time  =          1 seconds =       0.02 minutes
Total time:
	user time   =      21.62 seconds =       0.36 minutes
	system time =       5.46 seconds =       0.09 minutes
	total time  =          3 seconds =       0.05 minutes

    Psi4 stopped on: Sunday, 10 August 2025 06:33PM
    Psi4 wall time for execution: 0:00:02.74

*** Psi4 exiting successfully. Buy a developer a beer!
