                               Psi4 1.9.1 release

  ==> Input File <==

--------------------------------------------------------------------------
molecule {
1 2
O           0.000000           0.000000           0.000000
O           0.000000           0.000000           1.110829
}

set {
basis              cc-pvtz
reference          uks
maxiter            500
DAMPING_PERCENTAGE 1
E_CONVERGENCE      1.0E-8
D_CONVERGENCE      1.0E-8
DIIS_MAX_VECS      400
MBIS_MAXITER       8000
guess              read
}

E, wfn = energy('b3lyp', restart_file='last_wfn', return_wfn=True)
properties('b3lyp','MBIS_CHARGES', wfn=wfn)
wfn.to_file('last_wfn')
--------------------------------------------------------------------------

    Molecular point group: d2h
  Charge       = 1
  Multiplicity = 2
  Basis Set: CC-PVTZ
    Blend: CC-PVTZ
  Basis Set: (CC-PVTZ AUX)
    Blend: CC-PVTZ-JKFIT
  @DF-UKS Final Energy:  -149.92238828856952
    Total Energy =                       -149.9223882885695218
 Dipole X            :          0.0000000            0.0000000            0.0000000
 Dipole Y            :          0.0000000            0.0000000            0.0000000
 Dipole Z            :          0.0000000            0.0000000            0.0000000
 Magnitude           :                                                    0.0000000
    Molecular point group: d2h

    Geometry (in Angstrom), charge = 1, multiplicity = 2:

       Center              X                  Y                   Z               Mass
    ------------   -----------------  -----------------  -----------------  -----------------
         O            0.000000000000     0.000000000000    -0.555414500000    15.994914619570
         O            0.000000000000     0.000000000000     0.555414500000    15.994914619570

  Charge       = 1
  Multiplicity = 2
  Basis Set: CC-PVTZ
    Blend: CC-PVTZ
  Basis Set: (CC-PVTZ AUX)
    Blend: CC-PVTZ-JKFIT

    Orbital Energies [Eh]
    ---------------------

    Alpha Occupied:

       1Ag   -19.818650     1B1u  -19.818113     2Ag    -1.871889
       2B1u   -1.252691     1B3u   -1.064516     1B2u   -1.027550
       3Ag    -1.021099     1B2g   -0.736915

    Alpha Virtual:

       1B3g   -0.609557     3B1u   -0.110694     2B3u    0.139018
       2B2u    0.140831     4B1u    0.174977     4Ag     0.205359
       5Ag     0.263517     2B2g    0.286779     2B3g    0.294858
       1B1g    0.760615     6Ag     0.761890     5B1u    0.833099
       3B2u    0.919367     3B3u    0.920325     1Au     1.235523
       6B1u    1.237214     7Ag     1.760218     7B1u    1.766781
       3B2g    1.811839     3B3g    1.814305     4B3u    2.942036
       4B2u    2.959411     8Ag     3.158319     4B2g    3.275031
       4B3g    3.288340     2B1g    4.055824     9Ag     4.057092
       5B2u    4.203947     8B1u    4.206313     5B3u    4.210055
       6B3u    4.365938     6B2u    4.366227    10Ag     4.556524
       5B2g    4.731999     5B3g    4.732302     9B1u    5.184856
       2Au     5.414222    10B1u    5.416709     3B1g    5.517643
      11Ag     5.521793     3Au     5.781417    11B1u    5.784813
       6B2g    5.838261     6B3g    5.847871     7B3u    6.034752
       7B2u    6.039736    12B1u    6.479994    12Ag     6.615247
       7B3g    7.062475     7B2g    7.065843    13Ag     7.126154
      13B1u   14.235003

    Beta Occupied:

       1Ag   -19.802090     1B1u  -19.801459     2Ag    -1.844969
       2B1u   -1.206055     1B2u   -1.013815     3Ag    -0.998392
       1B3u   -0.968725

    Beta Virtual:

       1B3g   -0.591539     1B2g   -0.542568     3B1u   -0.089001
       2B2u    0.144791     2B3u    0.164630     4B1u    0.184067
       4Ag     0.207524     5Ag     0.276038     2B3g    0.299812
       2B2g    0.318561     1B1g    0.782118     6Ag     0.782272
       5B1u    0.848251     3B2u    0.921731     3B3u    0.950979
       1Au     1.268296     6B1u    1.268306     7Ag     1.775552
       7B1u    1.777657     3B3g    1.818538     3B2g    1.844776
       4B2u    2.970926     4B3u    3.010390     8Ag     3.169630
       4B3g    3.300609     4B2g    3.342292     2B1g    4.075887
       9Ag     4.075900     5B2u    4.207342     8B1u    4.225709
       5B3u    4.238991     6B2u    4.402689     6B3u    4.402797
      10Ag     4.572742     5B3g    4.771648     5B2g    4.771667
       9B1u    5.204847     2Au     5.450886    10B1u    5.451095
      11Ag     5.577733     3B1g    5.577777     3Au     5.831833
      11B1u    5.832465     6B3g    5.854474     6B2g    5.892353
       7B2u    6.045880     7B3u    6.085128    12B1u    6.497297
      12Ag     6.646684     7B3g    7.066782     7B2g    7.100463
      13Ag     7.139120    13B1u   14.258404

    Final Occupation by Irrep:
             Ag   B1g   B2g   B3g    Au   B1u   B2u   B3u
    DOCC [     3,    0,    0,    0,    0,    2,    1,    1 ]
    SOCC [     0,    0,    1,    0,    0,    0,    0,    0 ]
    NA   [     3,    0,    1,    0,    0,    2,    1,    1 ]
    NB   [     3,    0,    0,    0,    0,    2,    1,    1 ]

  @DF-UKS Final Energy:  -149.92238828911360

   => Energetics <=

    Nuclear Repulsion Energy =             30.4883483262320212
    One-Electron Energy =                -258.9201746369794819
    Two-Electron Energy =                  91.9477374491406323
    DFT Exchange-Correlation Energy =     -13.4382994275067862
    Empirical Dispersion Energy =           0.0000000000000000
    VV10 Nonlocal Energy =                  0.0000000000000000
    Total Energy =                       -149.9223882891136270

  UHF NO Occupations:
  HONO-2 :    2B1u 1.9997203
  HONO-1 :    1B3u 1.9991637
  HONO-0 :    1B2g 1.0000000
  LUNO+0 :    2B3u 0.0008363
  LUNO+1 :    3B1u 0.0002797
  LUNO+2 :    4 Ag 0.0001432
  LUNO+3 :    2B2u 0.0000301

Computation Completed

Properties will be evaluated at   0.000000,   0.000000,   0.000000 [a0]

Properties computed using the B3LYP density matrix

 Multipole Moments:

 ------------------------------------------------------------------------------------
     Multipole            Electronic (a.u.)      Nuclear  (a.u.)        Total (a.u.)
 ------------------------------------------------------------------------------------

 L = 1.  Multiply by 2.5417464519 to convert [e a0] to [Debye]
 Dipole X            :          0.0000000            0.0000000            0.0000000
 Dipole Y            :          0.0000000            0.0000000            0.0000000
 Dipole Z            :          0.0000000            0.0000000            0.0000000
 Magnitude           :                                                    0.0000000

 L = 2.  Multiply by 1.3450342976 to convert [e a0^2] to [Debye ang]
 Quadrupole XX       :         -6.1438006            0.0000000           -6.1438006
 Quadrupole XY       :          0.0000000            0.0000000            0.0000000
 Quadrupole XZ       :          0.0000000            0.0000000            0.0000000
 Quadrupole YY       :         -5.5969714            0.0000000           -5.5969714
 Quadrupole YZ       :          0.0000000            0.0000000            0.0000000
 Quadrupole ZZ       :        -22.6457569           17.6259342           -5.0198228
 Traceless XX        :          5.3183757           -5.8753114           -0.5569357
 Traceless YY        :          5.8652049           -5.8753114           -0.0101065
 Traceless ZZ        :        -11.1835806           11.7506228            0.5670422

 ------------------------------------------------------------------------------------
  ==> Computing MBIS Charges <==

  Electron Count from Grid (Expected Number): 15.00000 (15.00000)
  Difference:  0.00000

  MBIS Charges: (a.u.)
   Center  Symbol  Z      Pop.       Charge
      1       O    8    7.500001    0.499999
      2       O    8    7.500001    0.499999

  MBIS Dipoles: [e a0]
   Center  Symbol  Z        X           Y           Z
      1       O    8   -0.000000   -0.000000    0.000902
      2       O    8    0.000000    0.000000   -0.000902

  MBIS Quadrupoles: [e a0^2]
   Center  Symbol  Z      XX        XY        XZ        YY        YZ        ZZ
      1       O    8   -3.0719   -0.0000    0.0000   -2.7985   -0.0000   -3.0588
      2       O    8   -3.0719   -0.0000   -0.0000   -2.7985    0.0000   -3.0588

  MBIS Octupoles: [e a0^3]
   Center  Symbol  Z      XXX       XXY       XXZ       XYY       XYZ       XZZ       YYY       YYZ       YZZ       ZZZ
      1       O    8    0.0000   -0.0000    0.0322    0.0000   -0.0000    0.0000   -0.0000   -0.0429   -0.0000   -0.1859
      2       O    8    0.0000   -0.0000   -0.0322    0.0000    0.0000    0.0000    0.0000    0.0429    0.0000    0.1859

  MBIS Radial Moments:
   Center  Symbol  Z      [a0^2]      [a0^3]      [a0^4]
      1       O    8    8.929213   15.270470   31.333379
      2       O    8    8.929213   15.270470   31.333379

  MBIS Valence Widths: [a0]
   Center  Symbol  Z     Width
      1       O    8    0.357587
      2       O    8    0.357587

*** tstop() called on Mac.lan at Sun Aug 10 18:12:28 2025
Module time:
	user time   =      13.77 seconds =       0.23 minutes
	system time =       2.68 seconds =       0.04 minutes
	total time  =          1 seconds =       0.02 minutes
Total time:
	user time   =      23.95 seconds =       0.40 minutes
	system time =       5.01 seconds =       0.08 minutes
	total time  =          2 seconds =       0.03 minutes

    Psi4 stopped on: Sunday, 10 August 2025 06:12PM
    Psi4 wall time for execution: 0:00:02.87

*** Psi4 exiting successfully. Buy a developer a beer!
