                               Psi4 1.9.1 release

  ==> Input File <==

--------------------------------------------------------------------------
molecule {
1 1
O           0.000000           0.000000           0.000000
N           0.000000           0.000000           1.508213
}

set {
basis              cc-pvtz
reference          uks
maxiter            500
DAMPING_PERCENTAGE 1
E_CONVERGENCE      1.0E-8
D_CONVERGENCE      1.0E-8
DIIS_MAX_VECS      400
MBIS_MAXITER       8000
guess              read
}

E, wfn = energy('b3lyp', restart_file='last_wfn', return_wfn=True)
properties('b3lyp','MBIS_CHARGES', wfn=wfn)
wfn.to_file('last_wfn')
--------------------------------------------------------------------------

    Molecular point group: c2v
  Charge       = 1
  Multiplicity = 1
  Basis Set: CC-PVTZ
    Blend: CC-PVTZ
  Basis Set: (CC-PVTZ AUX)
    Blend: CC-PVTZ-JKFIT
  @DF-UKS Final Energy:  -129.35593332265725
    Total Energy =                       -129.3559333226572505
 Dipole X            :          0.0000000            0.0000000            0.0000000
 Dipole Y            :          0.0000000            0.0000000            0.0000000
 Dipole Z            :          0.5281902           -0.0057186            0.5224716
 Magnitude           :                                                    0.5224716
    Molecular point group: c2v

    Geometry (in Angstrom), charge = 1, multiplicity = 1:

       Center              X                  Y                   Z               Mass
    ------------   -----------------  -----------------  -----------------  -----------------
         O            0.000000000000     0.000000000000    -0.704034477717    15.994914619570
         N            0.000000000000     0.000000000000     0.804178522283    14.003074004430

  Charge       = 1
  Multiplicity = 1
  Basis Set: CC-PVTZ
    Blend: CC-PVTZ
  Basis Set: (CC-PVTZ AUX)
    Blend: CC-PVTZ-JKFIT

    Orbital Energies [Eh]
    ---------------------

    Alpha Occupied:

       1A1   -19.748502     2A1   -15.021272     3A1    -1.466811
       4A1    -1.158005     5A1    -0.864547     1B2    -0.819105
       1B1    -0.819105

    Alpha Virtual:

       2B1    -0.613650     2B2    -0.613650     6A1    -0.411587
       7A1     0.096200     3B2     0.111994     3B1     0.111994
       8A1     0.160970     9A1     0.257454     4B2     0.283952
       4B1     0.283952     1A2     0.594543    10A1     0.594543
       5B2     0.615234     5B1     0.615234    11A1     0.753872
      12A1     1.088100     2A2     1.088100    13A1     1.099189
       6B2     1.420189     6B1     1.420189    14A1     1.627075
       7B2     2.332163     7B1     2.332163    15A1     2.583170
       8B2     3.042941     8B1     3.042941    16A1     3.190008
      17A1     3.366550     3A2     3.366551     9B2     3.389502
       9B1     3.389502    10B2     3.510514    10B1     3.510514
      18A1     3.804850    19A1     3.890587     4A2     3.890595
      11B1     4.064225    11B2     4.064225    20A1     4.521166
      12B2     4.651565    12B1     4.651565    21A1     4.697975
      22A1     4.727548     5A2     4.727549    13B2     5.128268
      13B1     5.128268    23A1     5.649432     6A2     5.698607
      24A1     5.698647    14B2     6.051610    14B1     6.051610
      25A1     6.903362    26A1     7.772215

    Beta Occupied:

       1A1   -19.748502     2A1   -15.021272     3A1    -1.466811
       4A1    -1.158005     5A1    -0.864547     1B2    -0.819105
       1B1    -0.819105

    Beta Virtual:

       2B1    -0.613650     2B2    -0.613650     6A1    -0.411587
       7A1     0.096200     3B2     0.111994     3B1     0.111994
       8A1     0.160970     9A1     0.257454     4B2     0.283952
       4B1     0.283952     1A2     0.594543    10A1     0.594543
       5B2     0.615234     5B1     0.615234    11A1     0.753872
      12A1     1.088100     2A2     1.088100    13A1     1.099189
       6B2     1.420189     6B1     1.420189    14A1     1.627075
       7B2     2.332163     7B1     2.332163    15A1     2.583170
       8B2     3.042941     8B1     3.042941    16A1     3.190008
      17A1     3.366550     3A2     3.366551     9B2     3.389502
       9B1     3.389502    10B2     3.510514    10B1     3.510514
      18A1     3.804850    19A1     3.890587     4A2     3.890595
      11B1     4.064225    11B2     4.064225    20A1     4.521166
      12B2     4.651565    12B1     4.651565    21A1     4.697975
      22A1     4.727548     5A2     4.727549    13B2     5.128268
      13B1     5.128268    23A1     5.649432     6A2     5.698607
      24A1     5.698647    14B2     6.051610    14B1     6.051610
      25A1     6.903362    26A1     7.772215

    Final Occupation by Irrep:
             A1    A2    B1    B2
    DOCC [     5,    0,    1,    1 ]
    SOCC [     0,    0,    0,    0 ]
    NA   [     5,    0,    1,    1 ]
    NB   [     5,    0,    1,    1 ]

  @DF-UKS Final Energy:  -129.35593330988698

   => Energetics <=

    Nuclear Repulsion Energy =             19.6483678349941293
    One-Electron Energy =                -209.6875155480443027
    Two-Electron Energy =                  72.5251581009049460
    DFT Exchange-Correlation Energy =     -11.8419436977417440
    Empirical Dispersion Energy =           0.0000000000000000
    VV10 Nonlocal Energy =                  0.0000000000000000
    Total Energy =                       -129.3559333098869786

  UHF NO Occupations:
  HONO-2 :    3 A1 2.0000000
  HONO-1 :    4 A1 2.0000000
  HONO-0 :    5 A1 2.0000000
  LUNO+0 :    6 A1 0.0000000
  LUNO+1 :    2 B2 0.0000000
  LUNO+2 :    7 A1 0.0000000
  LUNO+3 :    8 A1 0.0000000

Computation Completed

Properties will be evaluated at   0.000000,   0.000000,   0.000000 [a0]

Properties computed using the B3LYP density matrix

 Multipole Moments:

 ------------------------------------------------------------------------------------
     Multipole            Electronic (a.u.)      Nuclear  (a.u.)        Total (a.u.)
 ------------------------------------------------------------------------------------

 L = 1.  Multiply by 2.5417464519 to convert [e a0] to [Debye]
 Dipole X            :          0.0000000            0.0000000            0.0000000
 Dipole Y            :          0.0000000            0.0000000            0.0000000
 Dipole Z            :          0.5281905           -0.0057186            0.5224719
 Magnitude           :                                                    0.5224719

 L = 2.  Multiply by 1.3450342976 to convert [e a0^2] to [Debye ang]
 Quadrupole XX       :         -6.3749266            0.0000000           -6.3749266
 Quadrupole XY       :          0.0000000            0.0000000            0.0000000
 Quadrupole XZ       :          0.0000000            0.0000000            0.0000000
 Quadrupole YY       :         -6.3749266            0.0000000           -6.3749266
 Quadrupole YZ       :          0.0000000            0.0000000            0.0000000
 Quadrupole ZZ       :        -34.2435585           30.3263326           -3.9172260
 Traceless XX        :          9.2895440          -10.1087775           -0.8192335
 Traceless YY        :          9.2895440          -10.1087775           -0.8192335
 Traceless ZZ        :        -18.5790880           20.2175550            1.6384671

 ------------------------------------------------------------------------------------
  ==> Computing MBIS Charges <==

  Electron Count from Grid (Expected Number): 14.00000 (14.00000)
  Difference: -0.00000

  MBIS Charges: (a.u.)
   Center  Symbol  Z      Pop.       Charge
      1       O    8    7.701396    0.298604
      2       N    7    6.298603    0.701397

  MBIS Dipoles: [e a0]
   Center  Symbol  Z        X           Y           Z
      1       O    8   -0.000000   -0.000000   -0.196944
      2       N    7    0.000000   -0.000000    0.050792

  MBIS Quadrupoles: [e a0^2]
   Center  Symbol  Z      XX        XY        XZ        YY        YZ        ZZ
      1       O    8   -3.3407    0.0000    0.0000   -3.3407   -0.0000   -3.4178
      2       N    7   -3.0342   -0.0000    0.0000   -3.0342   -0.0000   -3.3262

  MBIS Octupoles: [e a0^3]
   Center  Symbol  Z      XXX       XXY       XXZ       XYY       XYZ       XZZ       YYY       YYZ       YZZ       ZZZ
      1       O    8   -0.0000   -0.0000   -0.2042   -0.0000    0.0000   -0.0000    0.0000   -0.2042   -0.0000   -0.6097
      2       N    7    0.0000   -0.0000    0.1919   -0.0000   -0.0000    0.0000   -0.0000    0.1919   -0.0000    0.4289

  MBIS Radial Moments:
   Center  Symbol  Z      [a0^2]      [a0^3]      [a0^4]
      1       O    8   10.099311   18.184825   39.204452
      2       N    7    9.394545   18.332432   42.713695

  MBIS Valence Widths: [a0]
   Center  Symbol  Z     Width
      1       O    8    0.374529
      2       N    7    0.413723

*** tstop() called on Mac.lan at Sun Aug 10 18:42:52 2025
Module time:
	user time   =       3.69 seconds =       0.06 minutes
	system time =       1.88 seconds =       0.03 minutes
	total time  =          0 seconds =       0.00 minutes
Total time:
	user time   =      15.91 seconds =       0.27 minutes
	system time =       4.00 seconds =       0.07 minutes
	total time  =          2 seconds =       0.03 minutes

    Psi4 stopped on: Sunday, 10 August 2025 06:42PM
    Psi4 wall time for execution: 0:00:01.94

*** Psi4 exiting successfully. Buy a developer a beer!
