                               Psi4 1.9.1 release

  ==> Input File <==

--------------------------------------------------------------------------
molecule {
1 2
O           0.000000           0.000000           0.000000
O           0.000000           0.000000           1.354670
}

set {
basis              cc-pvtz
reference          uks
maxiter            500
DAMPING_PERCENTAGE 1
E_CONVERGENCE      1.0E-8
D_CONVERGENCE      1.0E-8
DIIS_MAX_VECS      400
MBIS_MAXITER       8000
guess              read
}

E, wfn = energy('b3lyp', restart_file='last_wfn', return_wfn=True)
properties('b3lyp','MBIS_CHARGES', wfn=wfn)
wfn.to_file('last_wfn')
--------------------------------------------------------------------------

    Molecular point group: d2h
  Charge       = 1
  Multiplicity = 2
  Basis Set: CC-PVTZ
    Blend: CC-PVTZ
  Basis Set: (CC-PVTZ AUX)
    Blend: CC-PVTZ-JKFIT
  @DF-UKS Final Energy:  -149.84479689549335
    Total Energy =                       -149.8447968954933458
 Dipole X            :          0.0000000            0.0000000            0.0000000
 Dipole Y            :          0.0000000            0.0000000            0.0000000
 Dipole Z            :          0.0000000            0.0000000            0.0000000
 Magnitude           :                                                    0.0000000
    Molecular point group: d2h

    Geometry (in Angstrom), charge = 1, multiplicity = 2:

       Center              X                  Y                   Z               Mass
    ------------   -----------------  -----------------  -----------------  -----------------
         O            0.000000000000     0.000000000000    -0.677335000000    15.994914619570
         O            0.000000000000     0.000000000000     0.677335000000    15.994914619570

  Charge       = 1
  Multiplicity = 2
  Basis Set: CC-PVTZ
    Blend: CC-PVTZ
  Basis Set: (CC-PVTZ AUX)
    Blend: CC-PVTZ-JKFIT

    Orbital Energies [Eh]
    ---------------------

    Alpha Occupied:

       1Ag   -19.824350     1B1u  -19.824203     2Ag    -1.659972
       2B1u   -1.313181     3Ag    -0.971347     1B3u   -0.966596
       1B2u   -0.922442     1B2g   -0.796878

    Alpha Virtual:

       1B3g   -0.674610     3B1u   -0.411647     4B1u    0.155747
       2B3u    0.159672     2B2u    0.165006     4Ag     0.244449
       2B2g    0.284761     2B3g    0.291515     5Ag     0.292550
       3B2u    0.809810     3B3u    0.812435     5B1u    0.819464
       1B1g    0.845083     6Ag     0.846368     1Au     1.153542
       6B1u    1.155105     7Ag     1.475075     3B2g    1.655286
       3B3g    1.656359     7B1u    1.796834     4B3u    2.926094
       4B2u    2.943084     8Ag     2.999176     4B2g    3.153568
       4B3g    3.168966     8B1u    4.023258     5B2u    4.166716
       5B3u    4.170914     2B1g    4.242354     9Ag     4.243685
      10Ag     4.284673     6B3u    4.517376     6B2u    4.517655
       5B2g    4.632539     5B3g    4.632825     2Au     4.953007
       9B1u    4.954690     6B2g    5.497099     6B3g    5.502916
       3B1g    5.531902    11Ag     5.535936     3Au     5.715406
      10B1u    5.718922     7B3u    5.729906     7B2u    5.739282
      11B1u    5.754876    12B1u    6.056915    12Ag     6.180009
       7B2g    6.425222     7B3g    6.426868    13Ag     7.049750
      13B1u    9.194555

    Beta Occupied:

       1Ag   -19.808112     1B1u  -19.807910     2Ag    -1.627529
       2B1u   -1.266046     3Ag    -0.953093     1B2u   -0.908416
       1B3u   -0.864662

    Beta Virtual:

       1B3g   -0.657336     1B2g   -0.609149     3B1u   -0.390020
       4B1u    0.161268     2B2u    0.169702     2B3u    0.190756
       4Ag     0.249074     2B3g    0.296157     5Ag     0.303185
       2B2g    0.314497     3B2u    0.811315     5B1u    0.834915
       3B3u    0.836361     6Ag     0.868386     1B1g    0.868400
       1Au     1.184391     6B1u    1.184578     7Ag     1.491670
       3B3g    1.660238     3B2g    1.686491     7B1u    1.806620
       4B2u    2.953758     4B3u    2.991182     8Ag     3.008798
       4B3g    3.181001     4B2g    3.221371     8B1u    4.040187
       5B2u    4.170789     5B3u    4.201712     9Ag     4.259350
       2B1g    4.265860    10Ag     4.309035     6B2u    4.555364
       6B3u    4.555408     5B3g    4.671124     5B2g    4.671144
       2Au     4.981413     9B1u    4.981514     6B3g    5.509558
       6B2g    5.545167    11Ag     5.591210     3B1g    5.591367
       7B2u    5.746267    10B1u    5.757622     3Au     5.772392
       7B3u    5.785143    11B1u    5.786461    12B1u    6.078102
      12Ag     6.193799     7B3g    6.431213     7B2g    6.464943
      13Ag     7.080409    13B1u    9.215555

    Final Occupation by Irrep:
             Ag   B1g   B2g   B3g    Au   B1u   B2u   B3u
    DOCC [     3,    0,    0,    0,    0,    2,    1,    1 ]
    SOCC [     0,    0,    1,    0,    0,    0,    0,    0 ]
    NA   [     3,    0,    1,    0,    0,    2,    1,    1 ]
    NB   [     3,    0,    0,    0,    0,    2,    1,    1 ]

  @DF-UKS Final Energy:  -149.84479689541334

   => Energetics <=

    Nuclear Repulsion Energy =             25.0004366250673620
    One-Electron Energy =                -248.6318444768544396
    Two-Electron Energy =                  87.0589100628896375
    DFT Exchange-Correlation Energy =     -13.2722991065159146
    Empirical Dispersion Energy =           0.0000000000000000
    VV10 Nonlocal Energy =                  0.0000000000000000
    Total Energy =                       -149.8447968954133671

  UHF NO Occupations:
  HONO-2 :    2B1u 1.9997301
  HONO-1 :    1B3u 1.9987717
  HONO-0 :    1B2g 1.0000000
  LUNO+0 :    2B3u 0.0012283
  LUNO+1 :    3B1u 0.0002699
  LUNO+2 :    4 Ag 0.0001472
  LUNO+3 :    2B2u 0.0000385

Computation Completed

Properties will be evaluated at   0.000000,   0.000000,   0.000000 [a0]

Properties computed using the B3LYP density matrix

 Multipole Moments:

 ------------------------------------------------------------------------------------
     Multipole            Electronic (a.u.)      Nuclear  (a.u.)        Total (a.u.)
 ------------------------------------------------------------------------------------

 L = 1.  Multiply by 2.5417464519 to convert [e a0] to [Debye]
 Dipole X            :          0.0000000            0.0000000            0.0000000
 Dipole Y            :          0.0000000            0.0000000            0.0000000
 Dipole Z            :          0.0000000            0.0000000            0.0000000
 Magnitude           :                                                    0.0000000

 L = 2.  Multiply by 1.3450342976 to convert [e a0^2] to [Debye ang]
 Quadrupole XX       :         -6.4382819            0.0000000           -6.4382819
 Quadrupole XY       :          0.0000000            0.0000000            0.0000000
 Quadrupole XZ       :          0.0000000            0.0000000            0.0000000
 Quadrupole YY       :         -5.8922362            0.0000000           -5.8922362
 Quadrupole YZ       :          0.0000000            0.0000000            0.0000000
 Quadrupole ZZ       :        -30.4025888           26.2134844           -4.1891044
 Traceless XX        :          7.8060870           -8.7378281           -0.9317411
 Traceless YY        :          8.3521328           -8.7378281           -0.3856954
 Traceless ZZ        :        -16.1582198           17.4756562            1.3174365

 ------------------------------------------------------------------------------------
  ==> Computing MBIS Charges <==

  Electron Count from Grid (Expected Number): 15.00000 (15.00000)
  Difference: -0.00000

  MBIS Charges: (a.u.)
   Center  Symbol  Z      Pop.       Charge
      1       O    8    7.500000    0.500000
      2       O    8    7.500000    0.500000

  MBIS Dipoles: [e a0]
   Center  Symbol  Z        X           Y           Z
      1       O    8   -0.000000    0.000000   -0.076962
      2       O    8   -0.000000   -0.000000    0.076962

  MBIS Quadrupoles: [e a0^2]
   Center  Symbol  Z      XX        XY        XZ        YY        YZ        ZZ
      1       O    8   -3.2191   -0.0000   -0.0000   -2.9461   -0.0000   -3.1107
      2       O    8   -3.2191   -0.0000    0.0000   -2.9461   -0.0000   -3.1107

  MBIS Octupoles: [e a0^3]
   Center  Symbol  Z      XXX       XXY       XXZ       XYY       XYZ       XZZ       YYY       YYZ       YZZ       ZZZ
      1       O    8   -0.0000   -0.0000   -0.0712   -0.0000   -0.0000   -0.0000   -0.0000   -0.1293   -0.0000   -0.3877
      2       O    8   -0.0000   -0.0000    0.0712   -0.0000    0.0000   -0.0000    0.0000    0.1293    0.0000    0.3877

  MBIS Radial Moments:
   Center  Symbol  Z      [a0^2]      [a0^3]      [a0^4]
      1       O    8    9.276001   16.243670   34.144344
      2       O    8    9.276001   16.243670   34.144344

  MBIS Valence Widths: [a0]
   Center  Symbol  Z     Width
      1       O    8    0.364715
      2       O    8    0.364715

*** tstop() called on Mac.lan at Sun Aug 10 18:13:49 2025
Module time:
	user time   =       3.50 seconds =       0.06 minutes
	system time =       2.30 seconds =       0.04 minutes
	total time  =          0 seconds =       0.00 minutes
Total time:
	user time   =      14.57 seconds =       0.24 minutes
	system time =       4.46 seconds =       0.07 minutes
	total time  =          2 seconds =       0.03 minutes

    Psi4 stopped on: Sunday, 10 August 2025 06:13PM
    Psi4 wall time for execution: 0:00:01.86

*** Psi4 exiting successfully. Buy a developer a beer!
