                               Psi4 1.9.1 release

  ==> Input File <==

--------------------------------------------------------------------------
molecule {
1 1
C           0.000000           0.000000           0.000000
H           0.000000           0.000000           0.849056
}

set {
basis              cc-pvtz
reference          uks
maxiter            500
DAMPING_PERCENTAGE 1
E_CONVERGENCE      1.0E-8
D_CONVERGENCE      1.0E-8
DIIS_MAX_VECS      400
MBIS_MAXITER       8000
guess              read
}

E, wfn = energy('b3lyp', restart_file='last_wfn', return_wfn=True)
properties('b3lyp','MBIS_CHARGES', wfn=wfn)
wfn.to_file('last_wfn')
--------------------------------------------------------------------------

    Molecular point group: c2v
  Charge       = 1
  Multiplicity = 1
  Basis Set: CC-PVTZ
    Blend: CC-PVTZ
  Basis Set: (CC-PVTZ AUX)
    Blend: CC-PVTZ-JKFIT
  @DF-UKS Final Energy:   -38.01781978908441
    Total Energy =                        -38.0178197890844132
 Dipole X            :          0.0000000            0.0000000            0.0000000
 Dipole Y            :          0.0000000            0.0000000            0.0000000
 Dipole Z            :         -0.0291249            0.7342941            0.7051692
 Magnitude           :                                                    0.7051692
    Molecular point group: c2v

    Geometry (in Angstrom), charge = 1, multiplicity = 1:

       Center              X                  Y                   Z               Mass
    ------------   -----------------  -----------------  -----------------  -----------------
         C            0.000000000000     0.000000000000    -0.065783471752    12.000000000000
         H            0.000000000000     0.000000000000     0.783272528248     1.007825032230

  Charge       = 1
  Multiplicity = 1
  Basis Set: CC-PVTZ
    Blend: CC-PVTZ
  Basis Set: (CC-PVTZ AUX)
    Blend: CC-PVTZ-JKFIT

    Orbital Energies [Eh]
    ---------------------

    Alpha Occupied:

       1A1   -10.790776     2A1    -1.157326     3A1    -0.740837

    Alpha Virtual:

       1B1    -0.560071     1B2    -0.560071     4A1    -0.177999
       2B1     0.004767     2B2     0.004767     5A1     0.007946
       6A1     0.045980     7A1     0.248389     3B1     0.254292
       3B2     0.254292     1A2     0.308973     8A1     0.308973
       9A1     0.673858     4B2     0.757012     4B1     0.757012
      10A1     1.408460    11A1     1.508381     5B1     1.528608
       5B2     1.528608    12A1     1.765051     2A2     2.143140
      13A1     2.143140     6B1     2.237170     6B2     2.237170
       7B1     2.263710     7B2     2.263710     3A2     2.470389
      14A1     2.470389    15A1     2.616165     8B1     2.626999
       8B2     2.626999    16A1     3.318283     4A2     3.478979
      17A1     3.478980     9B1     3.584336     9B2     3.584336
      10B1     4.978843    10B2     4.978843    18A1     4.980281
      19A1     5.213859    20A1    11.392573

    Beta Occupied:

       1A1   -10.790776     2A1    -1.157326     3A1    -0.740837

    Beta Virtual:

       1B1    -0.560071     1B2    -0.560071     4A1    -0.177999
       2B1     0.004767     2B2     0.004767     5A1     0.007946
       6A1     0.045980     7A1     0.248389     3B1     0.254292
       3B2     0.254292     1A2     0.308973     8A1     0.308973
       9A1     0.673858     4B2     0.757012     4B1     0.757012
      10A1     1.408460    11A1     1.508381     5B1     1.528608
       5B2     1.528608    12A1     1.765051     2A2     2.143140
      13A1     2.143140     6B1     2.237170     6B2     2.237170
       7B1     2.263710     7B2     2.263710     3A2     2.470389
      14A1     2.470389    15A1     2.616165     8B1     2.626999
       8B2     2.626999    16A1     3.318283     4A2     3.478979
      17A1     3.478980     9B1     3.584336     9B2     3.584336
      10B1     4.978843    10B2     4.978843    18A1     4.980281
      19A1     5.213859    20A1    11.392573

    Final Occupation by Irrep:
             A1    A2    B1    B2
    DOCC [     3,    0,    0,    0 ]
    SOCC [     0,    0,    0,    0 ]
    NA   [     3,    0,    0,    0 ]
    NB   [     3,    0,    0,    0 ]

  @DF-UKS Final Energy:   -38.01781978903121

   => Energetics <=

    Nuclear Repulsion Energy =              3.7395216146167041
    One-Electron Energy =                 -54.9833010095344434
    Two-Electron Energy =                  17.5896683934968294
    DFT Exchange-Correlation Energy =      -4.3637087876103031
    Empirical Dispersion Energy =           0.0000000000000000
    VV10 Nonlocal Energy =                  0.0000000000000000
    Total Energy =                        -38.0178197890312077

  UHF NO Occupations:
  HONO-2 :    1 A1 2.0000000
  HONO-1 :    2 A1 2.0000000
  HONO-0 :    3 A1 2.0000000
  LUNO+0 :    4 A1 0.0000000
  LUNO+1 :    5 A1 0.0000000
  LUNO+2 :    6 A1 0.0000000
  LUNO+3 :    7 A1 0.0000000

Computation Completed

Properties will be evaluated at   0.000000,   0.000000,   0.000000 [a0]

Properties computed using the B3LYP density matrix

 Multipole Moments:

 ------------------------------------------------------------------------------------
     Multipole            Electronic (a.u.)      Nuclear  (a.u.)        Total (a.u.)
 ------------------------------------------------------------------------------------

 L = 1.  Multiply by 2.5417464519 to convert [e a0] to [Debye]
 Dipole X            :          0.0000000            0.0000000            0.0000000
 Dipole Y            :          0.0000000            0.0000000            0.0000000
 Dipole Z            :         -0.0291249            0.7342941            0.7051692
 Magnitude           :                                                    0.7051692

 L = 2.  Multiply by 1.3450342976 to convert [e a0^2] to [Debye ang]
 Quadrupole XX       :         -2.7220409            0.0000000           -2.7220409
 Quadrupole XY       :          0.0000000            0.0000000            0.0000000
 Quadrupole XZ       :          0.0000000            0.0000000            0.0000000
 Quadrupole YY       :         -2.7220409            0.0000000           -2.7220409
 Quadrupole YZ       :          0.0000000            0.0000000            0.0000000
 Quadrupole ZZ       :         -5.7924326            2.2836268           -3.5088057
 Traceless XX        :          1.0234639           -0.7612089            0.2622549
 Traceless YY        :          1.0234639           -0.7612089            0.2622549
 Traceless ZZ        :         -2.0469278            1.5224179           -0.5245099

 ------------------------------------------------------------------------------------
  ==> Computing MBIS Charges <==

  Electron Count from Grid (Expected Number):  6.00000 ( 6.00000)
  Difference: -0.00000

  MBIS Charges: (a.u.)
   Center  Symbol  Z      Pop.       Charge
      1       C    6    5.148755    0.851245
      2       H    1    0.851245    0.148755

  MBIS Dipoles: [e a0]
   Center  Symbol  Z        X           Y           Z
      1       C    6   -0.000000    0.000000    0.535711
      2       H    1   -0.000000    0.000000    0.055096

  MBIS Quadrupoles: [e a0^2]
   Center  Symbol  Z      XX        XY        XZ        YY        YZ        ZZ
      1       C    6   -2.4393    0.0000   -0.0000   -2.4393    0.0000   -3.5905
      2       H    1   -0.2827   -0.0000    0.0000   -0.2827    0.0000   -0.2873

  MBIS Octupoles: [e a0^3]
   Center  Symbol  Z      XXX       XXY       XXZ       XYY       XYZ       XZZ       YYY       YYZ       YZZ       ZZZ
      1       C    6   -0.0000    0.0000    0.6241   -0.0000   -0.0000    0.0000    0.0000    0.6241   -0.0000    1.5789
      2       H    1   -0.0000   -0.0000    0.0024    0.0000    0.0000   -0.0000    0.0000    0.0024   -0.0000    0.0140

  MBIS Radial Moments:
   Center  Symbol  Z      [a0^2]      [a0^3]      [a0^4]
      1       C    6    8.469138   17.853142   44.876687
      2       H    1    0.852724    1.183713    1.964796

  MBIS Valence Widths: [a0]
   Center  Symbol  Z     Width
      1       C    6    0.453080
      2       H    1    0.295160

*** tstop() called on Mac.lan at Sun Aug 10 18:26:52 2025
Module time:
	user time   =       2.90 seconds =       0.05 minutes
	system time =       1.82 seconds =       0.03 minutes
	total time  =          1 seconds =       0.02 minutes
Total time:
	user time   =      11.02 seconds =       0.18 minutes
	system time =       4.15 seconds =       0.07 minutes
	total time  =          2 seconds =       0.03 minutes

    Psi4 stopped on: Sunday, 10 August 2025 06:26PM
    Psi4 wall time for execution: 0:00:01.48

*** Psi4 exiting successfully. Buy a developer a beer!
