                               Psi4 1.9.1 release

  ==> Input File <==

--------------------------------------------------------------------------
molecule {
1 1
O           0.000000           0.000000           0.000000
N           0.000000           0.000000           1.585889
}

set {
basis              cc-pvtz
reference          uks
maxiter            500
DAMPING_PERCENTAGE 1
E_CONVERGENCE      1.0E-8
D_CONVERGENCE      1.0E-8
DIIS_MAX_VECS      400
MBIS_MAXITER       8000
guess              read
}

E, wfn = energy('b3lyp', restart_file='last_wfn', return_wfn=True)
properties('b3lyp','MBIS_CHARGES', wfn=wfn)
wfn.to_file('last_wfn')
--------------------------------------------------------------------------

    Molecular point group: c2v
  Charge       = 1
  Multiplicity = 1
  Basis Set: CC-PVTZ
    Blend: CC-PVTZ
  Basis Set: (CC-PVTZ AUX)
    Blend: CC-PVTZ-JKFIT
  @DF-UKS Final Energy:  -129.31209369102879
    Total Energy =                       -129.3120936910287924
 Dipole X            :          0.0000000            0.0000000            0.0000000
 Dipole Y            :          0.0000000            0.0000000            0.0000000
 Dipole Z            :          0.5794793           -0.0060131            0.5734661
 Magnitude           :                                                    0.5734661
    Molecular point group: c2v

    Geometry (in Angstrom), charge = 1, multiplicity = 1:

       Center              X                  Y                   Z               Mass
    ------------   -----------------  -----------------  -----------------  -----------------
         O            0.000000000000     0.000000000000    -0.740293667958    15.994914619570
         N            0.000000000000     0.000000000000     0.845595332042    14.003074004430

  Charge       = 1
  Multiplicity = 1
  Basis Set: CC-PVTZ
    Blend: CC-PVTZ
  Basis Set: (CC-PVTZ AUX)
    Blend: CC-PVTZ-JKFIT

    Orbital Energies [Eh]
    ---------------------

    Alpha Occupied:

       1A1   -19.741792     2A1   -15.022619     3A1    -1.434386
       4A1    -1.165676     5A1    -0.851387     1B1    -0.800937
       1B2    -0.800937

    Alpha Virtual:

       2B2    -0.622088     2B1    -0.622088     6A1    -0.454718
       7A1     0.103236     3B2     0.112721     3B1     0.112721
       8A1     0.169678     9A1     0.266691     4B1     0.284094
       4B2     0.284094     1A2     0.603473    10A1     0.603473
       5B2     0.607435     5B1     0.607435    11A1     0.725488
      12A1     1.044647    13A1     1.086340     2A2     1.086341
       6B1     1.377778     6B2     1.377778    14A1     1.619633
       7B2     2.325997     7B1     2.325997    15A1     2.568412
       8B1     3.065014     8B2     3.065014    16A1     3.118742
      17A1     3.378974     3A2     3.378974     9B2     3.392067
       9B1     3.392067    10B2     3.484839    10B1     3.484839
      18A1     3.770430    19A1     3.889543     4A2     3.889547
      11B2     4.024639    11B1     4.024639    20A1     4.515440
      12B1     4.660381    12B2     4.660381    21A1     4.702069
       5A2     4.702071    22A1     4.725630    13B1     5.012841
      13B2     5.012841    23A1     5.490632     6A2     5.698354
      24A1     5.698396    14B1     5.990841    14B2     5.990841
      25A1     6.748104    26A1     7.511719

    Beta Occupied:

       1A1   -19.741792     2A1   -15.022619     3A1    -1.434386
       4A1    -1.165676     5A1    -0.851387     1B2    -0.800937
       1B1    -0.800937

    Beta Virtual:

       2B1    -0.622088     2B2    -0.622088     6A1    -0.454718
       7A1     0.103236     3B1     0.112721     3B2     0.112721
       8A1     0.169678     9A1     0.266691     4B2     0.284094
       4B1     0.284094     1A2     0.603473    10A1     0.603473
       5B1     0.607435     5B2     0.607435    11A1     0.725488
      12A1     1.044647    13A1     1.086340     2A2     1.086341
       6B2     1.377778     6B1     1.377778    14A1     1.619633
       7B1     2.325997     7B2     2.325997    15A1     2.568412
       8B2     3.065014     8B1     3.065014    16A1     3.118742
      17A1     3.378974     3A2     3.378974     9B2     3.392067
       9B1     3.392067    10B1     3.484839    10B2     3.484839
      18A1     3.770430    19A1     3.889543     4A2     3.889547
      11B1     4.024639    11B2     4.024639    20A1     4.515440
      12B1     4.660381    12B2     4.660381    21A1     4.702069
       5A2     4.702071    22A1     4.725630    13B2     5.012841
      13B1     5.012841    23A1     5.490632     6A2     5.698354
      24A1     5.698396    14B2     5.990841    14B1     5.990841
      25A1     6.748104    26A1     7.511719

    Final Occupation by Irrep:
             A1    A2    B1    B2
    DOCC [     5,    0,    1,    1 ]
    SOCC [     0,    0,    0,    0 ]
    NA   [     5,    0,    1,    1 ]
    NB   [     5,    0,    1,    1 ]

  @DF-UKS Final Energy:  -129.31209369082291

   => Energetics <=

    Nuclear Repulsion Energy =             18.6860012255082211
    One-Electron Energy =                -207.8489801729642181
    Two-Electron Energy =                  71.6703552776208994
    DFT Exchange-Correlation Energy =     -11.8194700209878203
    Empirical Dispersion Energy =           0.0000000000000000
    VV10 Nonlocal Energy =                  0.0000000000000000
    Total Energy =                       -129.3120936908229055

  UHF NO Occupations:
  HONO-2 :    4 A1 2.0000000
  HONO-1 :    5 A1 2.0000000
  HONO-0 :    1 B2 2.0000000
  LUNO+0 :    6 A1 0.0000000
  LUNO+1 :    2 B1 0.0000000
  LUNO+2 :    7 A1 0.0000000
  LUNO+3 :    2 B2 0.0000000

Computation Completed

Properties will be evaluated at   0.000000,   0.000000,   0.000000 [a0]

Properties computed using the B3LYP density matrix

 Multipole Moments:

 ------------------------------------------------------------------------------------
     Multipole            Electronic (a.u.)      Nuclear  (a.u.)        Total (a.u.)
 ------------------------------------------------------------------------------------

 L = 1.  Multiply by 2.5417464519 to convert [e a0] to [Debye]
 Dipole X            :          0.0000000            0.0000000            0.0000000
 Dipole Y            :          0.0000000            0.0000000            0.0000000
 Dipole Z            :          0.5794791           -0.0060131            0.5734660
 Magnitude           :                                                    0.5734660

 L = 2.  Multiply by 1.3450342976 to convert [e a0^2] to [Debye ang]
 Quadrupole XX       :         -6.4308890            0.0000000           -6.4308890
 Quadrupole XY       :          0.0000000            0.0000000            0.0000000
 Quadrupole XZ       :          0.0000000            0.0000000            0.0000000
 Quadrupole YY       :         -6.4308890            0.0000000           -6.4308890
 Quadrupole YZ       :          0.0000000            0.0000000            0.0000000
 Quadrupole ZZ       :        -37.1198328           33.5305060           -3.5893268
 Traceless XX        :         10.2296479          -11.1768353           -0.9471874
 Traceless YY        :         10.2296479          -11.1768353           -0.9471874
 Traceless ZZ        :        -20.4592959           22.3536707            1.8943748

 ------------------------------------------------------------------------------------
  ==> Computing MBIS Charges <==

  Electron Count from Grid (Expected Number): 14.00000 (14.00000)
  Difference: -0.00000

  MBIS Charges: (a.u.)
   Center  Symbol  Z      Pop.       Charge
      1       O    8    7.703784    0.296216
      2       N    7    6.296215    0.703785

  MBIS Dipoles: [e a0]
   Center  Symbol  Z        X           Y           Z
      1       O    8   -0.000000    0.000000   -0.208159
      2       N    7    0.000000   -0.000000    0.071407

  MBIS Quadrupoles: [e a0^2]
   Center  Symbol  Z      XX        XY        XZ        YY        YZ        ZZ
      1       O    8   -3.3774   -0.0000    0.0000   -3.3774   -0.0000   -3.4370
      2       N    7   -3.0535   -0.0000    0.0000   -3.0535   -0.0000   -3.3397

  MBIS Octupoles: [e a0^3]
   Center  Symbol  Z      XXX       XXY       XXZ       XYY       XYZ       XZZ       YYY       YYZ       YZZ       ZZZ
      1       O    8   -0.0000   -0.0000   -0.2213   -0.0000   -0.0000   -0.0000   -0.0000   -0.2213   -0.0000   -0.6636
      2       N    7    0.0000   -0.0000    0.2143   -0.0000    0.0000    0.0000   -0.0000    0.2143   -0.0000    0.4872

  MBIS Radial Moments:
   Center  Symbol  Z      [a0^2]      [a0^3]      [a0^4]
      1       O    8   10.191814   18.470224   40.084065
      2       N    7    9.446685   18.519557   43.370753

  MBIS Valence Widths: [a0]
   Center  Symbol  Z     Width
      1       O    8    0.376077
      2       N    7    0.414952

*** tstop() called on Mac.lan at Sun Aug 10 18:43:02 2025
Module time:
	user time   =       3.78 seconds =       0.06 minutes
	system time =       1.95 seconds =       0.03 minutes
	total time  =          0 seconds =       0.00 minutes
Total time:
	user time   =      17.45 seconds =       0.29 minutes
	system time =       3.98 seconds =       0.07 minutes
	total time  =          2 seconds =       0.03 minutes

    Psi4 stopped on: Sunday, 10 August 2025 06:43PM
    Psi4 wall time for execution: 0:00:02.08

*** Psi4 exiting successfully. Buy a developer a beer!
