                               Psi4 1.9.1 release

  ==> Input File <==

--------------------------------------------------------------------------
molecule {
1 2
O           0.000000           0.000000           0.000000
C           0.000000           0.000000           1.236847
}

set {
basis              cc-pvtz
reference          uks
maxiter            500
DAMPING_PERCENTAGE 1
E_CONVERGENCE      1.0E-8
D_CONVERGENCE      1.0E-8
DIIS_MAX_VECS      400
MBIS_MAXITER       8000
guess              read
}

E, wfn = energy('b3lyp', restart_file='last_wfn', return_wfn=True)
properties('b3lyp','MBIS_CHARGES', wfn=wfn)
wfn.to_file('last_wfn')
--------------------------------------------------------------------------

    Molecular point group: c2v
  Charge       = 1
  Multiplicity = 2
  Basis Set: CC-PVTZ
    Blend: CC-PVTZ
  Basis Set: (CC-PVTZ AUX)
    Blend: CC-PVTZ-JKFIT
  @DF-UKS Final Energy:  -112.80838963186412
    Total Energy =                       -112.8083896318641166
 Dipole X            :          0.0000000            0.0000000            0.0000000
 Dipole Y            :          0.0000000            0.0000000            0.0000000
 Dipole Z            :          1.1375555           -0.0025475            1.1350081
 Magnitude           :                                                    1.1350081
    Molecular point group: c2v

    Geometry (in Angstrom), charge = 1, multiplicity = 2:

       Center              X                  Y                   Z               Mass
    ------------   -----------------  -----------------  -----------------  -----------------
         O            0.000000000000     0.000000000000    -0.530173576226    15.994914619570
         C            0.000000000000     0.000000000000     0.706673423774    12.000000000000

  Charge       = 1
  Multiplicity = 2
  Basis Set: CC-PVTZ
    Blend: CC-PVTZ
  Basis Set: (CC-PVTZ AUX)
    Blend: CC-PVTZ-JKFIT

    Orbital Energies [Eh]
    ---------------------

    Alpha Occupied:

       1A1   -19.665454     2A1   -10.825933     3A1    -1.505821
       4A1    -0.985186     5A1    -0.856356     1B2    -0.823179
       1B1    -0.823179

    Alpha Virtual:

       2B1    -0.475067     2B2    -0.475067     6A1    -0.141628
       7A1    -0.017676     3B1    -0.004623     3B2    -0.004623
       8A1     0.076022     9A1     0.248990    10A1     0.284949
       1A2     0.284949     4B1     0.326017     4B2     0.326017
       5B2     0.451610     5B1     0.451610    11A1     0.745515
      12A1     0.874010    13A1     1.137632     2A2     1.137632
       6B2     1.406488     6B1     1.406488    14A1     1.579083
       7B1     1.619971     7B2     1.619971    15A1     1.865869
       8B2     2.224027     8B1     2.224027    16A1     2.348411
       3A2     2.348411     4A2     2.464037    17A1     2.464037
       9B2     2.471947     9B1     2.471947    18A1     2.676472
      10B2     2.750755    10B1     2.750755    19A1     2.794925
      11B1     3.551045    11B2     3.551045    20A1     3.680562
      12B1     4.708822    12B2     4.708822    21A1     4.964975
       5A2     4.964976    22A1     5.402326    13B2     5.535981
      13B1     5.535981    23A1     5.825960     6A2     5.825982
      24A1     6.060283    14B2     6.312302    14B1     6.312302
      25A1     6.580078    26A1    10.242322

    Beta Occupied:

       1A1   -19.665212     2A1   -10.802416     3A1    -1.496394
       4A1    -0.933592     1B1    -0.822093     1B2    -0.822093

    Beta Virtual:

       5A1    -0.656689     2B1    -0.435682     2B2    -0.435682
       6A1    -0.118445     3B1     0.005996     3B2     0.005996
       7A1     0.017371     8A1     0.118862     9A1     0.258284
       1A2     0.305428    10A1     0.305428     4B1     0.323471
       4B2     0.323471     5B2     0.487073     5B1     0.487073
      11A1     0.778907    12A1     0.883345    13A1     1.135019
       2A2     1.135019     6B2     1.430557     6B1     1.430557
      14A1     1.630317     7B1     1.636269     7B2     1.636269
      15A1     1.911489     8B2     2.258769     8B1     2.258769
       3A2     2.376093    16A1     2.376093    17A1     2.527815
       4A2     2.527815     9B2     2.548281     9B1     2.548281
      18A1     2.767278    10B2     2.793176    10B1     2.793176
      19A1     2.843991    11B1     3.557505    11B2     3.557505
      20A1     3.712126    12B1     4.695896    12B2     4.695896
      21A1     4.967019     5A2     4.967020    22A1     5.421516
      13B2     5.551798    13B1     5.551798    23A1     5.809975
       6A2     5.809998    24A1     6.081691    14B2     6.324228
      14B1     6.324228    25A1     6.597781    26A1    10.257941

    Final Occupation by Irrep:
             A1    A2    B1    B2
    DOCC [     4,    0,    1,    1 ]
    SOCC [     1,    0,    0,    0 ]
    NA   [     5,    0,    1,    1 ]
    NB   [     4,    0,    1,    1 ]

  @DF-UKS Final Energy:  -112.80838962628206

   => Energetics <=

    Nuclear Repulsion Energy =             20.5364981377324796
    One-Electron Energy =                -188.8573149700574163
    Two-Electron Energy =                  66.3581788078730881
    DFT Exchange-Correlation Energy =     -10.8457516018302140
    Empirical Dispersion Energy =           0.0000000000000000
    VV10 Nonlocal Energy =                  0.0000000000000000
    Total Energy =                       -112.8083896262820645

  UHF NO Occupations:
  HONO-2 :    1 B1 1.9945663
  HONO-1 :    1 B2 1.9945663
  HONO-0 :    5 A1 1.0000000
  LUNO+0 :    2 B2 0.0054337
  LUNO+1 :    2 B1 0.0054337
  LUNO+2 :    6 A1 0.0007547
  LUNO+3 :    7 A1 0.0000374

Computation Completed

Properties will be evaluated at   0.000000,   0.000000,   0.000000 [a0]

Properties computed using the B3LYP density matrix

 Multipole Moments:

 ------------------------------------------------------------------------------------
     Multipole            Electronic (a.u.)      Nuclear  (a.u.)        Total (a.u.)
 ------------------------------------------------------------------------------------

 L = 1.  Multiply by 2.5417464519 to convert [e a0] to [Debye]
 Dipole X            :          0.0000000            0.0000000            0.0000000
 Dipole Y            :          0.0000000            0.0000000            0.0000000
 Dipole Z            :          1.1375555           -0.0025475            1.1350080
 Magnitude           :                                                    1.1350080

 L = 2.  Multiply by 1.3450342976 to convert [e a0^2] to [Debye ang]
 Quadrupole XX       :         -6.1526230            0.0000000           -6.1526230
 Quadrupole XY       :          0.0000000            0.0000000            0.0000000
 Quadrupole XZ       :          0.0000000            0.0000000            0.0000000
 Quadrupole YY       :         -6.1526230            0.0000000           -6.1526230
 Quadrupole YZ       :          0.0000000            0.0000000            0.0000000
 Quadrupole ZZ       :        -22.3646778           18.7302212           -3.6344565
 Traceless XX        :          5.4040183           -6.2434071           -0.8393888
 Traceless YY        :          5.4040183           -6.2434071           -0.8393888
 Traceless ZZ        :        -10.8080365           12.4868142            1.6787776

 ------------------------------------------------------------------------------------
  ==> Computing MBIS Charges <==

  Electron Count from Grid (Expected Number): 13.00000 (13.00000)
  Difference:  0.00000

  MBIS Charges: (a.u.)
   Center  Symbol  Z      Pop.       Charge
      1       O    8    7.982238    0.017762
      2       C    6    5.017763    0.982237

  MBIS Dipoles: [e a0]
   Center  Symbol  Z        X           Y           Z
      1       O    8   -0.000000    0.000000   -0.309256
      2       C    6   -0.000000   -0.000000    0.150362

  MBIS Quadrupoles: [e a0^2]
   Center  Symbol  Z      XX        XY        XZ        YY        YZ        ZZ
      1       O    8   -3.5120   -0.0000    0.0000   -3.5120   -0.0000   -3.6179
      2       C    6   -2.6406   -0.0000    0.0000   -2.6406    0.0000   -2.8074

  MBIS Octupoles: [e a0^3]
   Center  Symbol  Z      XXX       XXY       XXZ       XYY       XYZ       XZZ       YYY       YYZ       YZZ       ZZZ
      1       O    8    0.0000   -0.0000   -0.2861    0.0000   -0.0000   -0.0000   -0.0000   -0.2861    0.0000   -0.7297
      2       C    6    0.0000   -0.0000    0.2165    0.0000    0.0000    0.0000   -0.0000    0.2165    0.0000    0.3395

  MBIS Radial Moments:
   Center  Symbol  Z      [a0^2]      [a0^3]      [a0^4]
      1       O    8   10.641922   19.119828   41.016223
      2       C    6    8.088548   16.933786   42.190958

  MBIS Valence Widths: [a0]
   Center  Symbol  Z     Width
      1       O    8    0.376222
      2       C    6    0.451858

*** tstop() called on Mac.lan at Sun Aug 10 18:37:50 2025
Module time:
	user time   =      16.88 seconds =       0.28 minutes
	system time =       2.22 seconds =       0.04 minutes
	total time  =          2 seconds =       0.03 minutes
Total time:
	user time   =      51.80 seconds =       0.86 minutes
	system time =       3.61 seconds =       0.06 minutes
	total time  =          6 seconds =       0.10 minutes

    Psi4 stopped on: Sunday, 10 August 2025 06:37PM
    Psi4 wall time for execution: 0:00:05.88

*** Psi4 exiting successfully. Buy a developer a beer!
