                               Psi4 1.9.1 release

  ==> Input File <==

--------------------------------------------------------------------------
molecule {
1 3
N           0.000000           0.000000           0.000000
C           0.000000           0.000000           1.123487
}

set {
basis              cc-pvtz
reference          uks
maxiter            500
DAMPING_PERCENTAGE 1
E_CONVERGENCE      1.0E-8
D_CONVERGENCE      1.0E-8
DIIS_MAX_VECS      400
MBIS_MAXITER       8000
guess              read
}

E, wfn = energy('b3lyp', restart_file='last_wfn', return_wfn=True)
properties('b3lyp','MBIS_CHARGES', wfn=wfn)
wfn.to_file('last_wfn')
--------------------------------------------------------------------------

    Molecular point group: c2v
  Charge       = 1
  Multiplicity = 3
  Basis Set: CC-PVTZ
    Blend: CC-PVTZ
  Basis Set: (CC-PVTZ AUX)
    Blend: CC-PVTZ-JKFIT
  @DF-UKS Final Energy:   -92.20912890110762
    Total Energy =                        -92.2091289011076043
 Dipole X            :          0.0000000            0.0000000            0.0000000
 Dipole Y            :          0.0000000            0.0000000            0.0000000
 Dipole Z            :          0.7833489            0.0015059            0.7848548
 Magnitude           :                                                    0.7848548
    Molecular point group: c2v

    Geometry (in Angstrom), charge = 1, multiplicity = 3:

       Center              X                  Y                   Z               Mass
    ------------   -----------------  -----------------  -----------------  -----------------
         N            0.000000000000     0.000000000000    -0.518471162206    14.003074004430
         C            0.000000000000     0.000000000000     0.605015837794    12.000000000000

  Charge       = 1
  Multiplicity = 3
  Basis Set: CC-PVTZ
    Blend: CC-PVTZ
  Basis Set: (CC-PVTZ AUX)
    Blend: CC-PVTZ-JKFIT

    Orbital Energies [Eh]
    ---------------------

    Alpha Occupied:

       1A1   -14.832117     2A1   -10.752240     3A1    -1.444250
       4A1    -0.889236     1B1    -0.860146     1B2    -0.815248
       5A1    -0.801610

    Alpha Virtual:

       2B1    -0.414154     2B2    -0.380510     6A1    -0.100192
       3B1    -0.017617     7A1    -0.007307     3B2    -0.006854
       8A1     0.149326     4B1     0.206504     4B2     0.223477
       9A1     0.255141     1A2     0.256580    10A1     0.261478
       5B1     0.473855     5B2     0.496195    11A1     0.568292
       2A2     0.799369    12A1     0.800169    13A1     0.953068
       6B1     1.165966     6B2     1.188605    14A1     1.411226
       7B1     1.536183     7B2     1.559626    15A1     1.826208
       8B1     2.203208     8B2     2.203400    16A1     2.297629
       3A2     2.300557    17A1     2.340490     9B1     2.371438
       9B2     2.399871    18A1     2.496277     4A2     2.496335
      10B1     2.499628    10B2     2.534568    19A1     2.716627
      11B1     3.010110    11B2     3.039182    12B1     3.510513
      12B2     3.510666    20A1     3.589301    21A1     3.985270
       5A2     3.985461     6A2     4.162408    22A1     4.162977
      13B1     4.395633    13B2     4.430998    23A1     4.604142
      24A1     4.967613    14B1     5.200903    14B2     5.234932
      25A1     5.756464    26A1    12.812967

    Beta Occupied:

       1A1   -14.816882     2A1   -10.724868     3A1    -1.376220
       4A1    -0.802433     1B2    -0.791661

    Beta Virtual:

       1B1    -0.673125     5A1    -0.610122     2B2    -0.342011
       2B1    -0.309471     6A1    -0.082543     3B2     0.002024
       3B1     0.009223     7A1     0.033403     8A1     0.163530
       4B2     0.227508     4B1     0.236522     1A2     0.291370
       9A1     0.294241    10A1     0.326923     5B2     0.531596
       5B1     0.536942    11A1     0.589163     2A2     0.829128
      12A1     0.831890    13A1     1.008899     6B2     1.204494
       6B1     1.208816    14A1     1.449628     7B2     1.582753
       7B1     1.592233    15A1     1.889856     8B2     2.254090
       8B1     2.255672     3A2     2.345706    16A1     2.349114
      17A1     2.395057     9B2     2.451106     9B1     2.468972
      10B2     2.576353     4A2     2.579675    18A1     2.586218
      10B1     2.592143    19A1     2.820561    11B2     3.082179
      11B1     3.091944    12B2     3.550035    12B1     3.551335
      20A1     3.641720     5A2     4.036817    21A1     4.044085
       6A2     4.199682    22A1     4.202858    13B2     4.448963
      13B1     4.459944    23A1     4.651065    24A1     5.002709
      14B2     5.263812    14B1     5.274517    25A1     5.791536
      26A1    12.852127

    Final Occupation by Irrep:
             A1    A2    B1    B2
    DOCC [     4,    0,    0,    1 ]
    SOCC [     1,    0,    1,    0 ]
    NA   [     5,    0,    1,    1 ]
    NB   [     4,    0,    0,    1 ]

  @DF-UKS Final Energy:   -92.20912889959472

   => Energetics <=

    Nuclear Repulsion Energy =             19.7825545361361570
    One-Electron Energy =                -158.1580452237595296
    Two-Electron Energy =                  55.7715114813008839
    DFT Exchange-Correlation Energy =      -9.6051496932722227
    Empirical Dispersion Energy =           0.0000000000000000
    VV10 Nonlocal Energy =                  0.0000000000000000
    Total Energy =                        -92.2091288995947167

  UHF NO Occupations:
  HONO-2 :    1 B2 1.9983965
  HONO-1 :    5 A1 1.0000000
  HONO-0 :    1 B1 1.0000000
  LUNO+0 :    2 B2 0.0016035
  LUNO+1 :    6 A1 0.0005723
  LUNO+2 :    7 A1 0.0002693
  LUNO+3 :    8 A1 0.0000005

Computation Completed

Properties will be evaluated at   0.000000,   0.000000,   0.000000 [a0]

Properties computed using the B3LYP density matrix

 Multipole Moments:

 ------------------------------------------------------------------------------------
     Multipole            Electronic (a.u.)      Nuclear  (a.u.)        Total (a.u.)
 ------------------------------------------------------------------------------------

 L = 1.  Multiply by 2.5417464519 to convert [e a0] to [Debye]
 Dipole X            :          0.0000000            0.0000000            0.0000000
 Dipole Y            :          0.0000000            0.0000000            0.0000000
 Dipole Z            :          0.7833490            0.0015059            0.7848549
 Magnitude           :                                                    0.7848549

 L = 2.  Multiply by 1.3450342976 to convert [e a0^2] to [Debye ang]
 Quadrupole XX       :         -5.5222478            0.0000000           -5.5222478
 Quadrupole XY       :          0.0000000            0.0000000            0.0000000
 Quadrupole XZ       :          0.0000000            0.0000000            0.0000000
 Quadrupole YY       :         -6.4693587            0.0000000           -6.4693587
 Quadrupole YZ       :          0.0000000            0.0000000            0.0000000
 Quadrupole ZZ       :        -19.5062626           14.5626288           -4.9436337
 Traceless XX        :          4.9770419           -4.8542096            0.1228323
 Traceless YY        :          4.0299310           -4.8542096           -0.8242787
 Traceless ZZ        :         -9.0069729            9.7084192            0.7014463

 ------------------------------------------------------------------------------------
  ==> Computing MBIS Charges <==

  Electron Count from Grid (Expected Number): 12.00000 (12.00000)
  Difference: -0.00000

  MBIS Charges: (a.u.)
   Center  Symbol  Z      Pop.       Charge
      1       N    7    6.827350    0.172650
      2       C    6    5.172650    0.827350

  MBIS Dipoles: [e a0]
   Center  Symbol  Z        X           Y           Z
      1       N    7   -0.000000   -0.000000   -0.115344
      2       C    6   -0.000000   -0.000000    0.123435

  MBIS Quadrupoles: [e a0^2]
   Center  Symbol  Z      XX        XY        XZ        YY        YZ        ZZ
      1       N    7   -3.0773    0.0000    0.0000   -3.6046   -0.0000   -3.8030
      2       C    6   -2.4450    0.0000   -0.0000   -2.8648    0.0000   -2.8961

  MBIS Octupoles: [e a0^3]
   Center  Symbol  Z      XXX       XXY       XXZ       XYY       XYZ       XZZ       YYY       YYZ       YZZ       ZZZ
      1       N    7   -0.0000   -0.0000   -0.0496   -0.0000    0.0000   -0.0000   -0.0000   -0.2024    0.0000   -0.2077
      2       C    6   -0.0000   -0.0000   -0.0010   -0.0000    0.0000   -0.0000    0.0000    0.1304    0.0000    0.1060

  MBIS Radial Moments:
   Center  Symbol  Z      [a0^2]      [a0^3]      [a0^4]
      1       N    7   10.484818   20.434740   47.519370
      2       C    6    8.205913   16.964414   41.897955

  MBIS Valence Widths: [a0]
   Center  Symbol  Z     Width
      1       N    7    0.413442
      2       C    6    0.443042

*** tstop() called on Mac.lan at Sun Aug 10 18:32:44 2025
Module time:
	user time   =       5.14 seconds =       0.09 minutes
	system time =       1.89 seconds =       0.03 minutes
	total time  =          1 seconds =       0.02 minutes
Total time:
	user time   =      21.50 seconds =       0.36 minutes
	system time =       4.50 seconds =       0.07 minutes
	total time  =          2 seconds =       0.03 minutes

    Psi4 stopped on: Sunday, 10 August 2025 06:32PM
    Psi4 wall time for execution: 0:00:02.58

*** Psi4 exiting successfully. Buy a developer a beer!
