                               Psi4 1.9.1 release

  ==> Input File <==

--------------------------------------------------------------------------
molecule {
1 2
H           0.000000           0.000000           0.000000
H           0.000000           0.000000           0.872833
}

set {
basis              cc-pvtz
reference          uks
maxiter            500
DAMPING_PERCENTAGE 1
E_CONVERGENCE      1.0E-8
D_CONVERGENCE      1.0E-8
DIIS_MAX_VECS      400
MBIS_MAXITER       8000
guess              read
}

E, wfn = energy('b3lyp', restart_file='last_wfn', return_wfn=True)
properties('b3lyp','MBIS_CHARGES', wfn=wfn)
wfn.to_file('last_wfn')
--------------------------------------------------------------------------

    Molecular point group: d2h
  Charge       = 1
  Multiplicity = 2
  Basis Set: CC-PVTZ
    Blend: CC-PVTZ
  Basis Set: (CC-PVTZ AUX)
    Blend: CC-PVTZ-JKFIT
  @DF-UKS Final Energy:    -0.59798436006638
    Total Energy =                         -0.5979843600663788
 Dipole X            :          0.0000000            0.0000000            0.0000000
 Dipole Y            :          0.0000000            0.0000000            0.0000000
 Dipole Z            :          0.0000000            0.0000000            0.0000000
 Magnitude           :                                                    0.0000000
    Molecular point group: d2h

    Geometry (in Angstrom), charge = 1, multiplicity = 2:

       Center              X                  Y                   Z               Mass
    ------------   -----------------  -----------------  -----------------  -----------------
         H            0.000000000000     0.000000000000    -0.436416500000     1.007825032230
         H            0.000000000000     0.000000000000     0.436416500000     1.007825032230

  Charge       = 1
  Multiplicity = 2
  Basis Set: CC-PVTZ
    Blend: CC-PVTZ
  Basis Set: (CC-PVTZ AUX)
    Blend: CC-PVTZ-JKFIT

    Orbital Energies [Eh]
    ---------------------

    Alpha Occupied:

       1Ag    -0.993944

    Alpha Virtual:

       1B1u   -0.369139     2Ag    -0.110338     1B3u    0.044374
       1B2u    0.044374     2B1u    0.060391     3Ag     0.451614
       1B3g    0.504208     1B2g    0.504208     3B1u    0.962509
       4Ag     1.596507     4B1u    1.610541     1B1g    2.350005
       5Ag     2.350005     2B2u    2.415575     2B3u    2.415575
       6Ag     2.688607     2B3g    3.136824     2B2g    3.136824
       1Au     3.139634     5B1u    3.139634     3B2u    3.160672
       3B3u    3.160672     6B1u    3.480073     3B3g    4.400275
       3B2g    4.400275     7Ag     4.439688     7B1u    5.483230

    Beta Occupied:

    Beta Virtual:

       1Ag    -0.608365     1B1u   -0.211397     2Ag    -0.021395
       1B2u    0.188889     1B3u    0.188889     2B1u    0.189841
       3Ag     0.576593     1B3g    0.610558     1B2g    0.610558
       3B1u    1.048722     4B1u    1.886470     4Ag     1.888062
       1B1g    2.546893     5Ag     2.546893     2B2u    2.669174
       2B3u    2.669174     6Ag     2.967830     1Au     3.325106
       5B1u    3.325106     2B3g    3.367865     2B2g    3.367865
       3B2u    3.384010     3B3u    3.384010     6B1u    3.685561
       3B3g    4.619759     3B2g    4.619759     7Ag     4.681245
       7B1u    5.804795

    Final Occupation by Irrep:
             Ag   B1g   B2g   B3g    Au   B1u   B2u   B3u
    DOCC [     0,    0,    0,    0,    0,    0,    0,    0 ]
    SOCC [     1,    0,    0,    0,    0,    0,    0,    0 ]
    NA   [     1,    0,    0,    0,    0,    0,    0,    0 ]
    NB   [     0,    0,    0,    0,    0,    0,    0,    0 ]

  @DF-UKS Final Energy:    -0.59798436011654

   => Energetics <=

    Nuclear Repulsion Energy =              0.6062754394826964
    One-Electron Energy =                  -1.1993128463402574
    Two-Electron Energy =                   0.2897053106173819
    DFT Exchange-Correlation Energy =      -0.2946522638763560
    Empirical Dispersion Energy =           0.0000000000000000
    VV10 Nonlocal Energy =                  0.0000000000000000
    Total Energy =                         -0.5979843601165351

  UHF NO Occupations:
  HONO-0 :    1 Ag 1.0000000
  LUNO+0 :    2 Ag 0.0000000
  LUNO+1 :    3 Ag 0.0000000
  LUNO+2 :    3B3u 0.0000000
  LUNO+3 :    2B3u 0.0000000

Computation Completed

Properties will be evaluated at   0.000000,   0.000000,   0.000000 [a0]

Properties computed using the B3LYP density matrix

 Multipole Moments:

 ------------------------------------------------------------------------------------
     Multipole            Electronic (a.u.)      Nuclear  (a.u.)        Total (a.u.)
 ------------------------------------------------------------------------------------

 L = 1.  Multiply by 2.5417464519 to convert [e a0] to [Debye]
 Dipole X            :          0.0000000            0.0000000            0.0000000
 Dipole Y            :          0.0000000            0.0000000            0.0000000
 Dipole Z            :          0.0000000            0.0000000            0.0000000
 Magnitude           :                                                    0.0000000

 L = 2.  Multiply by 1.3450342976 to convert [e a0^2] to [Debye ang]
 Quadrupole XX       :         -0.5639199            0.0000000           -0.5639199
 Quadrupole XY       :          0.0000000            0.0000000            0.0000000
 Quadrupole XZ       :          0.0000000            0.0000000            0.0000000
 Quadrupole YY       :         -0.5639199            0.0000000           -0.5639199
 Quadrupole YZ       :          0.0000000            0.0000000            0.0000000
 Quadrupole ZZ       :         -0.8944694            1.3602855            0.4658161
 Traceless XX        :          0.1101832           -0.4534285           -0.3432453
 Traceless YY        :          0.1101832           -0.4534285           -0.3432453
 Traceless ZZ        :         -0.2203663            0.9068570            0.6864907

 ------------------------------------------------------------------------------------
  ==> Computing MBIS Charges <==

  Electron Count from Grid (Expected Number):  1.00000 ( 1.00000)
  Difference:  0.00000

  MBIS Charges: (a.u.)
   Center  Symbol  Z      Pop.       Charge
      1       H    1    0.500000    0.500000
      2       H    1    0.500000    0.500000

  MBIS Dipoles: [e a0]
   Center  Symbol  Z        X           Y           Z
      1       H    1   -0.000000   -0.000000   -0.086214
      2       H    1    0.000000   -0.000000    0.086214

  MBIS Quadrupoles: [e a0^2]
   Center  Symbol  Z      XX        XY        XZ        YY        YZ        ZZ
      1       H    1   -0.2820    0.0000    0.0000   -0.2820    0.0000   -0.2494
      2       H    1   -0.2820    0.0000   -0.0000   -0.2820   -0.0000   -0.2494

  MBIS Octupoles: [e a0^3]
   Center  Symbol  Z      XXX       XXY       XXZ       XYY       XYZ       XZZ       YYY       YYZ       YZZ       ZZZ
      1       H    1    0.0000   -0.0000   -0.0509   -0.0000   -0.0000   -0.0000   -0.0000   -0.0509   -0.0000   -0.0942
      2       H    1    0.0000   -0.0000    0.0509   -0.0000    0.0000   -0.0000   -0.0000    0.0509   -0.0000    0.0942

  MBIS Radial Moments:
   Center  Symbol  Z      [a0^2]      [a0^3]      [a0^4]
      1       H    1    0.813286    1.444898    3.050452
      2       H    1    0.813286    1.444898    3.050452

  MBIS Valence Widths: [a0]
   Center  Symbol  Z     Width
      1       H    1    0.374136
      2       H    1    0.374136

*** tstop() called on Mac.lan at Sun Aug 10 18:11:21 2025
Module time:
	user time   =       0.48 seconds =       0.01 minutes
	system time =       1.36 seconds =       0.02 minutes
	total time  =          0 seconds =       0.00 minutes
Total time:
	user time   =       1.29 seconds =       0.02 minutes
	system time =       3.59 seconds =       0.06 minutes
	total time  =          1 seconds =       0.02 minutes

    Psi4 stopped on: Sunday, 10 August 2025 06:11PM
    Psi4 wall time for execution: 0:00:00.72

*** Psi4 exiting successfully. Buy a developer a beer!
