                               Psi4 1.9.1 release

  ==> Input File <==

--------------------------------------------------------------------------
molecule {
1 3
N           0.000000           0.000000           0.000000
C           0.000000           0.000000           1.553278
}

set {
basis              cc-pvtz
reference          uks
maxiter            500
DAMPING_PERCENTAGE 1
E_CONVERGENCE      1.0E-8
D_CONVERGENCE      1.0E-8
DIIS_MAX_VECS      400
MBIS_MAXITER       8000
guess              read
}

E, wfn = energy('b3lyp', restart_file='last_wfn', return_wfn=True)
properties('b3lyp','MBIS_CHARGES', wfn=wfn)
wfn.to_file('last_wfn')
--------------------------------------------------------------------------

    Molecular point group: c2v
  Charge       = 1
  Multiplicity = 3
  Basis Set: CC-PVTZ
    Blend: CC-PVTZ
  Basis Set: (CC-PVTZ AUX)
    Blend: CC-PVTZ-JKFIT
  @DF-UKS Final Energy:   -92.16174440038935
    Total Energy =                        -92.1617444003893667
 Dipole X            :          0.0000000            0.0000000            0.0000000
 Dipole Y            :          0.0000000            0.0000000            0.0000000
 Dipole Z            :          0.5674271            0.0020820            0.5695091
 Magnitude           :                                                    0.5695091
    Molecular point group: c2v

    Geometry (in Angstrom), charge = 1, multiplicity = 3:

       Center              X                  Y                   Z               Mass
    ------------   -----------------  -----------------  -----------------  -----------------
         N            0.000000000000     0.000000000000    -0.716812789012    14.003074004430
         C            0.000000000000     0.000000000000     0.836465210988    12.000000000000

  Charge       = 1
  Multiplicity = 3
  Basis Set: CC-PVTZ
    Blend: CC-PVTZ
  Basis Set: (CC-PVTZ AUX)
    Blend: CC-PVTZ-JKFIT

    Orbital Energies [Eh]
    ---------------------

    Alpha Occupied:

       1A1   -14.864735     2A1   -10.786889     3A1    -1.256475
       4A1    -0.932884     5A1    -0.764973     1B1    -0.747966
       1B2    -0.716671

    Alpha Virtual:

       2B1    -0.501344     2B2    -0.465945     6A1    -0.259510
       7A1    -0.005919     3B1     0.019347     3B2     0.033639
       8A1     0.036534     9A1     0.153025     4B1     0.186822
       4B2     0.200058     1A2     0.314488    10A1     0.314844
       5B1     0.362018     5B2     0.384637    11A1     0.543256
      12A1     0.715633     2A2     0.716997    13A1     0.718768
       6B1     0.998838     6B2     1.018637    14A1     1.189077
       7B1     1.570888     7B2     1.600165    15A1     1.794679
       8B1     2.194759     8B2     2.220308    16A1     2.254453
       3A2     2.255421     9B1     2.281225     9B2     2.281475
      17A1     2.350210    10B1     2.507891    18A1     2.530999
       4A2     2.531066    10B2     2.536068    19A1     2.751291
      11B1     2.761092    11B2     2.787922    20A1     2.792240
      12B1     3.459103    12B2     3.459162    21A1     3.588641
       5A2     3.589552    22A1     3.706939    13B1     3.927426
      13B2     3.953420    23A1     4.005541     6A2     4.005744
      24A1     4.294714    14B1     4.430582    14B2     4.453435
      25A1     5.113005    26A1     6.771951

    Beta Occupied:

       1A1   -14.827809     2A1   -10.781120     3A1    -1.167339
       4A1    -0.848650     1B2    -0.674048

    Beta Virtual:

       5A1    -0.591555     1B1    -0.572019     2B2    -0.453909
       2B1    -0.412896     6A1    -0.193880     7A1     0.015022
       3B2     0.023123     3B1     0.032534     8A1     0.062281
       9A1     0.185013     4B2     0.228047     4B1     0.235207
       1A2     0.316269    10A1     0.319122     5B2     0.404365
       5B1     0.413096    11A1     0.584231    12A1     0.752793
       2A2     0.771392    13A1     0.773201     6B2     1.055153
       6B1     1.060553    14A1     1.243246     7B2     1.576120
       7B1     1.593998    15A1     1.840662     8B2     2.248396
       8B1     2.261814     9B2     2.273566     3A2     2.273595
       9B1     2.274906    16A1     2.277077    17A1     2.395430
       4A2     2.522902    18A1     2.529596    10B2     2.570170
      10B1     2.586431    19A1     2.810265    11B2     2.826000
      11B1     2.837603    20A1     2.853733    12B2     3.539795
      12B1     3.540432     5A2     3.663138    21A1     3.665435
      22A1     3.763779    13B2     4.018286    13B1     4.031040
       6A2     4.115240    23A1     4.119221    24A1     4.380638
      14B2     4.526608    14B1     4.535061    25A1     5.178768
      26A1     6.820486

    Final Occupation by Irrep:
             A1    A2    B1    B2
    DOCC [     4,    0,    0,    1 ]
    SOCC [     1,    0,    1,    0 ]
    NA   [     5,    0,    1,    1 ]
    NB   [     4,    0,    0,    1 ]

  @DF-UKS Final Energy:   -92.16174439921352

   => Energetics <=

    Nuclear Repulsion Energy =             14.3087347198247858
    One-Electron Energy =                -147.8056980238213782
    Two-Electron Energy =                  50.7171005713483112
    DFT Exchange-Correlation Energy =      -9.3818816665652545
    Empirical Dispersion Energy =           0.0000000000000000
    VV10 Nonlocal Energy =                  0.0000000000000000
    Total Energy =                        -92.1617443992135179

  UHF NO Occupations:
  HONO-2 :    1 B2 1.9171322
  HONO-1 :    1 B1 1.0000000
  HONO-0 :    5 A1 1.0000000
  LUNO+0 :    2 B2 0.0828678
  LUNO+1 :    6 A1 0.0049800
  LUNO+2 :    7 A1 0.0004750
  LUNO+3 :    8 A1 0.0000009

Computation Completed

Properties will be evaluated at   0.000000,   0.000000,   0.000000 [a0]

Properties computed using the B3LYP density matrix

 Multipole Moments:

 ------------------------------------------------------------------------------------
     Multipole            Electronic (a.u.)      Nuclear  (a.u.)        Total (a.u.)
 ------------------------------------------------------------------------------------

 L = 1.  Multiply by 2.5417464519 to convert [e a0] to [Debye]
 Dipole X            :          0.0000000            0.0000000            0.0000000
 Dipole Y            :          0.0000000            0.0000000            0.0000000
 Dipole Z            :          0.5674264            0.0020820            0.5695084
 Magnitude           :                                                    0.5695084

 L = 2.  Multiply by 1.3450342976 to convert [e a0^2] to [Debye ang]
 Quadrupole XX       :         -6.1144428            0.0000000           -6.1144428
 Quadrupole XY       :          0.0000000            0.0000000            0.0000000
 Quadrupole XZ       :          0.0000000            0.0000000            0.0000000
 Quadrupole YY       :         -7.2698745            0.0000000           -7.2698745
 Quadrupole YZ       :          0.0000000            0.0000000            0.0000000
 Quadrupole ZZ       :        -31.4235171           27.8356944           -3.5878227
 Traceless XX        :          8.8215020           -9.2785648           -0.4570628
 Traceless YY        :          7.6660703           -9.2785648           -1.6124945
 Traceless ZZ        :        -16.4875723           18.5571296            2.0695574

 ------------------------------------------------------------------------------------
  ==> Computing MBIS Charges <==

  Electron Count from Grid (Expected Number): 12.00000 (12.00000)
  Difference: -0.00000

  MBIS Charges: (a.u.)
   Center  Symbol  Z      Pop.       Charge
      1       N    7    6.706285    0.293715
      2       C    6    5.293715    0.706285

  MBIS Dipoles: [e a0]
   Center  Symbol  Z        X           Y           Z
      1       N    7   -0.000000   -0.000000   -0.266370
      2       C    6   -0.000000    0.000000    0.117319

  MBIS Quadrupoles: [e a0^2]
   Center  Symbol  Z      XX        XY        XZ        YY        YZ        ZZ
      1       N    7   -3.3090   -0.0000    0.0000   -3.8076    0.0000   -3.6106
      2       C    6   -2.8054    0.0000   -0.0000   -3.4623    0.0000   -3.3734

  MBIS Octupoles: [e a0^3]
   Center  Symbol  Z      XXX       XXY       XXZ       XYY       XYZ       XZZ       YYY       YYZ       YZZ       ZZZ
      1       N    7   -0.0000   -0.0000   -0.1976    0.0000    0.0000   -0.0000   -0.0000   -0.3796   -0.0000   -0.9206
      2       C    6   -0.0000   -0.0000    0.1593   -0.0000    0.0000   -0.0000    0.0000    0.3191    0.0000    0.6048

  MBIS Radial Moments:
   Center  Symbol  Z      [a0^2]      [a0^3]      [a0^4]
      1       N    7   10.727141   21.486216   51.307780
      2       C    6    9.641174   21.257442   55.774107

  MBIS Valence Widths: [a0]
   Center  Symbol  Z     Width
      1       N    7    0.424075
      2       C    6    0.475748

*** tstop() called on Mac.lan at Sun Aug 10 18:34:39 2025
Module time:
	user time   =       3.57 seconds =       0.06 minutes
	system time =       2.54 seconds =       0.04 minutes
	total time  =          0 seconds =       0.00 minutes
Total time:
	user time   =      21.00 seconds =       0.35 minutes
	system time =       5.40 seconds =       0.09 minutes
	total time  =          2 seconds =       0.03 minutes

    Psi4 stopped on: Sunday, 10 August 2025 06:34PM
    Psi4 wall time for execution: 0:00:02.57

*** Psi4 exiting successfully. Buy a developer a beer!
