                               Psi4 1.9.1 release

  ==> Input File <==

--------------------------------------------------------------------------
molecule {
1 4
C           0.000000           0.000000           0.000000
C           0.000000           0.000000           1.202753
}

set {
basis              cc-pvtz
reference          uks
maxiter            500
DAMPING_PERCENTAGE 1
E_CONVERGENCE      1.0E-8
D_CONVERGENCE      1.0E-8
DIIS_MAX_VECS      400
MBIS_MAXITER       8000
guess              read
}

E, wfn = energy('b3lyp', restart_file='last_wfn', return_wfn=True)
properties('b3lyp','MBIS_CHARGES', wfn=wfn)
wfn.to_file('last_wfn')
--------------------------------------------------------------------------

    Molecular point group: d2h
  Charge       = 1
  Multiplicity = 4
  Basis Set: CC-PVTZ
    Blend: CC-PVTZ
  Basis Set: (CC-PVTZ AUX)
    Blend: CC-PVTZ-JKFIT
  @DF-UKS Final Energy:   -75.46356667622742
    Total Energy =                        -75.4635666762274155
 Dipole X            :          0.0000000            0.0000000            0.0000000
 Dipole Y            :          0.0000000            0.0000000            0.0000000
 Dipole Z            :          0.0000000            0.0000000            0.0000000
 Magnitude           :                                                    0.0000000
    Molecular point group: d2h

    Geometry (in Angstrom), charge = 1, multiplicity = 4:

       Center              X                  Y                   Z               Mass
    ------------   -----------------  -----------------  -----------------  -----------------
         C            0.000000000000     0.000000000000    -0.601376500000    12.000000000000
         C            0.000000000000     0.000000000000     0.601376500000    12.000000000000

  Charge       = 1
  Multiplicity = 4
  Basis Set: CC-PVTZ
    Blend: CC-PVTZ
  Basis Set: (CC-PVTZ AUX)
    Blend: CC-PVTZ-JKFIT

    Orbital Energies [Eh]
    ---------------------

    Alpha Occupied:

       1Ag   -10.686536     1B1u  -10.683911     2Ag    -1.218502
       2B1u   -0.831052     1B2u   -0.753434     3Ag    -0.749768
       1B3u   -0.714827

    Alpha Virtual:

       1B3g   -0.376872     1B2g   -0.347072     3B1u   -0.044812
       2B2u   -0.010687     2B3u    0.001184     4Ag     0.015383
       5Ag     0.026284     2B3g    0.108149     2B2g    0.117593
       4B1u    0.193452     1B1g    0.228846     6Ag     0.229506
       5B1u    0.382480     3B2u    0.413706     3B3u    0.437142
       1Au     0.548817     6B1u    0.549108     3B3g    0.819455
       7Ag     0.820866     3B2g    0.833323     7B1u    1.087954
       4B2u    1.523397     4B3u    1.550624     8Ag     1.691802
       4B3g    1.824194     4B2g    1.852659     8B1u    1.956487
       2B1g    2.046898     9Ag     2.047815     5B2u    2.093710
       6B2u    2.099651     5B3u    2.099807     6B3u    2.125999
      10Ag     2.332118     5B3g    2.513380     5B2g    2.513815
      11Ag     2.529083     3B1g    2.529169     6B3g    2.563679
       6B2g    2.583038     9B1u    2.615980     2Au     2.616777
      10B1u    2.937647     7B2u    3.081627     7B3u    3.108043
       3Au     3.178707    11B1u    3.179213    12Ag     3.206934
      12B1u    3.677972     7B3g    4.298091     7B2g    4.328402
      13Ag     4.600214    13B1u   13.045837

    Beta Occupied:

       1Ag   -10.653160     1B1u  -10.650899     2Ag    -1.136710
       1B3u   -0.672570

    Beta Virtual:

       2B1u   -0.578229     1B2u   -0.562560     3Ag    -0.494501
       1B2g   -0.283365     1B3g   -0.246059     3B1u   -0.016445
       2B3u    0.008615     2B2u    0.019579     4Ag     0.042312
       5Ag     0.092051     2B2g    0.131711     2B3g    0.147174
       1B1g    0.263935     6Ag     0.268632     4B1u    0.293678
       5B1u    0.424171     3B3u    0.489313     3B2u    0.505378
       1Au     0.587564     6B1u    0.593971     3B2g    0.869131
       3B3g    0.883993     7Ag     0.897946     7B1u    1.159061
       4B3u    1.575204     4B2u    1.591109     8Ag     1.755950
       4B2g    1.879611     4B3g    1.892136     8B1u    2.051073
       2B1g    2.098757     9Ag     2.105483     5B3u    2.152806
       5B2u    2.156004     6B3u    2.183269     6B2u    2.206286
      10Ag     2.478478     5B2g    2.572240     5B3g    2.576351
       3B1g    2.620790    11Ag     2.632953     6B2g    2.688880
       2Au     2.702773     9B1u    2.713936     6B3g    2.725704
      10B1u    3.070257     7B3u    3.200825     7B2u    3.231136
       3Au     3.247076    11B1u    3.257890    12Ag     3.298838
      12B1u    3.776607     7B2g    4.384845     7B3g    4.409374
      13Ag     4.666112    13B1u   13.100224

    Final Occupation by Irrep:
             Ag   B1g   B2g   B3g    Au   B1u   B2u   B3u
    DOCC [     2,    0,    0,    0,    0,    1,    0,    1 ]
    SOCC [     1,    0,    0,    0,    0,    1,    1,    0 ]
    NA   [     3,    0,    0,    0,    0,    2,    1,    1 ]
    NB   [     2,    0,    0,    0,    0,    1,    0,    1 ]

  @DF-UKS Final Energy:   -75.46356667587800

   => Energetics <=

    Nuclear Repulsion Energy =             15.8389790623012399
    One-Electron Energy =                -127.8072324096364696
    Two-Electron Energy =                  44.8930890084058944
    DFT Exchange-Correlation Energy =      -8.3884023369486602
    Empirical Dispersion Energy =           0.0000000000000000
    VV10 Nonlocal Energy =                  0.0000000000000000
    Total Energy =                        -75.4635666758779990

  UHF NO Occupations:
  HONO-2 :    3 Ag 1.0000000
  HONO-1 :    1B2u 1.0000000
  HONO-0 :    2B1u 1.0000000
  LUNO+0 :    2B3u 0.0007044
  LUNO+1 :    4 Ag 0.0004906
  LUNO+2 :    3B1u 0.0000009
  LUNO+3 :    5 Ag 0.0000005

Computation Completed

Properties will be evaluated at   0.000000,   0.000000,   0.000000 [a0]

Properties computed using the B3LYP density matrix

 Multipole Moments:

 ------------------------------------------------------------------------------------
     Multipole            Electronic (a.u.)      Nuclear  (a.u.)        Total (a.u.)
 ------------------------------------------------------------------------------------

 L = 1.  Multiply by 2.5417464519 to convert [e a0] to [Debye]
 Dipole X            :          0.0000000            0.0000000            0.0000000
 Dipole Y            :          0.0000000            0.0000000            0.0000000
 Dipole Z            :          0.0000000            0.0000000            0.0000000
 Magnitude           :                                                    0.0000000

 L = 2.  Multiply by 1.3450342976 to convert [e a0^2] to [Debye ang]
 Quadrupole XX       :         -6.9914655            0.0000000           -6.9914655
 Quadrupole XY       :          0.0000000            0.0000000            0.0000000
 Quadrupole XZ       :          0.0000000            0.0000000            0.0000000
 Quadrupole YY       :         -5.8065534            0.0000000           -5.8065534
 Quadrupole YZ       :          0.0000000            0.0000000            0.0000000
 Quadrupole ZZ       :        -19.2479538           15.4978655           -3.7500883
 Traceless XX        :          3.6905254           -5.1659552           -1.4754298
 Traceless YY        :          4.8754375           -5.1659552           -0.2905176
 Traceless ZZ        :         -8.5659629           10.3319103            1.7659474

 ------------------------------------------------------------------------------------
  ==> Computing MBIS Charges <==

  Electron Count from Grid (Expected Number): 11.00000 (11.00000)
  Difference: -0.00000

  MBIS Charges: (a.u.)
   Center  Symbol  Z      Pop.       Charge
      1       C    6    5.500000    0.500000
      2       C    6    5.500000    0.500000

  MBIS Dipoles: [e a0]
   Center  Symbol  Z        X           Y           Z
      1       C    6   -0.000000    0.000000   -0.372151
      2       C    6   -0.000000    0.000000    0.372151

  MBIS Quadrupoles: [e a0^2]
   Center  Symbol  Z      XX        XY        XZ        YY        YZ        ZZ
      1       C    6   -3.4957    0.0000    0.0000   -2.9033   -0.0000   -3.3666
      2       C    6   -3.4957    0.0000   -0.0000   -2.9033    0.0000   -3.3666

  MBIS Octupoles: [e a0^3]
   Center  Symbol  Z      XXX       XXY       XXZ       XYY       XYZ       XZZ       YYY       YYZ       YZZ       ZZZ
      1       C    6   -0.0000    0.0000   -0.4633   -0.0000    0.0000   -0.0000    0.0000   -0.2788    0.0000   -0.6928
      2       C    6   -0.0000    0.0000    0.4633    0.0000   -0.0000   -0.0000    0.0000    0.2788    0.0000    0.6928

  MBIS Radial Moments:
   Center  Symbol  Z      [a0^2]      [a0^3]      [a0^4]
      1       C    6    9.765650   21.136103   54.620073
      2       C    6    9.765650   21.136103   54.620073

  MBIS Valence Widths: [a0]
   Center  Symbol  Z     Width
      1       C    6    0.463621
      2       C    6    0.463621

*** tstop() called on Mac.lan at Sun Aug 10 18:15:02 2025
Module time:
	user time   =       5.21 seconds =       0.09 minutes
	system time =       2.16 seconds =       0.04 minutes
	total time  =          1 seconds =       0.02 minutes
Total time:
	user time   =      17.12 seconds =       0.29 minutes
	system time =       4.97 seconds =       0.08 minutes
	total time  =          3 seconds =       0.05 minutes

    Psi4 stopped on: Sunday, 10 August 2025 06:15PM
    Psi4 wall time for execution: 0:00:02.20

*** Psi4 exiting successfully. Buy a developer a beer!
