                               Psi4 1.9.1 release

  ==> Input File <==

--------------------------------------------------------------------------
molecule {
1 2
N           0.000000           0.000000           0.000000
N           0.000000           0.000000           1.373076
}

set {
basis              cc-pvtz
reference          uks
maxiter            500
DAMPING_PERCENTAGE 1
E_CONVERGENCE      1.0E-8
D_CONVERGENCE      1.0E-8
DIIS_MAX_VECS      400
MBIS_MAXITER       8000
guess              read
}

E, wfn = energy('b3lyp', restart_file='last_wfn', return_wfn=True)
properties('b3lyp','MBIS_CHARGES', wfn=wfn)
wfn.to_file('last_wfn')
--------------------------------------------------------------------------

    Molecular point group: d2h
  Charge       = 1
  Multiplicity = 2
  Basis Set: CC-PVTZ
    Blend: CC-PVTZ
  Basis Set: (CC-PVTZ AUX)
    Blend: CC-PVTZ-JKFIT
  @DF-UKS Final Energy:  -108.88867208787006
    Total Energy =                       -108.8886720878700629
 Dipole X            :          0.0000000            0.0000000            0.0000000
 Dipole Y            :          0.0000000            0.0000000            0.0000000
 Dipole Z            :          0.0000000            0.0000000            0.0000000
 Magnitude           :                                                    0.0000000
    Molecular point group: d2h

    Geometry (in Angstrom), charge = 1, multiplicity = 2:

       Center              X                  Y                   Z               Mass
    ------------   -----------------  -----------------  -----------------  -----------------
         N            0.000000000000     0.000000000000    -0.686538000000    14.003074004430
         N            0.000000000000     0.000000000000     0.686538000000    14.003074004430

  Charge       = 1
  Multiplicity = 2
  Basis Set: CC-PVTZ
    Blend: CC-PVTZ
  Basis Set: (CC-PVTZ AUX)
    Blend: CC-PVTZ-JKFIT

    Orbital Energies [Eh]
    ---------------------

    Alpha Occupied:

       1Ag   -14.950018     1B1u  -14.949692     2Ag    -1.407057
       2B1u   -1.061750     3Ag    -0.877807     1B2u   -0.798592
       1B3u   -0.798592

    Alpha Virtual:

       1B3g   -0.533048     1B2g   -0.533048     3B1u   -0.221938
       4B1u    0.087921     2B2u    0.105001     2B3u    0.105001
       4Ag     0.125410     5Ag     0.148596     2B3g    0.209159
       2B2g    0.209159     1B1g    0.513265     6Ag     0.513265
       5B1u    0.550431     3B2u    0.564203     3B3u    0.564203
       1Au     0.822298     6B1u    0.822298     7Ag     1.190736
       3B3g    1.226582     3B2g    1.226582     7B1u    1.263889
       4B2u    2.286458     4B3u    2.286458     8Ag     2.382674
       4B3g    2.502799     4B2g    2.502799     2B1g    3.066194
       9Ag     3.066194     5B2u    3.084019     5B3u    3.084019
       8B1u    3.170085    10Ag     3.195087     6B3u    3.340440
       6B2u    3.340440     5B2g    3.530198     5B3g    3.530198
       9B1u    3.870093    10B1u    3.882688     2Au     3.882691
      11Ag     3.909798     3B1g    3.909806     6B3g    4.112391
       6B2g    4.112391    11B1u    4.121986     3Au     4.121992
       7B2u    4.189127     7B3u    4.189127    12B1u    4.509871
      12Ag     4.755391     7B3g    5.028799     7B2g    5.028799
      13Ag     5.139824    13B1u    8.775971

    Beta Occupied:

       1Ag   -14.937562     1B1u  -14.937362     2Ag    -1.375516
       2B1u   -0.984595     1B2u   -0.786492     1B3u   -0.786492

    Beta Virtual:

       3Ag    -0.697196     1B3g   -0.514841     1B2g   -0.514841
       3B1u   -0.171290     2B2u    0.108842     2B3u    0.108842
       4B1u    0.127375     4Ag     0.155074     5Ag     0.161866
       2B3g    0.213456     2B2g    0.213456     1B1g    0.516046
       6Ag     0.516046     5B1u    0.560647     3B2u    0.594940
       3B3u    0.594940     6B1u    0.828446     1Au     0.828446
       7Ag     1.230877     3B3g    1.255516     3B2g    1.255516
       7B1u    1.305561     4B2u    2.300280     4B3u    2.300280
       8Ag     2.436347     4B3g    2.510327     4B2g    2.510327
       2B1g    3.092804     9Ag     3.092804     5B2u    3.114563
       5B3u    3.114563     8B1u    3.214536    10Ag     3.247159
       6B3u    3.343915     6B2u    3.343915     5B2g    3.533684
       5B3g    3.533684     9B1u    3.885144     2Au     3.885147
      11Ag     3.916726     3B1g    3.916735    10B1u    3.929919
      11B1u    4.150969     3Au     4.150976     6B3g    4.161060
       6B2g    4.161060     7B2u    4.244437     7B3u    4.244437
      12B1u    4.570686    12Ag     4.797485     7B3g    5.071357
       7B2g    5.071357    13Ag     5.190176    13B1u    8.799528

    Final Occupation by Irrep:
             Ag   B1g   B2g   B3g    Au   B1u   B2u   B3u
    DOCC [     2,    0,    0,    0,    0,    2,    1,    1 ]
    SOCC [     1,    0,    0,    0,    0,    0,    0,    0 ]
    NA   [     3,    0,    0,    0,    0,    2,    1,    1 ]
    NB   [     2,    0,    0,    0,    0,    2,    1,    1 ]

  @DF-UKS Final Energy:  -108.88867208790437

   => Energetics <=

    Nuclear Repulsion Energy =             18.8843758996807161
    One-Electron Energy =                -179.2937044313571278
    Two-Electron Energy =                  62.0693490161885180
    DFT Exchange-Correlation Energy =     -10.5486925724164848
    Empirical Dispersion Energy =           0.0000000000000000
    VV10 Nonlocal Energy =                  0.0000000000000000
    Total Energy =                       -108.8886720879043821

  UHF NO Occupations:
  HONO-2 :    2 Ag 1.9998252
  HONO-1 :    2B1u 1.9965226
  HONO-0 :    3 Ag 1.0000000
  LUNO+0 :    3B1u 0.0034774
  LUNO+1 :    4 Ag 0.0001748
  LUNO+2 :    2B3u 0.0001067
  LUNO+3 :    2B2u 0.0001067

Computation Completed

Properties will be evaluated at   0.000000,   0.000000,   0.000000 [a0]

Properties computed using the B3LYP density matrix

 Multipole Moments:

 ------------------------------------------------------------------------------------
     Multipole            Electronic (a.u.)      Nuclear  (a.u.)        Total (a.u.)
 ------------------------------------------------------------------------------------

 L = 1.  Multiply by 2.5417464519 to convert [e a0] to [Debye]
 Dipole X            :          0.0000000            0.0000000            0.0000000
 Dipole Y            :          0.0000000            0.0000000            0.0000000
 Dipole Z            :          0.0000000            0.0000000            0.0000000
 Magnitude           :                                                    0.0000000

 L = 2.  Multiply by 1.3450342976 to convert [e a0^2] to [Debye ang]
 Quadrupole XX       :         -6.6604491            0.0000000           -6.6604491
 Quadrupole XY       :          0.0000000            0.0000000            0.0000000
 Quadrupole XZ       :          0.0000000            0.0000000            0.0000000
 Quadrupole YY       :         -6.6604491            0.0000000           -6.6604491
 Quadrupole YZ       :          0.0000000            0.0000000            0.0000000
 Quadrupole ZZ       :        -27.0378143           23.5643211           -3.4734932
 Traceless XX        :          6.7924551           -7.8547737           -1.0623186
 Traceless YY        :          6.7924551           -7.8547737           -1.0623186
 Traceless ZZ        :        -13.5849101           15.7095474            2.1246372

 ------------------------------------------------------------------------------------
  ==> Computing MBIS Charges <==

  Electron Count from Grid (Expected Number): 13.00000 (13.00000)
  Difference:  0.00000

  MBIS Charges: (a.u.)
   Center  Symbol  Z      Pop.       Charge
      1       N    7    6.500000    0.500000
      2       N    7    6.500000    0.500000

  MBIS Dipoles: [e a0]
   Center  Symbol  Z        X           Y           Z
      1       N    7   -0.000000   -0.000000   -0.282119
      2       N    7    0.000000    0.000000    0.282119

  MBIS Quadrupoles: [e a0^2]
   Center  Symbol  Z      XX        XY        XZ        YY        YZ        ZZ
      1       N    7   -3.3302    0.0000   -0.0000   -3.3302   -0.0000   -3.3104
      2       N    7   -3.3302    0.0000    0.0000   -3.3302    0.0000   -3.3104

  MBIS Octupoles: [e a0^3]
   Center  Symbol  Z      XXX       XXY       XXZ       XYY       XYZ       XZZ       YYY       YYZ       YZZ       ZZZ
      1       N    7   -0.0000    0.0000   -0.3419    0.0000   -0.0000    0.0000   -0.0000   -0.3419    0.0000   -0.8770
      2       N    7   -0.0000   -0.0000    0.3419    0.0000   -0.0000    0.0000   -0.0000    0.3419    0.0000    0.8770

  MBIS Radial Moments:
   Center  Symbol  Z      [a0^2]      [a0^3]      [a0^4]
      1       N    7    9.970804   19.613263   45.984797
      2       N    7    9.970804   19.613263   45.984797

  MBIS Valence Widths: [a0]
   Center  Symbol  Z     Width
      1       N    7    0.417337
      2       N    7    0.417337

*** tstop() called on Mac.lan at Sun Aug 10 18:25:30 2025
Module time:
	user time   =       3.96 seconds =       0.07 minutes
	system time =       2.22 seconds =       0.04 minutes
	total time  =          1 seconds =       0.02 minutes
Total time:
	user time   =      16.25 seconds =       0.27 minutes
	system time =       4.21 seconds =       0.07 minutes
	total time  =          2 seconds =       0.03 minutes

    Psi4 stopped on: Sunday, 10 August 2025 06:25PM
    Psi4 wall time for execution: 0:00:01.99

*** Psi4 exiting successfully. Buy a developer a beer!
