                               Psi4 1.9.1 release

  ==> Input File <==

--------------------------------------------------------------------------
molecule {
1 1
C           0.000000           0.000000           0.000000
H           0.000000           0.000000           1.663316
}

set {
basis              cc-pvtz
reference          uks
maxiter            500
DAMPING_PERCENTAGE 1
E_CONVERGENCE      1.0E-8
D_CONVERGENCE      1.0E-8
DIIS_MAX_VECS      400
MBIS_MAXITER       8000
guess              read
}

E, wfn = energy('b3lyp', restart_file='last_wfn', return_wfn=True)
properties('b3lyp','MBIS_CHARGES', wfn=wfn)
wfn.to_file('last_wfn')
--------------------------------------------------------------------------

    Molecular point group: c2v
  Charge       = 1
  Multiplicity = 1
  Basis Set: CC-PVTZ
    Blend: CC-PVTZ
  Basis Set: (CC-PVTZ AUX)
    Blend: CC-PVTZ-JKFIT
  @DF-UKS Final Energy:   -38.03379669888519
    Total Energy =                        -38.0337966988851903
 Dipole X            :          0.0000000            0.0000000            0.0000000
 Dipole Y            :          0.0000000            0.0000000            0.0000000
 Dipole Z            :         -0.6083976            1.4384953            0.8300977
 Magnitude           :                                                    0.8300977
    Molecular point group: c2v

    Geometry (in Angstrom), charge = 1, multiplicity = 1:

       Center              X                  Y                   Z               Mass
    ------------   -----------------  -----------------  -----------------  -----------------
         C            0.000000000000     0.000000000000    -0.128871006272    12.000000000000
         H            0.000000000000     0.000000000000     1.534444993728     1.007825032230

  Charge       = 1
  Multiplicity = 1
  Basis Set: CC-PVTZ
    Blend: CC-PVTZ
  Basis Set: (CC-PVTZ AUX)
    Blend: CC-PVTZ-JKFIT

    Orbital Energies [Eh]
    ---------------------

    Alpha Occupied:

       1A1   -10.801726     2A1    -0.958107     3A1    -0.667152

    Alpha Virtual:

       1B2    -0.525544     1B1    -0.525544     4A1    -0.371421
       5A1    -0.005659     2B1     0.012963     2B2     0.012963
       6A1     0.042066     7A1     0.149839     3B2     0.222385
       3B1     0.222385     8A1     0.336503     1A2     0.336503
       9A1     0.463335     4B2     0.573811     4B1     0.573811
      10A1     0.883886     5B2     1.527523     5B1     1.527523
      11A1     1.649366    12A1     2.057998     6B1     2.188173
       6B2     2.188173    13A1     2.217962    14A1     2.251618
       2A2     2.251618     7B2     2.266612     7B1     2.266612
      15A1     2.498405     3A2     2.498405     8B2     2.547034
       8B1     2.547034    16A1     2.807075    17A1     2.904200
       4A2     2.904214     9B2     3.186365     9B1     3.186365
      18A1     3.251774    10B2     3.465700    10B1     3.465700
      19A1     3.637178    20A1     4.553174

    Beta Occupied:

       1A1   -10.801726     2A1    -0.958107     3A1    -0.667152

    Beta Virtual:

       1B2    -0.525544     1B1    -0.525544     4A1    -0.371421
       5A1    -0.005659     2B1     0.012963     2B2     0.012963
       6A1     0.042066     7A1     0.149839     3B2     0.222385
       3B1     0.222385     8A1     0.336503     1A2     0.336503
       9A1     0.463335     4B2     0.573811     4B1     0.573811
      10A1     0.883886     5B2     1.527523     5B1     1.527523
      11A1     1.649366    12A1     2.057998     6B1     2.188173
       6B2     2.188173    13A1     2.217962    14A1     2.251618
       2A2     2.251618     7B2     2.266612     7B1     2.266612
      15A1     2.498405     3A2     2.498405     8B2     2.547034
       8B1     2.547034    16A1     2.807075    17A1     2.904200
       4A2     2.904214     9B2     3.186365     9B1     3.186365
      18A1     3.251774    10B2     3.465700    10B1     3.465700
      19A1     3.637178    20A1     4.553174

    Final Occupation by Irrep:
             A1    A2    B1    B2
    DOCC [     3,    0,    0,    0 ]
    SOCC [     0,    0,    0,    0 ]
    NA   [     3,    0,    0,    0 ]
    NB   [     3,    0,    0,    0 ]

  @DF-UKS Final Energy:   -38.03379669878034

   => Energetics <=

    Nuclear Repulsion Energy =              1.9088755618415263
    One-Electron Energy =                 -52.0133131842103467
    Two-Electron Energy =                  16.2426405364915567
    DFT Exchange-Correlation Energy =      -4.1719996129030692
    Empirical Dispersion Energy =           0.0000000000000000
    VV10 Nonlocal Energy =                  0.0000000000000000
    Total Energy =                        -38.0337966987803355

  UHF NO Occupations:
  HONO-2 :    1 A1 2.0000000
  HONO-1 :    2 A1 2.0000000
  HONO-0 :    3 A1 2.0000000
  LUNO+0 :    4 A1 0.0000000
  LUNO+1 :    5 A1 0.0000000
  LUNO+2 :    6 A1 0.0000000
  LUNO+3 :    7 A1 0.0000000

Computation Completed

Properties will be evaluated at   0.000000,   0.000000,   0.000000 [a0]

Properties computed using the B3LYP density matrix

 Multipole Moments:

 ------------------------------------------------------------------------------------
     Multipole            Electronic (a.u.)      Nuclear  (a.u.)        Total (a.u.)
 ------------------------------------------------------------------------------------

 L = 1.  Multiply by 2.5417464519 to convert [e a0] to [Debye]
 Dipole X            :          0.0000000            0.0000000            0.0000000
 Dipole Y            :          0.0000000            0.0000000            0.0000000
 Dipole Z            :         -0.6083976            1.4384953            0.8300977
 Magnitude           :                                                    0.8300977

 L = 2.  Multiply by 1.3450342976 to convert [e a0^2] to [Debye ang]
 Quadrupole XX       :         -3.2153933            0.0000000           -3.2153933
 Quadrupole XY       :          0.0000000            0.0000000            0.0000000
 Quadrupole XZ       :          0.0000000            0.0000000            0.0000000
 Quadrupole YY       :         -3.2153933            0.0000000           -3.2153933
 Quadrupole YZ       :          0.0000000            0.0000000            0.0000000
 Quadrupole ZZ       :        -10.2950417            8.7639925           -1.5310492
 Traceless XX        :          2.3598828           -2.9213308           -0.5614480
 Traceless YY        :          2.3598828           -2.9213308           -0.5614480
 Traceless ZZ        :         -4.7197656            5.8426617            1.1228961

 ------------------------------------------------------------------------------------
  ==> Computing MBIS Charges <==

  Electron Count from Grid (Expected Number):  6.00000 ( 6.00000)
  Difference: -0.00000

  MBIS Charges: (a.u.)
   Center  Symbol  Z      Pop.       Charge
      1       C    6    5.262923    0.737077
      2       H    1    0.737077    0.262923

  MBIS Dipoles: [e a0]
   Center  Symbol  Z        X           Y           Z
      1       C    6   -0.000000    0.000000    0.073709
      2       H    1    0.000000    0.000000    0.173496

  MBIS Quadrupoles: [e a0^2]
   Center  Symbol  Z      XX        XY        XZ        YY        YZ        ZZ
      1       C    6   -2.6646   -0.0000    0.0000   -2.6646    0.0000   -4.1855
      2       H    1   -0.5508   -0.0000    0.0000   -0.5508    0.0000   -0.5703

  MBIS Octupoles: [e a0^3]
   Center  Symbol  Z      XXX       XXY       XXZ       XYY       XYZ       XZZ       YYY       YYZ       YZZ       ZZZ
      1       C    6    0.0000    0.0000    0.0606   -0.0000    0.0000   -0.0000   -0.0000    0.0606   -0.0000    0.0862
      2       H    1    0.0000    0.0000    0.0860    0.0000   -0.0000    0.0000   -0.0000    0.0860    0.0000    0.2941

  MBIS Radial Moments:
   Center  Symbol  Z      [a0^2]      [a0^3]      [a0^4]
      1       C    6    9.514615   20.803985   54.063852
      2       H    1    1.671897    3.461514    8.486489

  MBIS Valence Widths: [a0]
   Center  Symbol  Z     Width
      1       C    6    0.475494
      2       H    1    0.444123

*** tstop() called on Mac.lan at Sun Aug 10 18:27:55 2025
Module time:
	user time   =       2.64 seconds =       0.04 minutes
	system time =       1.91 seconds =       0.03 minutes
	total time  =          0 seconds =       0.00 minutes
Total time:
	user time   =      10.95 seconds =       0.18 minutes
	system time =       3.79 seconds =       0.06 minutes
	total time  =          1 seconds =       0.02 minutes

    Psi4 stopped on: Sunday, 10 August 2025 06:27PM
    Psi4 wall time for execution: 0:00:01.44

*** Psi4 exiting successfully. Buy a developer a beer!
