                               Psi4 1.9.1 release

  ==> Input File <==

--------------------------------------------------------------------------
molecule {
1 1
O           0.000000           0.000000           0.000000
N           0.000000           0.000000           1.488794
}

set {
basis              cc-pvtz
reference          uks
maxiter            500
DAMPING_PERCENTAGE 1
E_CONVERGENCE      1.0E-8
D_CONVERGENCE      1.0E-8
DIIS_MAX_VECS      400
MBIS_MAXITER       8000
guess              read
}

E, wfn = energy('b3lyp', restart_file='last_wfn', return_wfn=True)
properties('b3lyp','MBIS_CHARGES', wfn=wfn)
wfn.to_file('last_wfn')
--------------------------------------------------------------------------

    Molecular point group: c2v
  Charge       = 1
  Multiplicity = 1
  Basis Set: CC-PVTZ
    Blend: CC-PVTZ
  Basis Set: (CC-PVTZ AUX)
    Blend: CC-PVTZ-JKFIT
  @DF-UKS Final Energy:  -129.36736020292787
    Total Energy =                       -129.3673602029278698
 Dipole X            :          0.0000000            0.0000000            0.0000000
 Dipole Y            :          0.0000000            0.0000000            0.0000000
 Dipole Z            :          0.5147065           -0.0056450            0.5090615
 Magnitude           :                                                    0.5090615
    Molecular point group: c2v

    Geometry (in Angstrom), charge = 1, multiplicity = 1:

       Center              X                  Y                   Z               Mass
    ------------   -----------------  -----------------  -----------------  -----------------
         O            0.000000000000     0.000000000000    -0.694969680156    15.994914619570
         N            0.000000000000     0.000000000000     0.793824319844    14.003074004430

  Charge       = 1
  Multiplicity = 1
  Basis Set: CC-PVTZ
    Blend: CC-PVTZ
  Basis Set: (CC-PVTZ AUX)
    Blend: CC-PVTZ-JKFIT

    Orbital Energies [Eh]
    ---------------------

    Alpha Occupied:

       1A1   -19.750158     2A1   -15.020670     3A1    -1.475886
       4A1    -1.155829     5A1    -0.867766     1B1    -0.824054
       1B2    -0.824054

    Alpha Virtual:

       2B2    -0.611172     2B1    -0.611172     6A1    -0.399205
       7A1     0.094136     3B2     0.111672     3B1     0.111672
       8A1     0.158994     9A1     0.255131     4B1     0.283884
       4B2     0.283884    10A1     0.592118     1A2     0.592118
       5B1     0.618037     5B2     0.618037    11A1     0.760980
      12A1     1.088896     2A2     1.088896    13A1     1.110873
       6B1     1.431070     6B2     1.431070    14A1     1.630782
       7B2     2.334284     7B1     2.334284    15A1     2.586552
       8B2     3.038634     8B1     3.038634    16A1     3.211128
      17A1     3.362948     3A2     3.362948     9B2     3.388772
       9B1     3.388772    10B2     3.517041    10B1     3.517041
      18A1     3.813248    19A1     3.891175     4A2     3.891185
      11B1     4.075247    11B2     4.075247    20A1     4.484961
      12B1     4.649289    12B2     4.649289    21A1     4.727202
      22A1     4.736254     5A2     4.736255    13B2     5.161059
      13B1     5.161059    23A1     5.688907     6A2     5.698871
      24A1     5.698907    14B2     6.067615    14B1     6.067615
      25A1     6.924989    26A1     7.877595

    Beta Occupied:

       1A1   -19.750158     2A1   -15.020670     3A1    -1.475886
       4A1    -1.155829     5A1    -0.867766     1B1    -0.824054
       1B2    -0.824054

    Beta Virtual:

       2B2    -0.611172     2B1    -0.611172     6A1    -0.399205
       7A1     0.094136     3B2     0.111672     3B1     0.111672
       8A1     0.158994     9A1     0.255131     4B1     0.283884
       4B2     0.283884    10A1     0.592118     1A2     0.592118
       5B1     0.618037     5B2     0.618037    11A1     0.760980
      12A1     1.088896     2A2     1.088896    13A1     1.110873
       6B1     1.431070     6B2     1.431070    14A1     1.630782
       7B2     2.334284     7B1     2.334284    15A1     2.586552
       8B2     3.038634     8B1     3.038634    16A1     3.211128
      17A1     3.362948     3A2     3.362948     9B2     3.388772
       9B1     3.388772    10B2     3.517041    10B1     3.517041
      18A1     3.813248    19A1     3.891175     4A2     3.891185
      11B1     4.075247    11B2     4.075247    20A1     4.484961
      12B1     4.649289    12B2     4.649289    21A1     4.727202
      22A1     4.736254     5A2     4.736255    13B2     5.161059
      13B1     5.161059    23A1     5.688907     6A2     5.698871
      24A1     5.698907    14B2     6.067615    14B1     6.067615
      25A1     6.924989    26A1     7.877595

    Final Occupation by Irrep:
             A1    A2    B1    B2
    DOCC [     5,    0,    1,    1 ]
    SOCC [     0,    0,    0,    0 ]
    NA   [     5,    0,    1,    1 ]
    NB   [     5,    0,    1,    1 ]

  @DF-UKS Final Energy:  -129.36736019141040

   => Energetics <=

    Nuclear Repulsion Energy =             19.9046502051459093
    One-Electron Energy =                -210.1765924877215639
    Two-Electron Energy =                  72.7529371459001482
    DFT Exchange-Correlation Energy =     -11.8483550547348973
    Empirical Dispersion Energy =           0.0000000000000000
    VV10 Nonlocal Energy =                  0.0000000000000000
    Total Energy =                       -129.3673601914103983

  UHF NO Occupations:
  HONO-2 :    4 A1 2.0000000
  HONO-1 :    1 B1 2.0000000
  HONO-0 :    5 A1 2.0000000
  LUNO+0 :    6 A1 0.0000000
  LUNO+1 :    7 A1 0.0000000
  LUNO+2 :    8 A1 0.0000000
  LUNO+3 :    9 A1 0.0000000

Computation Completed

Properties will be evaluated at   0.000000,   0.000000,   0.000000 [a0]

Properties computed using the B3LYP density matrix

 Multipole Moments:

 ------------------------------------------------------------------------------------
     Multipole            Electronic (a.u.)      Nuclear  (a.u.)        Total (a.u.)
 ------------------------------------------------------------------------------------

 L = 1.  Multiply by 2.5417464519 to convert [e a0] to [Debye]
 Dipole X            :          0.0000000            0.0000000            0.0000000
 Dipole Y            :          0.0000000            0.0000000            0.0000000
 Dipole Z            :          0.5147066           -0.0056450            0.5090616
 Magnitude           :                                                    0.5090616

 L = 2.  Multiply by 1.3450342976 to convert [e a0^2] to [Debye ang]
 Quadrupole XX       :         -6.3592431            0.0000000           -6.3592431
 Quadrupole XY       :          0.0000000            0.0000000            0.0000000
 Quadrupole XZ       :          0.0000000            0.0000000            0.0000000
 Quadrupole YY       :         -6.3592431            0.0000000           -6.3592431
 Quadrupole YZ       :          0.0000000            0.0000000            0.0000000
 Quadrupole ZZ       :        -33.5481930           29.5504265           -3.9977665
 Traceless XX        :          9.0629833           -9.8501422           -0.7871589
 Traceless YY        :          9.0629833           -9.8501422           -0.7871589
 Traceless ZZ        :        -18.1259666           19.7002843            1.5743177

 ------------------------------------------------------------------------------------
  ==> Computing MBIS Charges <==

  Electron Count from Grid (Expected Number): 14.00000 (14.00000)
  Difference: -0.00000

  MBIS Charges: (a.u.)
   Center  Symbol  Z      Pop.       Charge
      1       O    8    7.700468    0.299532
      2       N    7    6.299531    0.700469

  MBIS Dipoles: [e a0]
   Center  Symbol  Z        X           Y           Z
      1       O    8   -0.000000    0.000000   -0.193660
      2       N    7    0.000000   -0.000000    0.045316

  MBIS Quadrupoles: [e a0^2]
   Center  Symbol  Z      XX        XY        XZ        YY        YZ        ZZ
      1       O    8   -3.3304    0.0000    0.0000   -3.3304   -0.0000   -3.4122
      2       N    7   -3.0289   -0.0000    0.0000   -3.0289   -0.0000   -3.3231

  MBIS Octupoles: [e a0^3]
   Center  Symbol  Z      XXX       XXY       XXZ       XYY       XYZ       XZZ       YYY       YYZ       YZZ       ZZZ
      1       O    8   -0.0000   -0.0000   -0.1994   -0.0000    0.0000   -0.0000   -0.0000   -0.1994    0.0000   -0.5948
      2       N    7    0.0000    0.0000    0.1857    0.0000   -0.0000    0.0000   -0.0000    0.1857   -0.0000    0.4129

  MBIS Radial Moments:
   Center  Symbol  Z      [a0^2]      [a0^3]      [a0^4]
      1       O    8   10.072957   18.105415   38.963199
      2       N    7    9.380832   18.283167   42.541283

  MBIS Valence Widths: [a0]
   Center  Symbol  Z     Width
      1       O    8    0.374088
      2       N    7    0.413381

*** tstop() called on Mac.lan at Sun Aug 10 18:42:50 2025
Module time:
	user time   =       3.97 seconds =       0.07 minutes
	system time =       1.74 seconds =       0.03 minutes
	total time  =          1 seconds =       0.02 minutes
Total time:
	user time   =      16.59 seconds =       0.28 minutes
	system time =       3.72 seconds =       0.06 minutes
	total time  =          2 seconds =       0.03 minutes

    Psi4 stopped on: Sunday, 10 August 2025 06:42PM
    Psi4 wall time for execution: 0:00:01.97

*** Psi4 exiting successfully. Buy a developer a beer!
