                               Psi4 1.9.1 release

  ==> Input File <==

--------------------------------------------------------------------------
molecule {
1 3
O           0.000000           0.000000           0.000000
H           0.000000           0.000000           1.500275
}

set {
basis              cc-pvtz
reference          uks
maxiter            500
DAMPING_PERCENTAGE 1
E_CONVERGENCE      1.0E-8
D_CONVERGENCE      1.0E-8
DIIS_MAX_VECS      400
MBIS_MAXITER       8000
guess              read
}

E, wfn = energy('b3lyp', restart_file='last_wfn', return_wfn=True)
properties('b3lyp','MBIS_CHARGES', wfn=wfn)
wfn.to_file('last_wfn')
--------------------------------------------------------------------------

    Molecular point group: c2v
  Charge       = 1
  Multiplicity = 3
  Basis Set: CC-PVTZ
    Blend: CC-PVTZ
  Basis Set: (CC-PVTZ AUX)
    Blend: CC-PVTZ-JKFIT
  @DF-UKS Final Energy:   -75.23040972773049
    Total Energy =                        -75.2304097277304891
 Dipole X            :          0.0000000            0.0000000            0.0000000
 Dipole Y            :          0.0000000            0.0000000            0.0000000
 Dipole Z            :          0.1061475            1.3226677            1.4288153
 Magnitude           :                                                    1.4288153
    Molecular point group: c2v

    Geometry (in Angstrom), charge = 1, multiplicity = 3:

       Center              X                  Y                   Z               Mass
    ------------   -----------------  -----------------  -----------------  -----------------
         O            0.000000000000     0.000000000000    -0.088927709957    15.994914619570
         H            0.000000000000     0.000000000000     1.411347290043     1.007825032230

  Charge       = 1
  Multiplicity = 3
  Basis Set: CC-PVTZ
    Blend: CC-PVTZ
  Basis Set: (CC-PVTZ AUX)
    Blend: CC-PVTZ-JKFIT

    Orbital Energies [Eh]
    ---------------------

    Alpha Occupied:

       1A1   -19.762735     2A1    -1.464406     1B2    -0.886004
       1B1    -0.886004     3A1    -0.864990

    Alpha Virtual:

       4A1    -0.461957     5A1    -0.026688     2B1     0.136607
       2B2     0.136607     6A1     0.241263     3B1     0.339056
       3B2     0.339056     7A1     0.383939     8A1     0.669904
       9A1     0.982026     1A2     0.982026     4B1     1.090569
       4B2     1.090569    10A1     1.483867    11A1     2.000331
      12A1     2.673276    13A1     2.793439     2A2     2.793440
       5B2     2.825771     5B1     2.825771     6B2     3.084292
       6B1     3.084292     7B1     3.244178     7B2     3.244178
      14A1     3.352652    15A1     4.023046     8B1     4.561451
       8B2     4.561451     3A2     4.592631    16A1     4.592631
       9B2     4.767485     9B1     4.767485    17A1     5.109930
       4A2     5.565356    18A1     5.565360    10B1     5.759733
      10B2     5.759733    19A1     6.347580    20A1     6.942066

    Beta Occupied:

       1A1   -19.703618     2A1    -1.292582     3A1    -0.810149

    Beta Virtual:

       1B2    -0.583356     1B1    -0.583356     4A1    -0.470344
       5A1    -0.037677     2B2     0.177503     2B1     0.177503
       6A1     0.267150     3B2     0.358481     3B1     0.358481
       7A1     0.410775     8A1     0.703062     9A1     1.095704
       1A2     1.095704     4B2     1.148568     4B1     1.148568
      10A1     1.508650    11A1     1.962688    12A1     2.686959
       2A2     2.759954    13A1     2.759956     5B2     2.823195
       5B1     2.823195     6B1     3.198045     6B2     3.198045
       7B2     3.214283     7B1     3.214283    14A1     3.340522
      15A1     4.044181     3A2     4.696528    16A1     4.696528
       8B1     4.712666     8B2     4.712666     9B2     4.846773
       9B1     4.846773    17A1     5.172814     4A2     5.780478
      18A1     5.780482    10B1     5.881067    10B2     5.881067
      19A1     6.412746    20A1     7.062832

    Final Occupation by Irrep:
             A1    A2    B1    B2
    DOCC [     3,    0,    0,    0 ]
    SOCC [     0,    0,    1,    1 ]
    NA   [     3,    0,    1,    1 ]
    NB   [     3,    0,    0,    0 ]

  @DF-UKS Final Energy:   -75.23040972768212

   => Energetics <=

    Nuclear Repulsion Energy =              2.8217611340320961
    One-Electron Energy =                -105.5477486060950696
    Two-Electron Energy =                  34.2909687420687703
    DFT Exchange-Correlation Energy =      -6.7953909976879325
    Empirical Dispersion Energy =           0.0000000000000000
    VV10 Nonlocal Energy =                  0.0000000000000000
    Total Energy =                        -75.2304097276821295

  UHF NO Occupations:
  HONO-2 :    3 A1 1.9841560
  HONO-1 :    1 B1 1.0000000
  HONO-0 :    1 B2 1.0000000
  LUNO+0 :    4 A1 0.0158440
  LUNO+1 :    5 A1 0.0009077
  LUNO+2 :    6 A1 0.0000014
  LUNO+3 :    7 A1 0.0000000

Computation Completed

Properties will be evaluated at   0.000000,   0.000000,   0.000000 [a0]

Properties computed using the B3LYP density matrix

 Multipole Moments:

 ------------------------------------------------------------------------------------
     Multipole            Electronic (a.u.)      Nuclear  (a.u.)        Total (a.u.)
 ------------------------------------------------------------------------------------

 L = 1.  Multiply by 2.5417464519 to convert [e a0] to [Debye]
 Dipole X            :          0.0000000            0.0000000            0.0000000
 Dipole Y            :          0.0000000            0.0000000            0.0000000
 Dipole Z            :          0.1061475            1.3226677            1.4288153
 Magnitude           :                                                    1.4288153

 L = 2.  Multiply by 1.3450342976 to convert [e a0^2] to [Debye ang]
 Quadrupole XX       :         -3.2475271            0.0000000           -3.2475271
 Quadrupole XY       :          0.0000000            0.0000000            0.0000000
 Quadrupole XZ       :          0.0000000            0.0000000            0.0000000
 Quadrupole YY       :         -3.2475271            0.0000000           -3.2475271
 Quadrupole YZ       :          0.0000000            0.0000000            0.0000000
 Quadrupole ZZ       :         -6.4675628            7.3391320            0.8715692
 Traceless XX        :          1.0733452           -2.4463773           -1.3730321
 Traceless YY        :          1.0733452           -2.4463773           -1.3730321
 Traceless ZZ        :         -2.1466905            4.8927547            2.7460642

 ------------------------------------------------------------------------------------
  ==> Computing MBIS Charges <==

  Electron Count from Grid (Expected Number):  8.00000 ( 8.00000)
  Difference: -0.00000

  MBIS Charges: (a.u.)
   Center  Symbol  Z      Pop.       Charge
      1       O    8    7.591257    0.408743
      2       H    1    0.408743    0.591257

  MBIS Dipoles: [e a0]
   Center  Symbol  Z        X           Y           Z
      1       O    8   -0.000000    0.000000   -0.162406
      2       H    1    0.000000    0.000000    0.082991

  MBIS Quadrupoles: [e a0^2]
   Center  Symbol  Z      XX        XY        XZ        YY        YZ        ZZ
      1       O    8   -2.9804    0.0000    0.0000   -2.9804    0.0000   -3.5961
      2       H    1   -0.2671    0.0000   -0.0000   -0.2671    0.0000   -0.2469

  MBIS Octupoles: [e a0^3]
   Center  Symbol  Z      XXX       XXY       XXZ       XYY       XYZ       XZZ       YYY       YYZ       YZZ       ZZZ
      1       O    8   -0.0000   -0.0000   -0.1411   -0.0000    0.0000   -0.0000   -0.0000   -0.1411   -0.0000   -0.5628
      2       H    1    0.0000    0.0000    0.0468    0.0000    0.0000   -0.0000    0.0000    0.0468    0.0000    0.1237

  MBIS Radial Moments:
   Center  Symbol  Z      [a0^2]      [a0^3]      [a0^4]
      1       O    8    9.556892   16.852049   35.537767
      2       H    1    0.781143    1.498239    3.412171

  MBIS Valence Widths: [a0]
   Center  Symbol  Z     Width
      1       O    8    0.367501
      2       H    1    0.406338

*** tstop() called on Mac.lan at Sun Aug 10 18:30:45 2025
Module time:
	user time   =       6.42 seconds =       0.11 minutes
	system time =       1.65 seconds =       0.03 minutes
	total time  =          1 seconds =       0.02 minutes
Total time:
	user time   =      34.83 seconds =       0.58 minutes
	system time =       5.08 seconds =       0.08 minutes
	total time  =          5 seconds =       0.08 minutes

    Psi4 stopped on: Sunday, 10 August 2025 06:30PM
    Psi4 wall time for execution: 0:00:04.12

*** Psi4 exiting successfully. Buy a developer a beer!
