                               Psi4 1.9.1 release

  ==> Input File <==

--------------------------------------------------------------------------
molecule {
1 2
O           0.000000           0.000000           0.000000
O           0.000000           0.000000           1.456270
}

set {
basis              cc-pvtz
reference          uks
maxiter            500
DAMPING_PERCENTAGE 1
E_CONVERGENCE      1.0E-8
D_CONVERGENCE      1.0E-8
DIIS_MAX_VECS      400
MBIS_MAXITER       8000
guess              read
}

E, wfn = energy('b3lyp', restart_file='last_wfn', return_wfn=True)
properties('b3lyp','MBIS_CHARGES', wfn=wfn)
wfn.to_file('last_wfn')
--------------------------------------------------------------------------

    Molecular point group: d2h
  Charge       = 1
  Multiplicity = 2
  Basis Set: CC-PVTZ
    Blend: CC-PVTZ
  Basis Set: (CC-PVTZ AUX)
    Blend: CC-PVTZ-JKFIT
  @DF-UKS Final Energy:  -149.79718533191237
    Total Energy =                       -149.7971853319123738
 Dipole X            :          0.0000000            0.0000000            0.0000000
 Dipole Y            :          0.0000000            0.0000000            0.0000000
 Dipole Z            :          0.0000000            0.0000000            0.0000000
 Magnitude           :                                                    0.0000000
    Molecular point group: d2h

    Geometry (in Angstrom), charge = 1, multiplicity = 2:

       Center              X                  Y                   Z               Mass
    ------------   -----------------  -----------------  -----------------  -----------------
         O            0.000000000000     0.000000000000    -0.728135000000    15.994914619570
         O            0.000000000000     0.000000000000     0.728135000000    15.994914619570

  Charge       = 1
  Multiplicity = 2
  Basis Set: CC-PVTZ
    Blend: CC-PVTZ
  Basis Set: (CC-PVTZ AUX)
    Blend: CC-PVTZ-JKFIT

    Orbital Energies [Eh]
    ---------------------

    Alpha Occupied:

       1Ag   -19.821893     1B1u  -19.821788     2Ag    -1.598797
       2B1u   -1.332427     3Ag    -0.950146     1B3u   -0.938474
       1B2u   -0.891852     1B2g   -0.809293

    Alpha Virtual:

       1B3g   -0.689342     3B1u   -0.488493     2B3u    0.161764
       4B1u    0.163023     2B2u    0.168020     4Ag     0.255995
       2B2g    0.285641     2B3g    0.292130     5Ag     0.308018
       5B1u    0.789631     3B2u    0.792905     3B3u    0.795642
       1B1g    0.879645     6Ag     0.880939     1Au     1.128110
       6B1u    1.129630     7Ag     1.324424     3B2g    1.579498
       3B3g    1.580505     7B1u    1.850160     8Ag     2.940334
       4B3u    2.941422     4B2u    2.958177     4B2g    3.128734
       4B3g    3.144534     8B1u    3.824477     5B2u    4.196257
       5B3u    4.199538     9Ag     4.286560     2B1g    4.345226
      10Ag     4.346694     6B3u    4.552403     6B2u    4.552676
       5B2g    4.616570     5B3g    4.616849     2Au     4.827884
       9B1u    4.829478     6B2g    5.271447     6B3g    5.274618
       3B1g    5.537412    11Ag     5.541376    10B1u    5.546794
       7B3u    5.653824     7B2u    5.664050     3Au     5.693659
      11B1u    5.697547    12Ag     6.047883     7B2g    6.283041
       7B3g    6.287899    12B1u    6.532288    13Ag     6.942785
      13B1u    8.193265

    Beta Occupied:

       1Ag   -19.805858     1B1u  -19.805710     2Ag    -1.564551
       2B1u   -1.285430     3Ag    -0.933222     1B2u   -0.877760
       1B3u   -0.834365

    Beta Virtual:

       1B3g   -0.672419     1B2g   -0.624749     3B1u   -0.468172
       4B1u    0.168612     2B2u    0.172865     2B3u    0.194240
       4Ag     0.261932     2B3g    0.296710     2B2g    0.314998
       5Ag     0.317900     3B2u    0.794335     5B1u    0.804667
       3B3u    0.817822     6Ag     0.903610     1B1g    0.903754
       1Au     1.158344     6B1u    1.158560     7Ag     1.340423
       3B3g    1.584340     3B2g    1.610416     7B1u    1.860739
       8Ag     2.949444     4B2u    2.968783     4B3u    3.005821
       4B3g    3.156372     4B2g    3.196071     8B1u    3.840965
       5B2u    4.200412     5B3u    4.231222     9Ag     4.300013
       2B1g    4.369737    10Ag     4.374446     6B2u    4.590440
       6B3u    4.590483     5B3g    4.654769     5B2g    4.654792
       2Au     4.855219     9B1u    4.855228     6B3g    5.280511
       6B2g    5.313840    10B1u    5.562805    11Ag     5.595983
       3B1g    5.596291     7B2u    5.671243     7B3u    5.709750
       3Au     5.751018    11B1u    5.751492    12Ag     6.060692
       7B3g    6.293068     7B2g    6.328030    12B1u    6.553858
      13Ag     6.975366    13B1u    8.213911

    Final Occupation by Irrep:
             Ag   B1g   B2g   B3g    Au   B1u   B2u   B3u
    DOCC [     3,    0,    0,    0,    0,    2,    1,    1 ]
    SOCC [     0,    0,    1,    0,    0,    0,    0,    0 ]
    NA   [     3,    0,    1,    0,    0,    2,    1,    1 ]
    NB   [     3,    0,    0,    0,    0,    2,    1,    1 ]

  @DF-UKS Final Energy:  -149.79718533206153

   => Energetics <=

    Nuclear Repulsion Energy =             23.2562241087710468
    One-Electron Energy =                -245.3188879674979717
    Two-Electron Energy =                  85.4957187785839920
    DFT Exchange-Correlation Energy =     -13.2302402519185733
    Empirical Dispersion Energy =           0.0000000000000000
    VV10 Nonlocal Energy =                  0.0000000000000000
    Total Energy =                       -149.7971853320615310

  UHF NO Occupations:
  HONO-2 :    2B1u 1.9997531
  HONO-1 :    1B3u 1.9986519
  HONO-0 :    1B2g 1.0000000
  LUNO+0 :    2B3u 0.0013481
  LUNO+1 :    3B1u 0.0002469
  LUNO+2 :    4 Ag 0.0001493
  LUNO+3 :    2B2u 0.0000406

Computation Completed

Properties will be evaluated at   0.000000,   0.000000,   0.000000 [a0]

Properties computed using the B3LYP density matrix

 Multipole Moments:

 ------------------------------------------------------------------------------------
     Multipole            Electronic (a.u.)      Nuclear  (a.u.)        Total (a.u.)
 ------------------------------------------------------------------------------------

 L = 1.  Multiply by 2.5417464519 to convert [e a0] to [Debye]
 Dipole X            :          0.0000000            0.0000000            0.0000000
 Dipole Y            :          0.0000000            0.0000000            0.0000000
 Dipole Z            :          0.0000000            0.0000000            0.0000000
 Magnitude           :                                                    0.0000000

 L = 2.  Multiply by 1.3450342976 to convert [e a0^2] to [Debye ang]
 Quadrupole XX       :         -6.5272377            0.0000000           -6.5272377
 Quadrupole XY       :          0.0000000            0.0000000            0.0000000
 Quadrupole XZ       :          0.0000000            0.0000000            0.0000000
 Quadrupole YY       :         -5.9760633            0.0000000           -5.9760633
 Quadrupole YZ       :          0.0000000            0.0000000            0.0000000
 Quadrupole ZZ       :        -34.0871540           30.2929475           -3.7942065
 Traceless XX        :          9.0029140          -10.0976492           -1.0947352
 Traceless YY        :          9.5540884          -10.0976492           -0.5435608
 Traceless ZZ        :        -18.5570023           20.1952983            1.6382960

 ------------------------------------------------------------------------------------
  ==> Computing MBIS Charges <==

  Electron Count from Grid (Expected Number): 15.00000 (15.00000)
  Difference: -0.00000

  MBIS Charges: (a.u.)
   Center  Symbol  Z      Pop.       Charge
      1       O    8    7.499999    0.500001
      2       O    8    7.499999    0.500001

  MBIS Dipoles: [e a0]
   Center  Symbol  Z        X           Y           Z
      1       O    8   -0.000000    0.000000   -0.103143
      2       O    8   -0.000000    0.000000    0.103143

  MBIS Quadrupoles: [e a0^2]
   Center  Symbol  Z      XX        XY        XZ        YY        YZ        ZZ
      1       O    8   -3.2636    0.0000    0.0000   -2.9880    0.0000   -3.1276
      2       O    8   -3.2636    0.0000   -0.0000   -2.9880   -0.0000   -3.1276

  MBIS Octupoles: [e a0^3]
   Center  Symbol  Z      XXX       XXY       XXZ       XYY       XYZ       XZZ       YYY       YYZ       YZZ       ZZZ
      1       O    8   -0.0000   -0.0000   -0.1036    0.0000    0.0000    0.0000    0.0000   -0.1565    0.0000   -0.4510
      2       O    8   -0.0000    0.0000    0.1036    0.0000    0.0000    0.0000    0.0000    0.1565    0.0000    0.4510

  MBIS Radial Moments:
   Center  Symbol  Z      [a0^2]      [a0^3]      [a0^4]
      1       O    8    9.379253   16.553553   35.081955
      2       O    8    9.379253   16.553553   35.081955

  MBIS Valence Widths: [a0]
   Center  Symbol  Z     Width
      1       O    8    0.366703
      2       O    8    0.366703

*** tstop() called on Mac.lan at Sun Aug 10 18:14:01 2025
Module time:
	user time   =       3.54 seconds =       0.06 minutes
	system time =       2.43 seconds =       0.04 minutes
	total time  =          1 seconds =       0.02 minutes
Total time:
	user time   =      15.46 seconds =       0.26 minutes
	system time =       3.48 seconds =       0.06 minutes
	total time  =          2 seconds =       0.03 minutes

    Psi4 stopped on: Sunday, 10 August 2025 06:14PM
    Psi4 wall time for execution: 0:00:01.86

*** Psi4 exiting successfully. Buy a developer a beer!
