                               Psi4 1.9.1 release

  ==> Input File <==

--------------------------------------------------------------------------
molecule {
1 2
O           0.000000           0.000000           0.000000
O           0.000000           0.000000           1.476590
}

set {
basis              cc-pvtz
reference          uks
maxiter            500
DAMPING_PERCENTAGE 1
E_CONVERGENCE      1.0E-8
D_CONVERGENCE      1.0E-8
DIIS_MAX_VECS      400
MBIS_MAXITER       8000
guess              read
}

E, wfn = energy('b3lyp', restart_file='last_wfn', return_wfn=True)
properties('b3lyp','MBIS_CHARGES', wfn=wfn)
wfn.to_file('last_wfn')
--------------------------------------------------------------------------

    Molecular point group: d2h
  Charge       = 1
  Multiplicity = 2
  Basis Set: CC-PVTZ
    Blend: CC-PVTZ
  Basis Set: (CC-PVTZ AUX)
    Blend: CC-PVTZ-JKFIT
  @DF-UKS Final Energy:  -149.78765104929687
    Total Energy =                       -149.7876510492968407
 Dipole X            :          0.0000000            0.0000000            0.0000000
 Dipole Y            :          0.0000000            0.0000000            0.0000000
 Dipole Z            :          0.0000000            0.0000000            0.0000000
 Magnitude           :                                                    0.0000000
    Molecular point group: d2h

    Geometry (in Angstrom), charge = 1, multiplicity = 2:

       Center              X                  Y                   Z               Mass
    ------------   -----------------  -----------------  -----------------  -----------------
         O            0.000000000000     0.000000000000    -0.738295000000    15.994914619570
         O            0.000000000000     0.000000000000     0.738295000000    15.994914619570

  Charge       = 1
  Multiplicity = 2
  Basis Set: CC-PVTZ
    Blend: CC-PVTZ
  Basis Set: (CC-PVTZ AUX)
    Blend: CC-PVTZ-JKFIT

    Orbital Energies [Eh]
    ---------------------

    Alpha Occupied:

       1Ag   -19.821200     1B1u  -19.821100     2Ag    -1.588221
       2B1u   -1.335785     3Ag    -0.945883     1B3u   -0.933536
       1B2u   -0.886452     1B2g   -0.811191

    Alpha Virtual:

       1B3g   -0.691696     3B1u   -0.501132     2B3u    0.161874
       4B1u    0.164722     2B2u    0.168272     4Ag     0.258061
       2B2g    0.285873     2B3g    0.292321     5Ag     0.310983
       5B1u    0.783537     3B2u    0.791345     3B3u    0.794061
       1B1g    0.886294     6Ag     0.887589     1Au     1.123582
       6B1u    1.125093     7Ag     1.294903     3B2g    1.564304
       3B3g    1.565320     7B1u    1.859477     8Ag     2.931948
       4B3u    2.945926     4B2u    2.962645     4B2g    3.124854
       4B3g    3.140709     8B1u    3.785150     5B2u    4.205817
       5B3u    4.208930     9Ag     4.291437     2B1g    4.364702
      10Ag     4.366168     6B3u    4.557900     6B2u    4.558171
       5B2g    4.614577     5B3g    4.614854     2Au     4.807421
       9B1u    4.809002     6B2g    5.229179     6B3g    5.231930
      10B1u    5.506413     3B1g    5.538734    11Ag     5.542683
       7B3u    5.641317     7B2u    5.651661     3Au     5.689777
      11B1u    5.693659    12Ag     6.023852     7B2g    6.256770
       7B3g    6.262157    12B1u    6.609687    13Ag     6.919062
      13B1u    8.041110

    Beta Occupied:

       1Ag   -19.805206     1B1u  -19.805066     2Ag    -1.553652
       2B1u   -1.288839     3Ag    -0.929189     1B2u   -0.872348
       1B3u   -0.829012

    Beta Virtual:

       1B3g   -0.674841     1B2g   -0.627278     3B1u   -0.481049
       4B1u    0.170339     2B2u    0.173135     2B3u    0.194550
       4Ag     0.264230     2B3g    0.296893     2B2g    0.315174
       5Ag     0.320764     3B2u    0.792779     5B1u    0.798487
       3B3u    0.815994     6Ag     0.910374     1B1g    0.910554
       1Au     1.153705     6B1u    1.153923     7Ag     1.310734
       3B3g    1.569148     3B2g    1.595173     7B1u    1.870237
       8Ag     2.941000     4B2u    2.973258     4B3u    3.010261
       4B3g    3.152504     4B2g    3.192068     8B1u    3.801521
       5B2u    4.209973     5B3u    4.240747     9Ag     4.305589
       2B1g    4.389372    10Ag     4.393376     6B2u    4.595931
       6B3u    4.595974     5B3g    4.652702     5B2g    4.652725
       9B1u    4.834593     2Au     4.834608     6B3g    5.237693
       6B2g    5.270633    10B1u    5.522532    11Ag     5.597144
       3B1g    5.597494     7B2u    5.658884     7B3u    5.697314
       3Au     5.747153    11B1u    5.747518    12Ag     6.036669
       7B3g    6.267475     7B2g    6.302636    12B1u    6.630955
      13Ag     6.951848    13B1u    8.061985

    Final Occupation by Irrep:
             Ag   B1g   B2g   B3g    Au   B1u   B2u   B3u
    DOCC [     3,    0,    0,    0,    0,    2,    1,    1 ]
    SOCC [     0,    0,    1,    0,    0,    0,    0,    0 ]
    NA   [     3,    0,    1,    0,    0,    2,    1,    1 ]
    NB   [     3,    0,    0,    0,    0,    2,    1,    1 ]

  @DF-UKS Final Energy:  -149.78765104948252

   => Energetics <=

    Nuclear Repulsion Energy =             22.9361850499326145
    One-Electron Energy =                -244.7092269313756674
    Two-Electron Energy =                  85.2085639764806473
    DFT Exchange-Correlation Energy =     -13.2231731445201390
    Empirical Dispersion Energy =           0.0000000000000000
    VV10 Nonlocal Energy =                  0.0000000000000000
    Total Energy =                       -149.7876510494825482

  UHF NO Occupations:
  HONO-2 :    2B1u 1.9997582
  HONO-1 :    1B3u 1.9986316
  HONO-0 :    1B2g 1.0000000
  LUNO+0 :    2B3u 0.0013684
  LUNO+1 :    3B1u 0.0002418
  LUNO+2 :    4 Ag 0.0001498
  LUNO+3 :    2B2u 0.0000409

Computation Completed

Properties will be evaluated at   0.000000,   0.000000,   0.000000 [a0]

Properties computed using the B3LYP density matrix

 Multipole Moments:

 ------------------------------------------------------------------------------------
     Multipole            Electronic (a.u.)      Nuclear  (a.u.)        Total (a.u.)
 ------------------------------------------------------------------------------------

 L = 1.  Multiply by 2.5417464519 to convert [e a0] to [Debye]
 Dipole X            :          0.0000000            0.0000000            0.0000000
 Dipole Y            :          0.0000000            0.0000000            0.0000000
 Dipole Z            :          0.0000000            0.0000000            0.0000000
 Magnitude           :                                                    0.0000000

 L = 2.  Multiply by 1.3450342976 to convert [e a0^2] to [Debye ang]
 Quadrupole XX       :         -6.5427650            0.0000000           -6.5427650
 Quadrupole XY       :          0.0000000            0.0000000            0.0000000
 Quadrupole XZ       :          0.0000000            0.0000000            0.0000000
 Quadrupole YY       :         -5.9903755            0.0000000           -5.9903755
 Quadrupole YZ       :          0.0000000            0.0000000            0.0000000
 Quadrupole ZZ       :        -34.8579335           31.1442281           -3.7137053
 Traceless XX        :          9.2542597          -10.3814094           -1.1271497
 Traceless YY        :          9.8066491          -10.3814094           -0.5747603
 Traceless ZZ        :        -19.0609088           20.7628187            1.7019099

 ------------------------------------------------------------------------------------
  ==> Computing MBIS Charges <==

  Electron Count from Grid (Expected Number): 15.00000 (15.00000)
  Difference: -0.00000

  MBIS Charges: (a.u.)
   Center  Symbol  Z      Pop.       Charge
      1       O    8    7.499999    0.500001
      2       O    8    7.499999    0.500001

  MBIS Dipoles: [e a0]
   Center  Symbol  Z        X           Y           Z
      1       O    8   -0.000000    0.000000   -0.107743
      2       O    8   -0.000000   -0.000000    0.107743

  MBIS Quadrupoles: [e a0^2]
   Center  Symbol  Z      XX        XY        XZ        YY        YZ        ZZ
      1       O    8   -3.2714    0.0000    0.0000   -2.9952    0.0000   -3.1308
      2       O    8   -3.2714    0.0000   -0.0000   -2.9952   -0.0000   -3.1308

  MBIS Octupoles: [e a0^3]
   Center  Symbol  Z      XXX       XXY       XXZ       XYY       XYZ       XZZ       YYY       YYZ       YZZ       ZZZ
      1       O    8   -0.0000    0.0000   -0.1094    0.0000    0.0000   -0.0000    0.0000   -0.1612    0.0000   -0.4621
      2       O    8   -0.0000   -0.0000    0.1094    0.0000   -0.0000    0.0000    0.0000    0.1612    0.0000    0.4621

  MBIS Radial Moments:
   Center  Symbol  Z      [a0^2]      [a0^3]      [a0^4]
      1       O    8    9.397322   16.608845   35.251370
      2       O    8    9.397322   16.608845   35.251370

  MBIS Valence Widths: [a0]
   Center  Symbol  Z     Width
      1       O    8    0.367043
      2       O    8    0.367043

*** tstop() called on Mac.lan at Sun Aug 10 18:14:03 2025
Module time:
	user time   =       4.16 seconds =       0.07 minutes
	system time =       2.12 seconds =       0.04 minutes
	total time  =          0 seconds =       0.00 minutes
Total time:
	user time   =      15.69 seconds =       0.26 minutes
	system time =       3.87 seconds =       0.06 minutes
	total time  =          2 seconds =       0.03 minutes

    Psi4 stopped on: Sunday, 10 August 2025 06:14PM
    Psi4 wall time for execution: 0:00:01.92

*** Psi4 exiting successfully. Buy a developer a beer!
