                               Psi4 1.9.1 release

  ==> Input File <==

--------------------------------------------------------------------------
molecule {
1 2
H           0.000000           0.000000           0.000000
H           0.000000           0.000000           1.036489
}

set {
basis              cc-pvtz
reference          uks
maxiter            500
DAMPING_PERCENTAGE 1
E_CONVERGENCE      1.0E-8
D_CONVERGENCE      1.0E-8
DIIS_MAX_VECS      400
MBIS_MAXITER       8000
guess              read
}

E, wfn = energy('b3lyp', restart_file='last_wfn', return_wfn=True)
properties('b3lyp','MBIS_CHARGES', wfn=wfn)
wfn.to_file('last_wfn')
--------------------------------------------------------------------------

    Molecular point group: d2h
  Charge       = 1
  Multiplicity = 2
  Basis Set: CC-PVTZ
    Blend: CC-PVTZ
  Basis Set: (CC-PVTZ AUX)
    Blend: CC-PVTZ-JKFIT
  @DF-UKS Final Energy:    -0.60930861962348
    Total Energy =                         -0.6093086196234756
 Dipole X            :          0.0000000            0.0000000            0.0000000
 Dipole Y            :          0.0000000            0.0000000            0.0000000
 Dipole Z            :          0.0000000            0.0000000            0.0000000
 Magnitude           :                                                    0.0000000
    Molecular point group: d2h

    Geometry (in Angstrom), charge = 1, multiplicity = 2:

       Center              X                  Y                   Z               Mass
    ------------   -----------------  -----------------  -----------------  -----------------
         H            0.000000000000     0.000000000000    -0.518244500000     1.007825032230
         H            0.000000000000     0.000000000000     0.518244500000     1.007825032230

  Charge       = 1
  Multiplicity = 2
  Basis Set: CC-PVTZ
    Blend: CC-PVTZ
  Basis Set: (CC-PVTZ AUX)
    Blend: CC-PVTZ-JKFIT

    Orbital Energies [Eh]
    ---------------------

    Alpha Occupied:

       1Ag    -0.926322

    Alpha Virtual:

       1B1u   -0.417970     2Ag    -0.094604     2B1u    0.038924
       1B2u    0.055982     1B3u    0.055982     3Ag     0.391315
       1B2g    0.470576     1B3g    0.470576     3B1u    0.907822
       4Ag     1.689622     4B1u    1.814244     2B3u    2.361471
       2B2u    2.361471     5Ag     2.433697     1B1g    2.433697
       6Ag     2.520494     5B1u    3.012492     1Au     3.012492
       3B3u    3.093115     3B2u    3.093115     2B2g    3.164777
       2B3g    3.164777     6B1u    3.305664     3B2g    4.004930
       3B3g    4.004930     7Ag     4.073844     7B1u    5.246241

    Beta Occupied:

    Beta Virtual:

       1Ag    -0.569467     1B1u   -0.237383     2Ag    -0.004086
       2B1u    0.159948     1B3u    0.197949     1B2u    0.197949
       3Ag     0.525546     1B2g    0.583058     1B3g    0.583058
       3B1u    1.018498     4Ag     1.982083     4B1u    2.102060
       2B3u    2.585406     2B2u    2.585406     5Ag     2.623881
       1B1g    2.623882     6Ag     2.803326     5B1u    3.197487
       1Au     3.197488     3B2u    3.332288     3B3u    3.332288
       2B3g    3.411532     2B2g    3.411532     6B1u    3.513922
       3B2g    4.207866     3B3g    4.207866     7Ag     4.299972
       7B1u    5.513183

    Final Occupation by Irrep:
             Ag   B1g   B2g   B3g    Au   B1u   B2u   B3u
    DOCC [     0,    0,    0,    0,    0,    0,    0,    0 ]
    SOCC [     1,    0,    0,    0,    0,    0,    0,    0 ]
    NA   [     1,    0,    0,    0,    0,    0,    0,    0 ]
    NB   [     0,    0,    0,    0,    0,    0,    0,    0 ]

  @DF-UKS Final Energy:    -0.60930861966879

   => Energetics <=

    Nuclear Repulsion Energy =              0.5105478308694062
    One-Electron Energy =                  -1.1118467495669573
    Two-Electron Energy =                   0.2674174864666117
    DFT Exchange-Correlation Energy =      -0.2754271874378513
    Empirical Dispersion Energy =           0.0000000000000000
    VV10 Nonlocal Energy =                  0.0000000000000000
    Total Energy =                         -0.6093086196687907

  UHF NO Occupations:
  HONO-0 :    1 Ag 1.0000000
  LUNO+0 :    2 Ag 0.0000000
  LUNO+1 :    3 Ag 0.0000000
  LUNO+2 :    4 Ag 0.0000000
  LUNO+3 :    3B3u 0.0000000

Computation Completed

Properties will be evaluated at   0.000000,   0.000000,   0.000000 [a0]

Properties computed using the B3LYP density matrix

 Multipole Moments:

 ------------------------------------------------------------------------------------
     Multipole            Electronic (a.u.)      Nuclear  (a.u.)        Total (a.u.)
 ------------------------------------------------------------------------------------

 L = 1.  Multiply by 2.5417464519 to convert [e a0] to [Debye]
 Dipole X            :          0.0000000            0.0000000            0.0000000
 Dipole Y            :          0.0000000            0.0000000            0.0000000
 Dipole Z            :          0.0000000            0.0000000            0.0000000
 Magnitude           :                                                    0.0000000

 L = 2.  Multiply by 1.3450342976 to convert [e a0^2] to [Debye ang]
 Quadrupole XX       :         -0.6206237            0.0000000           -0.6206237
 Quadrupole XY       :          0.0000000            0.0000000            0.0000000
 Quadrupole XZ       :          0.0000000            0.0000000            0.0000000
 Quadrupole YY       :         -0.6206237            0.0000000           -0.6206237
 Quadrupole YZ       :          0.0000000            0.0000000            0.0000000
 Quadrupole ZZ       :         -1.1272616            1.9182143            0.7909527
 Traceless XX        :          0.1688793           -0.6394048           -0.4705255
 Traceless YY        :          0.1688793           -0.6394048           -0.4705255
 Traceless ZZ        :         -0.3377586            1.2788096            0.9410509

 ------------------------------------------------------------------------------------
  ==> Computing MBIS Charges <==

  Electron Count from Grid (Expected Number):  1.00000 ( 1.00000)
  Difference: -0.00000

  MBIS Charges: (a.u.)
   Center  Symbol  Z      Pop.       Charge
      1       H    1    0.500000    0.500000
      2       H    1    0.500000    0.500000

  MBIS Dipoles: [e a0]
   Center  Symbol  Z        X           Y           Z
      1       H    1   -0.000000    0.000000   -0.104673
      2       H    1   -0.000000    0.000000    0.104673

  MBIS Quadrupoles: [e a0^2]
   Center  Symbol  Z      XX        XY        XZ        YY        YZ        ZZ
      1       H    1   -0.3103   -0.0000    0.0000   -0.3103   -0.0000   -0.2891
      2       H    1   -0.3103   -0.0000   -0.0000   -0.3103    0.0000   -0.2891

  MBIS Octupoles: [e a0^3]
   Center  Symbol  Z      XXX       XXY       XXZ       XYY       XYZ       XZZ       YYY       YYZ       YZZ       ZZZ
      1       H    1   -0.0000    0.0000   -0.0688   -0.0000    0.0000   -0.0000    0.0000   -0.0688    0.0000   -0.1356
      2       H    1   -0.0000    0.0000    0.0688   -0.0000   -0.0000   -0.0000    0.0000    0.0688    0.0000    0.1356

  MBIS Radial Moments:
   Center  Symbol  Z      [a0^2]      [a0^3]      [a0^4]
      1       H    1    0.909722    1.701501    3.778770
      2       H    1    0.909722    1.701501    3.778770

  MBIS Valence Widths: [a0]
   Center  Symbol  Z     Width
      1       H    1    0.396401
      2       H    1    0.396401

*** tstop() called on Mac.lan at Sun Aug 10 18:11:12 2025
Module time:
	user time   =       0.53 seconds =       0.01 minutes
	system time =       1.34 seconds =       0.02 minutes
	total time  =          0 seconds =       0.00 minutes
Total time:
	user time   =       1.67 seconds =       0.03 minutes
	system time =       3.00 seconds =       0.05 minutes
	total time  =          1 seconds =       0.02 minutes

    Psi4 stopped on: Sunday, 10 August 2025 06:11PM
    Psi4 wall time for execution: 0:00:00.60

*** Psi4 exiting successfully. Buy a developer a beer!
