                               Psi4 1.9.1 release

  ==> Input File <==

--------------------------------------------------------------------------
molecule {
1 2
H           0.000000           0.000000           0.000000
H           0.000000           0.000000           0.811462
}

set {
basis              cc-pvtz
reference          uks
maxiter            500
DAMPING_PERCENTAGE 1
E_CONVERGENCE      1.0E-8
D_CONVERGENCE      1.0E-8
DIIS_MAX_VECS      400
MBIS_MAXITER       8000
guess              read
}

E, wfn = energy('b3lyp', restart_file='last_wfn', return_wfn=True)
properties('b3lyp','MBIS_CHARGES', wfn=wfn)
wfn.to_file('last_wfn')
--------------------------------------------------------------------------

    Molecular point group: d2h
  Charge       = 1
  Multiplicity = 2
  Basis Set: CC-PVTZ
    Blend: CC-PVTZ
  Basis Set: (CC-PVTZ AUX)
    Blend: CC-PVTZ-JKFIT
  @DF-UKS Final Energy:    -0.58843168592225
    Total Energy =                         -0.5884316859222485
 Dipole X            :          0.0000000            0.0000000            0.0000000
 Dipole Y            :          0.0000000            0.0000000            0.0000000
 Dipole Z            :          0.0000000            0.0000000            0.0000000
 Magnitude           :                                                    0.0000000
    Molecular point group: d2h

    Geometry (in Angstrom), charge = 1, multiplicity = 2:

       Center              X                  Y                   Z               Mass
    ------------   -----------------  -----------------  -----------------  -----------------
         H            0.000000000000     0.000000000000    -0.405731000000     1.007825032230
         H            0.000000000000     0.000000000000     0.405731000000     1.007825032230

  Charge       = 1
  Multiplicity = 2
  Basis Set: CC-PVTZ
    Blend: CC-PVTZ
  Basis Set: (CC-PVTZ AUX)
    Blend: CC-PVTZ-JKFIT

    Orbital Energies [Eh]
    ---------------------

    Alpha Occupied:

       1Ag    -1.023119

    Alpha Virtual:

       1B1u   -0.349159     2Ag    -0.116352     1B3u    0.041268
       1B2u    0.041268     2B1u    0.071016     3Ag     0.472151
       1B2g    0.516101     1B3g    0.516101     3B1u    0.985613
       4B1u    1.537068     4Ag     1.557602     5Ag     2.328691
       1B1g    2.328691     2B2u    2.433501     2B3u    2.433501
       6Ag     2.738564     2B2g    3.107925     2B3g    3.107925
       5B1u    3.192130     1Au     3.192130     3B2u    3.201156
       3B3u    3.201156     6B1u    3.616195     3B2g    4.577649
       3B3g    4.577649     7Ag     4.621152     7B1u    5.617568

    Beta Occupied:

    Beta Virtual:

       1Ag    -0.625002     1B1u   -0.201453     2Ag    -0.028038
       1B3u    0.186470     1B2u    0.186470     2B1u    0.203146
       3Ag     0.593463     1B3g    0.619594     1B2g    0.619594
       3B1u    1.061722     4B1u    1.810386     4Ag     1.849751
       1B1g    2.528492     5Ag     2.528493     2B3u    2.699087
       2B2u    2.699087     6Ag     3.009904     2B3g    3.331667
       2B2g    3.331667     1Au     3.377344     5B1u    3.377344
       3B3u    3.417879     3B2u    3.417879     6B1u    3.825728
       3B3g    4.804543     3B2g    4.804543     7Ag     4.872992
       7B1u    5.965899

    Final Occupation by Irrep:
             Ag   B1g   B2g   B3g    Au   B1u   B2u   B3u
    DOCC [     0,    0,    0,    0,    0,    0,    0,    0 ]
    SOCC [     1,    0,    0,    0,    0,    0,    0,    0 ]
    NA   [     1,    0,    0,    0,    0,    0,    0,    0 ]
    NB   [     0,    0,    0,    0,    0,    0,    0,    0 ]

  @DF-UKS Final Energy:    -0.58843168597396

   => Energetics <=

    Nuclear Repulsion Energy =              0.6521281473069596
    One-Electron Energy =                  -1.2366756492562705
    Two-Electron Energy =                   0.2992247027032019
    DFT Exchange-Correlation Energy =      -0.3031088867278510
    Empirical Dispersion Energy =           0.0000000000000000
    VV10 Nonlocal Energy =                  0.0000000000000000
    Total Energy =                         -0.5884316859739600

  UHF NO Occupations:
  HONO-0 :    1 Ag 1.0000000
  LUNO+0 :    2 Ag 0.0000000
  LUNO+1 :    3 Ag 0.0000000
  LUNO+2 :    3B3u 0.0000000
  LUNO+3 :    2B3u 0.0000000

Computation Completed

Properties will be evaluated at   0.000000,   0.000000,   0.000000 [a0]

Properties computed using the B3LYP density matrix

 Multipole Moments:

 ------------------------------------------------------------------------------------
     Multipole            Electronic (a.u.)      Nuclear  (a.u.)        Total (a.u.)
 ------------------------------------------------------------------------------------

 L = 1.  Multiply by 2.5417464519 to convert [e a0] to [Debye]
 Dipole X            :          0.0000000            0.0000000            0.0000000
 Dipole Y            :          0.0000000            0.0000000            0.0000000
 Dipole Z            :          0.0000000            0.0000000            0.0000000
 Magnitude           :                                                    0.0000000

 L = 2.  Multiply by 1.3450342976 to convert [e a0^2] to [Debye ang]
 Quadrupole XX       :         -0.5414628            0.0000000           -0.5414628
 Quadrupole XY       :          0.0000000            0.0000000            0.0000000
 Quadrupole XZ       :          0.0000000            0.0000000            0.0000000
 Quadrupole YY       :         -0.5414628            0.0000000           -0.5414628
 Quadrupole YZ       :          0.0000000            0.0000000            0.0000000
 Quadrupole ZZ       :         -0.8179502            1.1757206            0.3577703
 Traceless XX        :          0.0921625           -0.3919069           -0.2997444
 Traceless YY        :          0.0921625           -0.3919069           -0.2997444
 Traceless ZZ        :         -0.1843250            0.7838137            0.5994888

 ------------------------------------------------------------------------------------
  ==> Computing MBIS Charges <==

  Electron Count from Grid (Expected Number):  1.00000 ( 1.00000)
  Difference:  0.00000

  MBIS Charges: (a.u.)
   Center  Symbol  Z      Pop.       Charge
      1       H    1    0.500000    0.500000
      2       H    1    0.500000    0.500000

  MBIS Dipoles: [e a0]
   Center  Symbol  Z        X           Y           Z
      1       H    1   -0.000000   -0.000000   -0.078449
      2       H    1   -0.000000    0.000000    0.078449

  MBIS Quadrupoles: [e a0^2]
   Center  Symbol  Z      XX        XY        XZ        YY        YZ        ZZ
      1       H    1   -0.2707    0.0000   -0.0000   -0.2707   -0.0000   -0.2353
      2       H    1   -0.2707   -0.0000    0.0000   -0.2707    0.0000   -0.2353

  MBIS Octupoles: [e a0^3]
   Center  Symbol  Z      XXX       XXY       XXZ       XYY       XYZ       XZZ       YYY       YYZ       YZZ       ZZZ
      1       H    1   -0.0000    0.0000   -0.0442   -0.0000   -0.0000    0.0000   -0.0000   -0.0442    0.0000   -0.0802
      2       H    1    0.0000   -0.0000    0.0442    0.0000    0.0000   -0.0000    0.0000    0.0442    0.0000    0.0802

  MBIS Radial Moments:
   Center  Symbol  Z      [a0^2]      [a0^3]      [a0^4]
      1       H    1    0.776805    1.352107    2.797587
      2       H    1    0.776805    1.352107    2.797587

  MBIS Valence Widths: [a0]
   Center  Symbol  Z     Width
      1       H    1    0.365272
      2       H    1    0.365272

*** tstop() called on Mac.lan at Sun Aug 10 18:11:25 2025
Module time:
	user time   =       0.60 seconds =       0.01 minutes
	system time =       1.41 seconds =       0.02 minutes
	total time  =          1 seconds =       0.02 minutes
Total time:
	user time   =       1.41 seconds =       0.02 minutes
	system time =       3.63 seconds =       0.06 minutes
	total time  =          1 seconds =       0.02 minutes

    Psi4 stopped on: Sunday, 10 August 2025 06:11PM
    Psi4 wall time for execution: 0:00:00.74

*** Psi4 exiting successfully. Buy a developer a beer!
