                               Psi4 1.9.1 release

  ==> Input File <==

--------------------------------------------------------------------------
molecule {
1 2
O           0.000000           0.000000           0.000000
C           0.000000           0.000000           0.767933
}

set {
basis              cc-pvtz
reference          uks
maxiter            500
DAMPING_PERCENTAGE 1
E_CONVERGENCE      1.0E-8
D_CONVERGENCE      1.0E-8
DIIS_MAX_VECS      400
MBIS_MAXITER       8000
guess              read
}

E, wfn = energy('b3lyp', restart_file='last_wfn', return_wfn=True)
properties('b3lyp','MBIS_CHARGES', wfn=wfn)
wfn.to_file('last_wfn')
--------------------------------------------------------------------------

    Molecular point group: c2v
  Charge       = 1
  Multiplicity = 2
  Basis Set: CC-PVTZ
    Blend: CC-PVTZ
  Basis Set: (CC-PVTZ AUX)
    Blend: CC-PVTZ-JKFIT
  @DF-UKS Final Energy:  -112.12441710406689
    Total Energy =                       -112.1244171040668931
 Dipole X            :          0.0000000            0.0000000            0.0000000
 Dipole Y            :          0.0000000            0.0000000            0.0000000
 Dipole Z            :          0.7903354           -0.0015817            0.7887537
 Magnitude           :                                                    0.7887537
    Molecular point group: c2v

    Geometry (in Angstrom), charge = 1, multiplicity = 2:

       Center              X                  Y                   Z               Mass
    ------------   -----------------  -----------------  -----------------  -----------------
         O            0.000000000000     0.000000000000    -0.329173927666    15.994914619570
         C            0.000000000000     0.000000000000     0.438759072334    12.000000000000

  Charge       = 1
  Multiplicity = 2
  Basis Set: CC-PVTZ
    Blend: CC-PVTZ
  Basis Set: (CC-PVTZ AUX)
    Blend: CC-PVTZ-JKFIT

    Orbital Energies [Eh]
    ---------------------

    Alpha Occupied:

       1A1   -19.608274     2A1   -10.723235     3A1    -1.734624
       1B1    -1.060680     1B2    -1.060680     4A1    -0.929323
       5A1    -0.867194

    Alpha Virtual:

       2B1    -0.248634     2B2    -0.248634     6A1    -0.098138
       7A1    -0.026735     3B1    -0.022425     3B2    -0.022425
       8A1     0.242864     1A2     0.264979     9A1     0.264979
       4B2     0.324361     4B1     0.324361    10A1     0.502142
       5B2     0.657599     5B1     0.657599    11A1     0.950527
      12A1     1.260549     2A2     1.260549     6B2     1.275225
       6B1     1.275225    13A1     1.368222    14A1     1.793789
       7B2     1.854841     7B1     1.854841     8B1     2.201884
       8B2     2.201884    15A1     2.322425     3A2     2.400718
      16A1     2.400718     9B2     2.566678     9B1     2.566678
       4A2     2.703279    17A1     2.703279    18A1     2.706453
      10B2     3.440582    10B1     3.440582    19A1     3.791617
      11B2     3.838839    11B1     3.838839    12B2     4.841268
      12B1     4.841268    20A1     5.334116    21A1     5.796183
       5A2     5.796184    22A1     5.951244     6A2     5.951245
      23A1     6.126426    13B2     6.165422    13B1     6.165422
      24A1     6.855569    14B2     7.116058    14B1     7.116058
      25A1     9.453118    26A1    16.532856

    Beta Occupied:

       1A1   -19.608195     2A1   -10.698755     3A1    -1.728769
       1B1    -1.049982     1B2    -1.049982     4A1    -0.928118

    Beta Virtual:

       5A1    -0.622752     2B1    -0.207799     2B2    -0.207799
       6A1    -0.086559     3B1    -0.007569     3B2    -0.007569
       7A1     0.013467     8A1     0.262194     1A2     0.283950
       9A1     0.283950     4B2     0.331000     4B1     0.331000
      10A1     0.548190     5B2     0.687575     5B1     0.687575
      11A1     0.962809     2A2     1.263277    12A1     1.263277
       6B2     1.295558     6B1     1.295558    13A1     1.430138
      14A1     1.831897     7B2     1.881532     7B1     1.881532
       8B1     2.235203     8B2     2.235203    15A1     2.385130
       3A2     2.468561    16A1     2.468562     9B2     2.669453
       9B1     2.669453     4A2     2.742260    17A1     2.742262
      18A1     2.799968    10B2     3.457915    10B1     3.457915
      19A1     3.822410    11B2     3.866701    11B1     3.866701
      12B2     4.839907    12B1     4.839907    20A1     5.352168
      21A1     5.794934     5A2     5.794935    22A1     5.955948
       6A2     5.955948    23A1     6.139750    13B2     6.169794
      13B1     6.169794    24A1     6.872855    14B2     7.138379
      14B1     7.138379    25A1     9.469654    26A1    16.564516

    Final Occupation by Irrep:
             A1    A2    B1    B2
    DOCC [     4,    0,    1,    1 ]
    SOCC [     1,    0,    0,    0 ]
    NA   [     5,    0,    1,    1 ]
    NB   [     4,    0,    1,    1 ]

  @DF-UKS Final Energy:  -112.12441708941691

   => Energetics <=

    Nuclear Repulsion Energy =             33.0764612435720267
    One-Electron Energy =                -211.1341674485118460
    Two-Electron Energy =                  77.3821199310688144
    DFT Exchange-Correlation Energy =     -11.4488308155458967
    Empirical Dispersion Energy =           0.0000000000000000
    VV10 Nonlocal Energy =                  0.0000000000000000
    Total Energy =                       -112.1244170894169088

  UHF NO Occupations:
  HONO-2 :    1 B1 1.9991813
  HONO-1 :    1 B2 1.9991813
  HONO-0 :    5 A1 1.0000000
  LUNO+0 :    2 B1 0.0008187
  LUNO+1 :    2 B2 0.0008187
  LUNO+2 :    6 A1 0.0000205
  LUNO+3 :    7 A1 0.0000039

Computation Completed

Properties will be evaluated at   0.000000,   0.000000,   0.000000 [a0]

Properties computed using the B3LYP density matrix

 Multipole Moments:

 ------------------------------------------------------------------------------------
     Multipole            Electronic (a.u.)      Nuclear  (a.u.)        Total (a.u.)
 ------------------------------------------------------------------------------------

 L = 1.  Multiply by 2.5417464519 to convert [e a0] to [Debye]
 Dipole X            :          0.0000000            0.0000000            0.0000000
 Dipole Y            :          0.0000000            0.0000000            0.0000000
 Dipole Z            :          0.7903354           -0.0015817            0.7887537
 Magnitude           :                                                    0.7887537

 L = 2.  Multiply by 1.3450342976 to convert [e a0^2] to [Debye ang]
 Quadrupole XX       :         -5.1072636            0.0000000           -5.1072636
 Quadrupole XY       :          0.0000000            0.0000000            0.0000000
 Quadrupole XZ       :          0.0000000            0.0000000            0.0000000
 Quadrupole YY       :         -5.1072636            0.0000000           -5.1072636
 Quadrupole YZ       :          0.0000000            0.0000000            0.0000000
 Quadrupole ZZ       :        -11.9072902            7.2203393           -4.6869509
 Traceless XX        :          2.2666755           -2.4067798           -0.1401042
 Traceless YY        :          2.2666755           -2.4067798           -0.1401042
 Traceless ZZ        :         -4.5333511            4.8135596            0.2802085

 ------------------------------------------------------------------------------------
  ==> Computing MBIS Charges <==

  Electron Count from Grid (Expected Number): 13.00000 (13.00000)
  Difference:  0.00000

  MBIS Charges: (a.u.)
   Center  Symbol  Z      Pop.       Charge
      1       O    8    8.071501   -0.071501
      2       C    6    4.928502    1.071498

  MBIS Dipoles: [e a0]
   Center  Symbol  Z        X           Y           Z
      1       O    8   -0.000000    0.000000   -0.183345
      2       C    6   -0.000000   -0.000000    0.039206

  MBIS Quadrupoles: [e a0^2]
   Center  Symbol  Z      XX        XY        XZ        YY        YZ        ZZ
      1       O    8   -3.0190    0.0000   -0.0000   -3.0190    0.0000   -3.3311
      2       C    6   -2.0882   -0.0000    0.0000   -2.0882    0.0000   -2.3579

  MBIS Octupoles: [e a0^3]
   Center  Symbol  Z      XXX       XXY       XXZ       XYY       XYZ       XZZ       YYY       YYZ       YZZ       ZZZ
      1       O    8   -0.0000    0.0000   -0.0877   -0.0000    0.0000   -0.0000   -0.0000   -0.0877   -0.0000   -0.0082
      2       C    6   -0.0000    0.0000   -0.0539   -0.0000    0.0000   -0.0000    0.0000   -0.0539    0.0000   -0.3291

  MBIS Radial Moments:
   Center  Symbol  Z      [a0^2]      [a0^3]      [a0^4]
      1       O    8    9.369132   15.650270   31.346419
      2       C    6    6.534410   12.633890   29.379568

  MBIS Valence Widths: [a0]
   Center  Symbol  Z     Width
      1       O    8    0.348299
      2       C    6    0.405453

*** tstop() called on Mac.lan at Sun Aug 10 18:37:07 2025
Module time:
	user time   =       4.10 seconds =       0.07 minutes
	system time =       2.44 seconds =       0.04 minutes
	total time  =          1 seconds =       0.02 minutes
Total time:
	user time   =      16.44 seconds =       0.27 minutes
	system time =       4.50 seconds =       0.07 minutes
	total time  =          2 seconds =       0.03 minutes

    Psi4 stopped on: Sunday, 10 August 2025 06:37PM
    Psi4 wall time for execution: 0:00:02.06

*** Psi4 exiting successfully. Buy a developer a beer!
