                               Psi4 1.9.1 release

  ==> Input File <==

--------------------------------------------------------------------------
molecule {
1 2
O           0.000000           0.000000           0.000000
O           0.000000           0.000000           0.846668
}

set {
basis              cc-pvtz
reference          uks
maxiter            500
DAMPING_PERCENTAGE 1
E_CONVERGENCE      1.0E-8
D_CONVERGENCE      1.0E-8
DIIS_MAX_VECS      400
MBIS_MAXITER       8000
guess              read
}

E, wfn = energy('b3lyp', restart_file='last_wfn', return_wfn=True)
properties('b3lyp','MBIS_CHARGES', wfn=wfn)
wfn.to_file('last_wfn')
--------------------------------------------------------------------------

    Molecular point group: d2h
  Charge       = 1
  Multiplicity = 2
  Basis Set: CC-PVTZ
    Blend: CC-PVTZ
  Basis Set: (CC-PVTZ AUX)
    Blend: CC-PVTZ-JKFIT
  @DF-UKS Final Energy:  -149.59972801461339
    Total Energy =                       -149.5997280146133903
 Dipole X            :          0.0000000            0.0000000            0.0000000
 Dipole Y            :          0.0000000            0.0000000            0.0000000
 Dipole Z            :          0.0000000            0.0000000            0.0000000
 Magnitude           :                                                    0.0000000
    Molecular point group: d2h

    Geometry (in Angstrom), charge = 1, multiplicity = 2:

       Center              X                  Y                   Z               Mass
    ------------   -----------------  -----------------  -----------------  -----------------
         O            0.000000000000     0.000000000000    -0.423334000000    15.994914619570
         O            0.000000000000     0.000000000000     0.423334000000    15.994914619570

  Charge       = 1
  Multiplicity = 2
  Basis Set: CC-PVTZ
    Blend: CC-PVTZ
  Basis Set: (CC-PVTZ AUX)
    Blend: CC-PVTZ-JKFIT

    Orbital Energies [Eh]
    ---------------------

    Alpha Occupied:

       1Ag   -19.796651     1B1u  -19.789571     2Ag    -2.196563
       1B3u   -1.249546     1B2u   -1.223363     2B1u   -1.179688
       3Ag    -1.086041     1B2g   -0.587095

    Alpha Virtual:

       1B3g   -0.459197     3B1u    0.046125     2B2u    0.082286
       2B3u    0.084578     4Ag     0.158992     5Ag     0.254307
       2B2g    0.304882     2B3g    0.316889     4B1u    0.653968
       1B1g    0.685186     6Ag     0.686504     5B1u    0.899173
       3B3u    1.143511     3B2u    1.146168     1Au     1.356288
       6B1u    1.358205     7Ag     1.708503     3B2g    1.863863
       3B3g    1.870644     7B1u    2.352686     4B3u    2.890094
       4B2u    2.899659     8Ag     3.432391     4B2g    3.559452
       4B3g    3.569620     8B1u    3.945427     5B3u    4.114550
       5B2u    4.114758     2B1g    4.121217     9Ag     4.122482
       6B2u    4.498180     6B3u    4.500110     5B2g    4.976331
       5B3g    4.976618    10Ag     5.041872     6B2g    5.381878
       6B3g    5.387016     3B1g    5.504549    11Ag     5.508223
       2Au     5.663339     9B1u    5.667042    12Ag     5.967046
      10B1u    6.033926     3Au     6.343884    11B1u    6.345781
       7B2u    6.462657     7B3u    6.463647    12B1u    7.716165
       7B2g    8.716100     7B3g    8.717403    13Ag     9.290455
      13B1u   26.967141

    Beta Occupied:

       1Ag   -19.780949     1B1u  -19.773687     2Ag    -2.177062
       1B2u   -1.210678     1B3u   -1.164064     2B1u   -1.133730
       3Ag    -1.057555

    Beta Virtual:

       1B3g   -0.441549     1B2g   -0.394321     3B1u    0.052705
       2B2u    0.085218     2B3u    0.104282     4Ag     0.161073
       5Ag     0.267930     2B3g    0.322695     2B2g    0.343041
       4B1u    0.673687     1B1g    0.705815     6Ag     0.706072
       5B1u    0.920438     3B2u    1.150283     3B3u    1.182546
       1Au     1.392288     6B1u    1.392523     7Ag     1.718637
       3B3g    1.875977     3B2g    1.901539     7B1u    2.369185
       4B2u    2.910020     4B3u    2.949030     8Ag     3.444804
       4B3g    3.581502     4B2g    3.622677     8B1u    3.971394
       2B1g    4.138985     9Ag     4.139459     5B2u    4.145421
       5B3u    4.145446     6B2u    4.503276     6B3u    4.539674
       5B3g    5.017059     5B2g    5.017085    10Ag     5.057195
       6B3g    5.391660     6B2g    5.425314    11Ag     5.559870
       3B1g    5.560079     9B1u    5.718281     2Au     5.719116
      12Ag     5.989144    10B1u    6.053931     3Au     6.375302
      11B1u    6.376071     7B2u    6.467653     7B3u    6.505425
      12B1u    7.734332     7B3g    8.724298     7B2g    8.763437
      13Ag     9.313538    13B1u   26.986878

    Final Occupation by Irrep:
             Ag   B1g   B2g   B3g    Au   B1u   B2u   B3u
    DOCC [     3,    0,    0,    0,    0,    2,    1,    1 ]
    SOCC [     0,    0,    1,    0,    0,    0,    0,    0 ]
    NA   [     3,    0,    1,    0,    0,    2,    1,    1 ]
    NB   [     3,    0,    0,    0,    0,    2,    1,    1 ]

  @DF-UKS Final Energy:  -149.59972801442558

   => Energetics <=

    Nuclear Repulsion Energy =             40.0007340337416721
    One-Electron Energy =                -275.8941920811579394
    Two-Electron Energy =                 100.0943905026804401
    DFT Exchange-Correlation Energy =     -13.8006604696897774
    Empirical Dispersion Energy =           0.0000000000000000
    VV10 Nonlocal Energy =                  0.0000000000000000
    Total Energy =                       -149.5997280144255797

  UHF NO Occupations:
  HONO-2 :    2B1u 1.9997825
  HONO-1 :    1B3u 1.9996323
  HONO-0 :    1B2g 1.0000000
  LUNO+0 :    2B3u 0.0003677
  LUNO+1 :    3B1u 0.0002175
  LUNO+2 :    4 Ag 0.0001359
  LUNO+3 :    2B2u 0.0000173

Computation Completed

Properties will be evaluated at   0.000000,   0.000000,   0.000000 [a0]

Properties computed using the B3LYP density matrix

 Multipole Moments:

 ------------------------------------------------------------------------------------
     Multipole            Electronic (a.u.)      Nuclear  (a.u.)        Total (a.u.)
 ------------------------------------------------------------------------------------

 L = 1.  Multiply by 2.5417464519 to convert [e a0] to [Debye]
 Dipole X            :          0.0000000            0.0000000            0.0000000
 Dipole Y            :          0.0000000            0.0000000            0.0000000
 Dipole Z            :          0.0000000            0.0000000            0.0000000
 Magnitude           :                                                    0.0000000

 L = 2.  Multiply by 1.3450342976 to convert [e a0^2] to [Debye ang]
 Quadrupole XX       :         -5.7331774            0.0000000           -5.7331774
 Quadrupole XY       :          0.0000000            0.0000000            0.0000000
 Quadrupole XZ       :          0.0000000            0.0000000            0.0000000
 Quadrupole YY       :         -5.1236269            0.0000000           -5.1236269
 Quadrupole YZ       :          0.0000000            0.0000000            0.0000000
 Quadrupole ZZ       :        -15.8191642           10.2396242           -5.5795400
 Traceless XX        :          3.1588121           -3.4132081           -0.2543960
 Traceless YY        :          3.7683626           -3.4132081            0.3551546
 Traceless ZZ        :         -6.9271747            6.8264161           -0.1007586

 ------------------------------------------------------------------------------------
  ==> Computing MBIS Charges <==

  Electron Count from Grid (Expected Number): 15.00000 (15.00000)
  Difference: -0.00000

  MBIS Charges: (a.u.)
   Center  Symbol  Z      Pop.       Charge
      1       O    8    7.500000    0.500000
      2       O    8    7.500000    0.500000

  MBIS Dipoles: [e a0]
   Center  Symbol  Z        X           Y           Z
      1       O    8   -0.000000   -0.000000    0.083196
      2       O    8    0.000000    0.000000   -0.083196

  MBIS Quadrupoles: [e a0^2]
   Center  Symbol  Z      XX        XY        XZ        YY        YZ        ZZ
      1       O    8   -2.8666   -0.0000    0.0000   -2.5618   -0.0000   -2.9766
      2       O    8   -2.8666    0.0000   -0.0000   -2.5618    0.0000   -2.9766

  MBIS Octupoles: [e a0^3]
   Center  Symbol  Z      XXX       XXY       XXZ       XYY       XYZ       XZZ       YYY       YYZ       YZZ       ZZZ
      1       O    8   -0.0000   -0.0000    0.1825   -0.0000   -0.0000   -0.0000    0.0000    0.0658    0.0000    0.0716
      2       O    8   -0.0000   -0.0000   -0.1825    0.0000   -0.0000   -0.0000    0.0000   -0.0658    0.0000   -0.0716

  MBIS Radial Moments:
   Center  Symbol  Z      [a0^2]      [a0^3]      [a0^4]
      1       O    8    8.405050   13.993693   28.053614
      2       O    8    8.405050   13.993693   28.053614

  MBIS Valence Widths: [a0]
   Center  Symbol  Z     Width
      1       O    8    0.345474
      2       O    8    0.345474

*** tstop() called on Mac.lan at Sun Aug 10 18:12:59 2025
Module time:
	user time   =       3.87 seconds =       0.06 minutes
	system time =       2.06 seconds =       0.03 minutes
	total time  =          1 seconds =       0.02 minutes
Total time:
	user time   =      15.73 seconds =       0.26 minutes
	system time =       4.08 seconds =       0.07 minutes
	total time  =          2 seconds =       0.03 minutes

    Psi4 stopped on: Sunday, 10 August 2025 06:12PM
    Psi4 wall time for execution: 0:00:01.93

*** Psi4 exiting successfully. Buy a developer a beer!
