                               Psi4 1.9.1 release

  ==> Input File <==

--------------------------------------------------------------------------
molecule {
1 3
O           0.000000           0.000000           0.000000
H           0.000000           0.000000           1.137920
}

set {
basis              cc-pvtz
reference          uks
maxiter            500
DAMPING_PERCENTAGE 1
E_CONVERGENCE      1.0E-8
D_CONVERGENCE      1.0E-8
DIIS_MAX_VECS      400
MBIS_MAXITER       8000
guess              read
}

E, wfn = energy('b3lyp', restart_file='last_wfn', return_wfn=True)
properties('b3lyp','MBIS_CHARGES', wfn=wfn)
wfn.to_file('last_wfn')
--------------------------------------------------------------------------

    Molecular point group: c2v
  Charge       = 1
  Multiplicity = 3
  Basis Set: CC-PVTZ
    Blend: CC-PVTZ
  Basis Set: (CC-PVTZ AUX)
    Blend: CC-PVTZ-JKFIT
  @DF-UKS Final Energy:   -75.27646824677426
    Total Energy =                        -75.2764682467742574
 Dipole X            :          0.0000000            0.0000000            0.0000000
 Dipole Y            :          0.0000000            0.0000000            0.0000000
 Dipole Z            :          0.0013859            1.0032094            1.0045954
 Magnitude           :                                                    1.0045954
    Molecular point group: c2v

    Geometry (in Angstrom), charge = 1, multiplicity = 3:

       Center              X                  Y                   Z               Mass
    ------------   -----------------  -----------------  -----------------  -----------------
         O            0.000000000000     0.000000000000    -0.067449380756    15.994914619570
         H            0.000000000000     0.000000000000     1.070470619244     1.007825032230

  Charge       = 1
  Multiplicity = 3
  Basis Set: CC-PVTZ
    Blend: CC-PVTZ
  Basis Set: (CC-PVTZ AUX)
    Blend: CC-PVTZ-JKFIT

    Orbital Energies [Eh]
    ---------------------

    Alpha Occupied:

       1A1   -19.806952     2A1    -1.534077     3A1    -0.949846
       1B1    -0.932401     1B2    -0.932401

    Alpha Virtual:

       4A1    -0.363507     5A1    -0.023204     2B1     0.132454
       2B2     0.132454     6A1     0.188007     3B1     0.324578
       3B2     0.324578     7A1     0.488379     8A1     0.742137
       1A2     0.937088     9A1     0.937088     4B1     1.213232
       4B2     1.213232    10A1     1.611683    11A1     1.906512
      12A1     2.751568     2A2     2.751568     5B2     2.771597
       5B1     2.771597    13A1     2.986230     6B1     3.182473
       6B2     3.182473     7B1     3.417331     7B2     3.417331
      14A1     3.507667    15A1     4.316867     8B1     4.517133
       8B2     4.517133     3A2     4.663241    16A1     4.663241
       9B2     5.320674     9B1     5.320674    17A1     5.538015
       4A2     5.538015    18A1     5.590220    10B1     5.924778
      10B2     5.924778    19A1     6.281495    20A1     8.278028

    Beta Occupied:

       1A1   -19.750336     2A1    -1.376013     3A1    -0.898615

    Beta Virtual:

       1B1    -0.630039     1B2    -0.630039     4A1    -0.348374
       5A1    -0.021413     2B1     0.193776     2B2     0.193776
       6A1     0.204269     3B1     0.340792     3B2     0.340792
       7A1     0.545441     8A1     0.754349     9A1     1.049131
       1A2     1.049131     4B1     1.267351     4B2     1.267351
      10A1     1.648205    11A1     1.897356    12A1     2.750085
       2A2     2.750086     5B2     2.835981     5B1     2.835981
      13A1     3.001590     6B1     3.223999     6B2     3.223999
       7B2     3.460795     7B1     3.460795    14A1     3.528057
      15A1     4.365204     8B2     4.669010     8B1     4.669010
       3A2     4.761151    16A1     4.761151     9B2     5.402276
       9B1     5.402276    17A1     5.641791    18A1     5.751756
       4A2     5.751757    10B1     6.019782    10B2     6.019782
      19A1     6.362868    20A1     8.351795

    Final Occupation by Irrep:
             A1    A2    B1    B2
    DOCC [     3,    0,    0,    0 ]
    SOCC [     0,    0,    1,    1 ]
    NA   [     3,    0,    1,    1 ]
    NB   [     3,    0,    0,    0 ]

  @DF-UKS Final Energy:   -75.27646824709223

   => Energetics <=

    Nuclear Repulsion Energy =              3.7203122234955011
    One-Electron Energy =                -106.8944085540116475
    Two-Electron Energy =                  34.7397431826001863
    DFT Exchange-Correlation Energy =      -6.8421150991762536
    Empirical Dispersion Energy =           0.0000000000000000
    VV10 Nonlocal Energy =                  0.0000000000000000
    Total Energy =                        -75.2764682470922253

  UHF NO Occupations:
  HONO-2 :    3 A1 1.9974779
  HONO-1 :    1 B2 1.0000000
  HONO-0 :    1 B1 1.0000000
  LUNO+0 :    4 A1 0.0025221
  LUNO+1 :    5 A1 0.0007805
  LUNO+2 :    6 A1 0.0000014
  LUNO+3 :    7 A1 0.0000000

Computation Completed

Properties will be evaluated at   0.000000,   0.000000,   0.000000 [a0]

Properties computed using the B3LYP density matrix

 Multipole Moments:

 ------------------------------------------------------------------------------------
     Multipole            Electronic (a.u.)      Nuclear  (a.u.)        Total (a.u.)
 ------------------------------------------------------------------------------------

 L = 1.  Multiply by 2.5417464519 to convert [e a0] to [Debye]
 Dipole X            :          0.0000000            0.0000000            0.0000000
 Dipole Y            :          0.0000000            0.0000000            0.0000000
 Dipole Z            :          0.0013859            1.0032094            1.0045954
 Magnitude           :                                                    1.0045954

 L = 2.  Multiply by 1.3450342976 to convert [e a0^2] to [Debye ang]
 Quadrupole XX       :         -3.0975642            0.0000000           -3.0975642
 Quadrupole XY       :          0.0000000            0.0000000            0.0000000
 Quadrupole XZ       :          0.0000000            0.0000000            0.0000000
 Quadrupole YY       :         -3.0975642            0.0000000           -3.0975642
 Quadrupole YZ       :          0.0000000            0.0000000            0.0000000
 Quadrupole ZZ       :         -5.3169111            4.2220796           -1.0948315
 Traceless XX        :          0.7397823           -1.4073599           -0.6675776
 Traceless YY        :          0.7397823           -1.4073599           -0.6675776
 Traceless ZZ        :         -1.4795646            2.8147197            1.3351551

 ------------------------------------------------------------------------------------
  ==> Computing MBIS Charges <==

  Electron Count from Grid (Expected Number):  8.00000 ( 8.00000)
  Difference:  0.00000

  MBIS Charges: (a.u.)
   Center  Symbol  Z      Pop.       Charge
      1       O    8    7.540190    0.459810
      2       H    1    0.459810    0.540190

  MBIS Dipoles: [e a0]
   Center  Symbol  Z        X           Y           Z
      1       O    8   -0.000000    0.000000   -0.089080
      2       H    1    0.000000   -0.000000    0.059536

  MBIS Quadrupoles: [e a0^2]
   Center  Symbol  Z      XX        XY        XZ        YY        YZ        ZZ
      1       O    8   -2.8759   -0.0000    0.0000   -2.8759   -0.0000   -3.3708
      2       H    1   -0.2217   -0.0000    0.0000   -0.2217   -0.0000   -0.2056

  MBIS Octupoles: [e a0^3]
   Center  Symbol  Z      XXX       XXY       XXZ       XYY       XYZ       XZZ       YYY       YYZ       YZZ       ZZZ
      1       O    8   -0.0000   -0.0000   -0.0631    0.0000   -0.0000   -0.0000   -0.0000   -0.0631   -0.0000   -0.2588
      2       H    1    0.0000   -0.0000    0.0154    0.0000   -0.0000    0.0000   -0.0000    0.0154   -0.0000    0.0603

  MBIS Radial Moments:
   Center  Symbol  Z      [a0^2]      [a0^3]      [a0^4]
      1       O    8    9.122609   15.668248   32.182600
      2       H    1    0.648913    1.080781    2.146051

  MBIS Valence Widths: [a0]
   Center  Symbol  Z     Width
      1       O    8    0.360842
      2       H    1    0.348029

*** tstop() called on Mac.lan at Sun Aug 10 18:29:31 2025
Module time:
	user time   =      10.33 seconds =       0.17 minutes
	system time =       1.91 seconds =       0.03 minutes
	total time  =          1 seconds =       0.02 minutes
Total time:
	user time   =      46.56 seconds =       0.78 minutes
	system time =       4.29 seconds =       0.07 minutes
	total time  =          5 seconds =       0.08 minutes

    Psi4 stopped on: Sunday, 10 August 2025 06:29PM
    Psi4 wall time for execution: 0:00:05.11

*** Psi4 exiting successfully. Buy a developer a beer!
