                               Psi4 1.9.1 release

  ==> Input File <==

--------------------------------------------------------------------------
molecule {
1 4
C           0.000000           0.000000           0.000000
C           0.000000           0.000000           1.750843
}

set {
basis              cc-pvtz
reference          uks
maxiter            500
DAMPING_PERCENTAGE 1
E_CONVERGENCE      1.0E-8
D_CONVERGENCE      1.0E-8
DIIS_MAX_VECS      400
MBIS_MAXITER       8000
guess              read
}

E, wfn = energy('b3lyp', restart_file='last_wfn', return_wfn=True)
properties('b3lyp','MBIS_CHARGES', wfn=wfn)
wfn.to_file('last_wfn')
--------------------------------------------------------------------------

    Molecular point group: d2h
  Charge       = 1
  Multiplicity = 4
  Basis Set: CC-PVTZ
    Blend: CC-PVTZ
  Basis Set: (CC-PVTZ AUX)
    Blend: CC-PVTZ-JKFIT
  @DF-UKS Final Energy:   -75.46240805703268
    Total Energy =                        -75.4624080570326612
 Dipole X            :          0.0000000            0.0000000            0.0000000
 Dipole Y            :          0.0000000            0.0000000            0.0000000
 Dipole Z            :          0.0000000           -0.0000000           -0.0000000
 Magnitude           :                                                    0.0000000
    Molecular point group: d2h

    Geometry (in Angstrom), charge = 1, multiplicity = 4:

       Center              X                  Y                   Z               Mass
    ------------   -----------------  -----------------  -----------------  -----------------
         C            0.000000000000     0.000000000000    -0.875421500000    12.000000000000
         C            0.000000000000     0.000000000000     0.875421500000    12.000000000000

  Charge       = 1
  Multiplicity = 4
  Basis Set: CC-PVTZ
    Blend: CC-PVTZ
  Basis Set: (CC-PVTZ AUX)
    Blend: CC-PVTZ-JKFIT

    Orbital Energies [Eh]
    ---------------------

    Alpha Occupied:

       1Ag   -10.724778     1B1u  -10.724600     2Ag    -1.070060
       2B1u   -0.858175     3Ag    -0.679294     1B3u   -0.642805
       1B2u   -0.642805

    Alpha Virtual:

       1B2g   -0.470445     1B3g   -0.470445     3B1u   -0.279999
       4B1u    0.016880     2B3u    0.019235     2B2u    0.019235
       4Ag     0.041536     5Ag     0.052974     2B3g    0.094018
       2B2g    0.094018     6Ag     0.263616     1B1g    0.263616
       3B2u    0.282571     3B3u    0.282571     5B1u    0.341674
       6B1u    0.457315     1Au     0.457315     7Ag     0.698098
       3B3g    0.739261     3B2g    0.739261     7B1u    0.815188
       4B2u    1.509903     4B3u    1.509903     8Ag     1.576195
       4B3g    1.642846     4B2g    1.642846     5B2u    2.046781
       5B3u    2.046781     9Ag     2.072748    10Ag     2.076690
       2B1g    2.076690     8B1u    2.108284     6B2u    2.246101
       6B3u    2.246101     5B3g    2.337844     5B2g    2.337844
       9B1u    2.499239     2Au     2.499243    11Ag     2.506400
       3B1g    2.506408     6B3g    2.643565     6B2g    2.643565
      10B1u    2.675426     3Au     2.675432     7B2u    2.677157
       7B3u    2.677157    11B1u    2.679597    12B1u    3.032120
      12Ag     3.102976     7B3g    3.270970     7B2g    3.270970
      13Ag     3.597767    13B1u    5.284868

    Beta Occupied:

       1Ag   -10.700576     1B1u  -10.700551     2Ag    -0.976363
       2B1u   -0.745112

    Beta Virtual:

       3Ag    -0.513146     1B3u   -0.494579     1B2u   -0.494579
       1B2g   -0.372418     1B3g   -0.372418     3B1u   -0.198946
       2B3u    0.048078     2B2u    0.048078     4B1u    0.048812
       4Ag     0.075039     5Ag     0.083112     2B3g    0.116708
       2B2g    0.116708     1B1g    0.312240     6Ag     0.312240
       3B2u    0.341752     3B3u    0.341752     5B1u    0.370540
       1Au     0.501961     6B1u    0.501961     7Ag     0.756740
       3B3g    0.785636     3B2g    0.785636     7B1u    0.857772
       4B2u    1.566323     4B3u    1.566323     8Ag     1.636252
       4B3g    1.697399     4B2g    1.697399     5B2u    2.107802
       5B3u    2.107802     9Ag     2.136258    10Ag     2.143890
       2B1g    2.143891     8B1u    2.168772     6B2u    2.310034
       6B3u    2.310034     5B3g    2.401312     5B2g    2.401312
       9B1u    2.567496     2Au     2.567500    11Ag     2.587541
       3B1g    2.587549     6B3g    2.720846     6B2g    2.720846
      10B1u    2.752845     3Au     2.752852    11B1u    2.757824
       7B2u    2.762250     7B3u    2.762250    12B1u    3.090404
      12Ag     3.172674     7B3g    3.339598     7B2g    3.339598
      13Ag     3.653422    13B1u    5.331987

    Final Occupation by Irrep:
             Ag   B1g   B2g   B3g    Au   B1u   B2u   B3u
    DOCC [     2,    0,    0,    0,    0,    2,    0,    0 ]
    SOCC [     1,    0,    0,    0,    0,    0,    1,    1 ]
    NA   [     3,    0,    0,    0,    0,    2,    1,    1 ]
    NB   [     2,    0,    0,    0,    0,    2,    0,    0 ]

  @DF-UKS Final Energy:   -75.46240805688937

   => Energetics <=

    Nuclear Repulsion Energy =             10.8806898072071601
    One-Electron Energy =                -118.3315398694950318
    Two-Electron Energy =                  40.1486362142667090
    DFT Exchange-Correlation Energy =      -8.1601942088682016
    Empirical Dispersion Energy =           0.0000000000000000
    VV10 Nonlocal Energy =                  0.0000000000000000
    Total Energy =                        -75.4624080568893589

  UHF NO Occupations:
  HONO-2 :    1B2u 1.0000000
  HONO-1 :    1B3u 1.0000000
  HONO-0 :    3 Ag 1.0000000
  LUNO+0 :    3B1u 0.0018569
  LUNO+1 :    4 Ag 0.0001550
  LUNO+2 :    4B1u 0.0000008
  LUNO+3 :    5 Ag 0.0000006

Computation Completed

Properties will be evaluated at   0.000000,   0.000000,   0.000000 [a0]

Properties computed using the B3LYP density matrix

 Multipole Moments:

 ------------------------------------------------------------------------------------
     Multipole            Electronic (a.u.)      Nuclear  (a.u.)        Total (a.u.)
 ------------------------------------------------------------------------------------

 L = 1.  Multiply by 2.5417464519 to convert [e a0] to [Debye]
 Dipole X            :          0.0000000            0.0000000            0.0000000
 Dipole Y            :          0.0000000            0.0000000            0.0000000
 Dipole Z            :          0.0000000           -0.0000000           -0.0000000
 Magnitude           :                                                    0.0000000

 L = 2.  Multiply by 1.3450342976 to convert [e a0^2] to [Debye ang]
 Quadrupole XX       :         -6.8366724            0.0000000           -6.8366724
 Quadrupole XY       :          0.0000000            0.0000000            0.0000000
 Quadrupole XZ       :          0.0000000            0.0000000            0.0000000
 Quadrupole YY       :         -6.8366724            0.0000000           -6.8366724
 Quadrupole YZ       :          0.0000000            0.0000000            0.0000000
 Quadrupole ZZ       :        -36.5059403           32.8407750           -3.6651653
 Traceless XX        :          9.8897560          -10.9469250           -1.0571690
 Traceless YY        :          9.8897560          -10.9469250           -1.0571690
 Traceless ZZ        :        -19.7795120           21.8938500            2.1143380

 ------------------------------------------------------------------------------------
  ==> Computing MBIS Charges <==

  Electron Count from Grid (Expected Number): 11.00000 (11.00000)
  Difference: -0.00000

  MBIS Charges: (a.u.)
   Center  Symbol  Z      Pop.       Charge
      1       C    6    5.500000    0.500000
      2       C    6    5.500000    0.500000

  MBIS Dipoles: [e a0]
   Center  Symbol  Z        X           Y           Z
      1       C    6   -0.000000    0.000000   -0.168135
      2       C    6   -0.000000    0.000000    0.168135

  MBIS Quadrupoles: [e a0^2]
   Center  Symbol  Z      XX        XY        XZ        YY        YZ        ZZ
      1       C    6   -3.4183    0.0000   -0.0000   -3.4183   -0.0000   -3.7572
      2       C    6   -3.4183    0.0000   -0.0000   -3.4183    0.0000   -3.7572

  MBIS Octupoles: [e a0^3]
   Center  Symbol  Z      XXX       XXY       XXZ       XYY       XYZ       XZZ       YYY       YYZ       YZZ       ZZZ
      1       C    6   -0.0000   -0.0000   -0.2541   -0.0000    0.0000   -0.0000    0.0000   -0.2541    0.0000   -0.8368
      2       C    6   -0.0000   -0.0000    0.2541   -0.0000   -0.0000   -0.0000    0.0000    0.2541    0.0000    0.8368

  MBIS Radial Moments:
   Center  Symbol  Z      [a0^2]      [a0^3]      [a0^4]
      1       C    6   10.593916   23.839210   63.833855
      2       C    6   10.593916   23.839210   63.833855

  MBIS Valence Widths: [a0]
   Center  Symbol  Z     Width
      1       C    6    0.485563
      2       C    6    0.485563

*** tstop() called on Mac.lan at Sun Aug 10 18:23:08 2025
Module time:
	user time   =       6.43 seconds =       0.11 minutes
	system time =       2.07 seconds =       0.03 minutes
	total time  =          1 seconds =       0.02 minutes
Total time:
	user time   =      21.05 seconds =       0.35 minutes
	system time =       4.62 seconds =       0.08 minutes
	total time  =          2 seconds =       0.03 minutes

    Psi4 stopped on: Sunday, 10 August 2025 06:23PM
    Psi4 wall time for execution: 0:00:02.55

*** Psi4 exiting successfully. Buy a developer a beer!
