                               Psi4 1.9.1 release

  ==> Input File <==

--------------------------------------------------------------------------
molecule {
1 2
H           0.000000           0.000000           0.000000
H           0.000000           0.000000           1.363801
}

set {
basis              cc-pvtz
reference          uks
maxiter            500
DAMPING_PERCENTAGE 1
E_CONVERGENCE      1.0E-8
D_CONVERGENCE      1.0E-8
DIIS_MAX_VECS      400
MBIS_MAXITER       8000
guess              read
}

E, wfn = energy('b3lyp', restart_file='last_wfn', return_wfn=True)
properties('b3lyp','MBIS_CHARGES', wfn=wfn)
wfn.to_file('last_wfn')
--------------------------------------------------------------------------

    Molecular point group: d2h
  Charge       = 1
  Multiplicity = 2
  Basis Set: CC-PVTZ
    Blend: CC-PVTZ
  Basis Set: (CC-PVTZ AUX)
    Blend: CC-PVTZ-JKFIT
  @DF-UKS Final Energy:    -0.60448126974948
    Total Energy =                         -0.6044812697494755
 Dipole X            :          0.0000000            0.0000000            0.0000000
 Dipole Y            :          0.0000000            0.0000000            0.0000000
 Dipole Z            :          0.0000000            0.0000000            0.0000000
 Magnitude           :                                                    0.0000000
    Molecular point group: d2h

    Geometry (in Angstrom), charge = 1, multiplicity = 2:

       Center              X                  Y                   Z               Mass
    ------------   -----------------  -----------------  -----------------  -----------------
         H            0.000000000000     0.000000000000    -0.681900500000     1.007825032230
         H            0.000000000000     0.000000000000     0.681900500000     1.007825032230

  Charge       = 1
  Multiplicity = 2
  Basis Set: CC-PVTZ
    Blend: CC-PVTZ
  Basis Set: (CC-PVTZ AUX)
    Blend: CC-PVTZ-JKFIT

    Orbital Energies [Eh]
    ---------------------

    Alpha Occupied:

       1Ag    -0.825171

    Alpha Virtual:

       1B1u   -0.490545     2Ag    -0.064397     2B1u    0.017116
       1B3u    0.091034     1B2u    0.091034     3Ag     0.269413
       1B3g    0.405487     1B2g    0.405487     3B1u    0.811594
       4Ag     1.760441     4B1u    1.912706     5Ag     2.335032
       2B2u    2.371769     2B3u    2.371769     1B1g    2.623168
       6Ag     2.623168     1Au     2.841010     5B1u    2.841010
       3B2u    3.073370     3B3u    3.073370     2B3g    3.081429
       2B2g    3.081429     6B1u    3.259561     3B2g    3.466754
       3B3g    3.466754     7Ag     3.601797     7B1u    4.594240

    Beta Occupied:

    Beta Virtual:

       1Ag    -0.510058     1B1u   -0.281110     2Ag     0.028832
       2B1u    0.125785     1B2u    0.226416     1B3u    0.226416
       3Ag     0.418083     1B3g    0.526293     1B2g    0.526293
       3B1u    0.939798     4Ag     2.072614     4B1u    2.202735
       5Ag     2.559233     2B2u    2.564648     2B3u    2.564648
       1B1g    2.806791     6Ag     2.806792     1Au     3.024228
       5B1u    3.024229     3B2u    3.325464     3B3u    3.325464
       2B3g    3.332079     2B2g    3.332079     6B1u    3.514590
       3B3g    3.661147     3B2g    3.661147     7Ag     3.839750
       7B1u    4.809960

    Final Occupation by Irrep:
             Ag   B1g   B2g   B3g    Au   B1u   B2u   B3u
    DOCC [     0,    0,    0,    0,    0,    0,    0,    0 ]
    SOCC [     1,    0,    0,    0,    0,    0,    0,    0 ]
    NA   [     1,    0,    0,    0,    0,    0,    0,    0 ]
    NB   [     0,    0,    0,    0,    0,    0,    0,    0 ]

  @DF-UKS Final Energy:    -0.60448126971852

   => Energetics <=

    Nuclear Repulsion Energy =              0.3880164413063196
    One-Electron Energy =                  -0.9774466787431195
    Two-Electron Energy =                   0.2331588067455649
    DFT Exchange-Correlation Energy =      -0.2482098390272898
    Empirical Dispersion Energy =           0.0000000000000000
    VV10 Nonlocal Energy =                  0.0000000000000000
    Total Energy =                         -0.6044812697185249

  UHF NO Occupations:
  HONO-0 :    1 Ag 1.0000000
  LUNO+0 :    2 Ag 0.0000000
  LUNO+1 :    3 Ag 0.0000000
  LUNO+2 :    4 Ag 0.0000000
  LUNO+3 :    3B3u 0.0000000

Computation Completed

Properties will be evaluated at   0.000000,   0.000000,   0.000000 [a0]

Properties computed using the B3LYP density matrix

 Multipole Moments:

 ------------------------------------------------------------------------------------
     Multipole            Electronic (a.u.)      Nuclear  (a.u.)        Total (a.u.)
 ------------------------------------------------------------------------------------

 L = 1.  Multiply by 2.5417464519 to convert [e a0] to [Debye]
 Dipole X            :          0.0000000            0.0000000            0.0000000
 Dipole Y            :          0.0000000            0.0000000            0.0000000
 Dipole Z            :          0.0000000            0.0000000            0.0000000
 Magnitude           :                                                    0.0000000

 L = 2.  Multiply by 1.3450342976 to convert [e a0^2] to [Debye ang]
 Quadrupole XX       :         -0.7194031            0.0000000           -0.7194031
 Quadrupole XY       :          0.0000000            0.0000000            0.0000000
 Quadrupole XZ       :          0.0000000            0.0000000            0.0000000
 Quadrupole YY       :         -0.7194031            0.0000000           -0.7194031
 Quadrupole YZ       :          0.0000000            0.0000000            0.0000000
 Quadrupole ZZ       :         -1.7332678            3.3210067            1.5877388
 Traceless XX        :          0.3379549           -1.1070022           -0.7690473
 Traceless YY        :          0.3379549           -1.1070022           -0.7690473
 Traceless ZZ        :         -0.6759098            2.2140044            1.5380946

 ------------------------------------------------------------------------------------
  ==> Computing MBIS Charges <==

  Electron Count from Grid (Expected Number):  1.00000 ( 1.00000)
  Difference:  0.00000

  MBIS Charges: (a.u.)
   Center  Symbol  Z      Pop.       Charge
      1       H    1    0.500000    0.500000
      2       H    1    0.500000    0.500000

  MBIS Dipoles: [e a0]
   Center  Symbol  Z        X           Y           Z
      1       H    1    0.000000    0.000000   -0.129305
      2       H    1   -0.000000   -0.000000    0.129305

  MBIS Quadrupoles: [e a0^2]
   Center  Symbol  Z      XX        XY        XZ        YY        YZ        ZZ
      1       H    1   -0.3597    0.0000   -0.0000   -0.3597   -0.0000   -0.3696
      2       H    1   -0.3597    0.0000    0.0000   -0.3597    0.0000   -0.3696

  MBIS Octupoles: [e a0^3]
   Center  Symbol  Z      XXX       XXY       XXZ       XYY       XYZ       XZZ       YYY       YYZ       YZZ       ZZZ
      1       H    1    0.0000   -0.0000   -0.1007    0.0000   -0.0000    0.0000   -0.0000   -0.1007    0.0000   -0.2291
      2       H    1    0.0000   -0.0000    0.1007    0.0000    0.0000    0.0000   -0.0000    0.1007    0.0000    0.2291

  MBIS Radial Moments:
   Center  Symbol  Z      [a0^2]      [a0^3]      [a0^4]
      1       H    1    1.089032    2.224795    5.388407
      2       H    1    1.089032    2.224795    5.388407

  MBIS Valence Widths: [a0]
   Center  Symbol  Z     Width
      1       H    1    0.433662
      2       H    1    0.433662

*** tstop() called on Mac.lan at Sun Aug 10 18:11:45 2025
Module time:
	user time   =       0.93 seconds =       0.02 minutes
	system time =       0.84 seconds =       0.01 minutes
	total time  =          1 seconds =       0.02 minutes
Total time:
	user time   =       1.65 seconds =       0.03 minutes
	system time =       2.95 seconds =       0.05 minutes
	total time  =          1 seconds =       0.02 minutes

    Psi4 stopped on: Sunday, 10 August 2025 06:11PM
    Psi4 wall time for execution: 0:00:00.61

*** Psi4 exiting successfully. Buy a developer a beer!
