                               Psi4 1.9.1 release

  ==> Input File <==

--------------------------------------------------------------------------
molecule {
1 3
N           0.000000           0.000000           0.000000
C           0.000000           0.000000           1.327072
}

set {
basis              cc-pvtz
reference          uks
maxiter            500
DAMPING_PERCENTAGE 1
E_CONVERGENCE      1.0E-8
D_CONVERGENCE      1.0E-8
DIIS_MAX_VECS      400
MBIS_MAXITER       8000
guess              read
}

E, wfn = energy('b3lyp', restart_file='last_wfn', return_wfn=True)
properties('b3lyp','MBIS_CHARGES', wfn=wfn)
wfn.to_file('last_wfn')
--------------------------------------------------------------------------

    Molecular point group: c2v
  Charge       = 1
  Multiplicity = 3
  Basis Set: CC-PVTZ
    Blend: CC-PVTZ
  Basis Set: (CC-PVTZ AUX)
    Blend: CC-PVTZ-JKFIT
  @DF-UKS Final Energy:   -92.22017483945159
    Total Energy =                        -92.2201748394515874
 Dipole X            :          0.0000000            0.0000000            0.0000000
 Dipole Y            :          0.0000000            0.0000000            0.0000000
 Dipole Z            :          0.6706433            0.0017788            0.6724221
 Magnitude           :                                                    0.6724221
    Molecular point group: c2v

    Geometry (in Angstrom), charge = 1, multiplicity = 3:

       Center              X                  Y                   Z               Mass
    ------------   -----------------  -----------------  -----------------  -----------------
         N            0.000000000000     0.000000000000    -0.612422361959    14.003074004430
         C            0.000000000000     0.000000000000     0.714649638041    12.000000000000

  Charge       = 1
  Multiplicity = 3
  Basis Set: CC-PVTZ
    Blend: CC-PVTZ
  Basis Set: (CC-PVTZ AUX)
    Blend: CC-PVTZ-JKFIT

    Orbital Energies [Eh]
    ---------------------

    Alpha Occupied:

       1A1   -14.861695     2A1   -10.778229     3A1    -1.342334
       4A1    -0.917198     1B1    -0.794102     5A1    -0.789331
       1B2    -0.752196

    Alpha Virtual:

       2B1    -0.473847     2B2    -0.442093     6A1    -0.123992
       3B1     0.001554     7A1     0.006421     3B2     0.011314
       8A1     0.040939     9A1     0.152244     4B1     0.196628
       4B2     0.214951     1A2     0.279503    10A1     0.279970
       5B1     0.408992     5B2     0.430933    11A1     0.561218
       2A2     0.754879    12A1     0.755123    13A1     0.776217
       6B1     1.085901     6B2     1.108396    14A1     1.326265
       7B1     1.574876     7B2     1.594749    15A1     1.753335
       8B1     2.238923     8B2     2.239045     3A2     2.255187
      16A1     2.255234     9B1     2.259074     9B2     2.288903
      17A1     2.464885    10B1     2.480369    18A1     2.502783
       4A2     2.503056    10B2     2.510022    19A1     2.567318
      11B1     2.894543    11B2     2.921174    20A1     3.088377
      12B1     3.474381    12B2     3.474528    21A1     3.774609
       5A2     3.774797    22A1     4.058712     6A2     4.058914
      13B1     4.206867    23A1     4.241037    13B2     4.245151
      24A1     4.726757    14B1     4.738003    14B2     4.768475
      25A1     5.014351    26A1     9.367051

    Beta Occupied:

       1A1   -14.841376     2A1   -10.757117     3A1    -1.273226
       4A1    -0.822306     1B2    -0.730603

    Beta Virtual:

       1B1    -0.618501     5A1    -0.607888     2B2    -0.409189
       2B1    -0.372477     6A1    -0.093059     3B2     0.018083
       3B1     0.023928     7A1     0.038037     8A1     0.093425
       9A1     0.180158     4B2     0.220406     4B1     0.231238
       1A2     0.307590    10A1     0.309668     5B2     0.463896
       5B1     0.469347    11A1     0.586497     2A2     0.788003
      12A1     0.790707    13A1     0.822175     6B2     1.131677
       6B1     1.137357    14A1     1.363931     7B2     1.611771
       7B1     1.619589    15A1     1.815790     8B2     2.277244
       8B1     2.278015     3A2     2.298028    16A1     2.300535
       9B2     2.315099     9B1     2.331530    17A1     2.524548
      10B2     2.554785     4A2     2.560354    18A1     2.564535
      10B1     2.570492    19A1     2.643264    11B2     2.969959
      11B1     2.978266    20A1     3.153142    12B2     3.518736
      12B1     3.520108     5A2     3.823008    21A1     3.827737
       6A2     4.114219    22A1     4.120183    13B2     4.278801
      23A1     4.297109    13B1     4.299819    24A1     4.780340
      14B2     4.799392    14B1     4.807100    25A1     5.050876
      26A1     9.404190

    Final Occupation by Irrep:
             A1    A2    B1    B2
    DOCC [     4,    0,    0,    1 ]
    SOCC [     1,    0,    1,    0 ]
    NA   [     5,    0,    1,    1 ]
    NB   [     4,    0,    0,    1 ]

  @DF-UKS Final Energy:   -92.22017484239417

   => Energetics <=

    Nuclear Repulsion Energy =             16.7477294737135587
    One-Electron Energy =                -152.4599197178304166
    Two-Electron Energy =                  52.9483259356615292
    DFT Exchange-Correlation Energy =      -9.4563105339388294
    Empirical Dispersion Energy =           0.0000000000000000
    VV10 Nonlocal Energy =                  0.0000000000000000
    Total Energy =                        -92.2201748423941723

  UHF NO Occupations:
  HONO-2 :    4 A1 1.9985544
  HONO-1 :    1 B1 1.0000000
  HONO-0 :    5 A1 1.0000000
  LUNO+0 :    6 A1 0.0014456
  LUNO+1 :    2 B2 0.0006643
  LUNO+2 :    7 A1 0.0003260
  LUNO+3 :    8 A1 0.0000005

Computation Completed

Properties will be evaluated at   0.000000,   0.000000,   0.000000 [a0]

Properties computed using the B3LYP density matrix

 Multipole Moments:

 ------------------------------------------------------------------------------------
     Multipole            Electronic (a.u.)      Nuclear  (a.u.)        Total (a.u.)
 ------------------------------------------------------------------------------------

 L = 1.  Multiply by 2.5417464519 to convert [e a0] to [Debye]
 Dipole X            :          0.0000000            0.0000000            0.0000000
 Dipole Y            :          0.0000000            0.0000000            0.0000000
 Dipole Z            :          0.6706433            0.0017788            0.6724221
 Magnitude           :                                                    0.6724221

 L = 2.  Multiply by 1.3450342976 to convert [e a0^2] to [Debye ang]
 Quadrupole XX       :         -5.8632067            0.0000000           -5.8632067
 Quadrupole XY       :          0.0000000            0.0000000            0.0000000
 Quadrupole XZ       :          0.0000000            0.0000000            0.0000000
 Quadrupole YY       :         -6.9146697            0.0000000           -6.9146697
 Quadrupole YZ       :          0.0000000            0.0000000            0.0000000
 Quadrupole ZZ       :        -24.6750661           20.3185471           -4.3565190
 Traceless XX        :          6.6211074           -6.7728490           -0.1517416
 Traceless YY        :          5.5696444           -6.7728490           -1.2032046
 Traceless ZZ        :        -12.1907519           13.5456981            1.3549462

 ------------------------------------------------------------------------------------
  ==> Computing MBIS Charges <==

  Electron Count from Grid (Expected Number): 12.00000 (12.00000)
  Difference:  0.00000

  MBIS Charges: (a.u.)
   Center  Symbol  Z      Pop.       Charge
      1       N    7    6.751614    0.248386
      2       C    6    5.248387    0.751613

  MBIS Dipoles: [e a0]
   Center  Symbol  Z        X           Y           Z
      1       N    7   -0.000000   -0.000000   -0.198661
      2       C    6   -0.000000    0.000000    0.143495

  MBIS Quadrupoles: [e a0^2]
   Center  Symbol  Z      XX        XY        XZ        YY        YZ        ZZ
      1       N    7   -3.1746    0.0000   -0.0000   -3.7409   -0.0000   -3.7370
      2       C    6   -2.6886    0.0000   -0.0000   -3.1738    0.0000   -3.1704

  MBIS Octupoles: [e a0^3]
   Center  Symbol  Z      XXX       XXY       XXZ       XYY       XYZ       XZZ       YYY       YYZ       YZZ       ZZZ
      1       N    7   -0.0000   -0.0000   -0.1495   -0.0000    0.0000   -0.0000   -0.0000   -0.3065    0.0000   -0.6089
      2       C    6   -0.0000    0.0000    0.0923   -0.0000    0.0000   -0.0000    0.0000    0.2607    0.0000    0.3886

  MBIS Radial Moments:
   Center  Symbol  Z      [a0^2]      [a0^3]      [a0^4]
      1       N    7   10.652439   21.091991   49.773857
      2       C    6    9.032854   19.357881   49.407320

  MBIS Valence Widths: [a0]
   Center  Symbol  Z     Width
      1       N    7    0.420641
      2       C    6    0.462205

*** tstop() called on Mac.lan at Sun Aug 10 18:33:47 2025
Module time:
	user time   =       6.02 seconds =       0.10 minutes
	system time =       2.11 seconds =       0.04 minutes
	total time  =          0 seconds =       0.00 minutes
Total time:
	user time   =      22.54 seconds =       0.38 minutes
	system time =       4.47 seconds =       0.07 minutes
	total time  =          2 seconds =       0.03 minutes

    Psi4 stopped on: Sunday, 10 August 2025 06:33PM
    Psi4 wall time for execution: 0:00:02.71

*** Psi4 exiting successfully. Buy a developer a beer!
