                               Psi4 1.9.1 release

  ==> Input File <==

--------------------------------------------------------------------------
molecule {
1 2
O           0.000000           0.000000           0.000000
C           0.000000           0.000000           1.583436
}

set {
basis              cc-pvtz
reference          uks
maxiter            500
DAMPING_PERCENTAGE 1
E_CONVERGENCE      1.0E-8
D_CONVERGENCE      1.0E-8
DIIS_MAX_VECS      400
MBIS_MAXITER       8000
guess              read
}

E, wfn = energy('b3lyp', restart_file='last_wfn', return_wfn=True)
properties('b3lyp','MBIS_CHARGES', wfn=wfn)
wfn.to_file('last_wfn')
--------------------------------------------------------------------------

    Molecular point group: c2v
  Charge       = 1
  Multiplicity = 2
  Basis Set: CC-PVTZ
    Blend: CC-PVTZ
  Basis Set: (CC-PVTZ AUX)
    Blend: CC-PVTZ-JKFIT
  @DF-UKS Final Energy:  -112.65102236007193
    Total Energy =                       -112.6510223600719485
 Dipole X            :          0.0000000            0.0000000            0.0000000
 Dipole Y            :          0.0000000            0.0000000            0.0000000
 Dipole Z            :          1.1847304           -0.0032613            1.1814690
 Magnitude           :                                                    1.1814690
    Molecular point group: c2v

    Geometry (in Angstrom), charge = 1, multiplicity = 2:

       Center              X                  Y                   Z               Mass
    ------------   -----------------  -----------------  -----------------  -----------------
         O            0.000000000000     0.000000000000    -0.678738701590    15.994914619570
         C            0.000000000000     0.000000000000     0.904697298410    12.000000000000

  Charge       = 1
  Multiplicity = 2
  Basis Set: CC-PVTZ
    Blend: CC-PVTZ
  Basis Set: (CC-PVTZ AUX)
    Blend: CC-PVTZ-JKFIT

    Orbital Energies [Eh]
    ---------------------

    Alpha Occupied:

       1A1   -19.670786     2A1   -10.857947     3A1    -1.395245
       4A1    -0.997575     5A1    -0.825376     1B2    -0.764443
       1B1    -0.764443

    Alpha Virtual:

       2B2    -0.524357     2B1    -0.524357     6A1    -0.359627
       7A1    -0.011488     3B1     0.015197     3B2     0.015197
       8A1     0.019229     9A1     0.245310     4B2     0.280161
       4B1     0.280161     1A2     0.318920    10A1     0.318920
       5B1     0.415336     5B2     0.415336    11A1     0.617846
      12A1     0.879065     2A2     1.107938    13A1     1.107938
       6B1     1.248806     6B2     1.248806    14A1     1.413022
       7B2     1.575306     7B1     1.575306    15A1     1.884378
       8B2     2.258676     8B1     2.258676     3A2     2.268573
      16A1     2.268573     9B1     2.395397     9B2     2.395397
      17A1     2.405245    18A1     2.493398     4A2     2.493398
      10B1     2.655860    10B2     2.655860    19A1     2.733205
      11B2     3.272522    11B1     3.272522    20A1     3.273598
      21A1     4.330563    12B1     4.709794    12B2     4.709794
      22A1     4.734158     5A2     4.734160    13B1     4.958771
      13B2     4.958771    23A1     5.323738     6A2     5.755630
      24A1     5.755683    14B1     6.037309    14B2     6.037309
      25A1     6.617270    26A1     7.821363

    Beta Occupied:

       1A1   -19.644911     2A1   -10.855126     3A1    -1.331180
       4A1    -0.951078     1B1    -0.724852     1B2    -0.724852

    Beta Virtual:

       5A1    -0.648684     2B2    -0.524397     2B1    -0.524397
       6A1    -0.299145     7A1     0.000032     3B1     0.009715
       3B2     0.009715     8A1     0.038201     9A1     0.271515
       4B1     0.299457     4B2     0.299457    10A1     0.306368
       1A2     0.306369     5B1     0.431810     5B2     0.431810
      11A1     0.648681    12A1     0.910012    13A1     1.130493
       2A2     1.130493     6B1     1.281512     6B2     1.281512
      14A1     1.456545     7B2     1.567649     7B1     1.567649
      15A1     1.917724     8B2     2.237731     8B1     2.237731
       3A2     2.269793    16A1     2.269793     9B1     2.403069
       9B2     2.403069    17A1     2.445499    18A1     2.472489
       4A2     2.472490    10B1     2.701288    10B2     2.701288
      19A1     2.793598    11B2     3.309001    11B1     3.309001
      20A1     3.311211    21A1     4.374097    12B1     4.738314
      12B2     4.738314    22A1     4.778178     5A2     4.778179
      13B1     5.013920    13B2     5.013920    23A1     5.395787
       6A2     5.802604    24A1     5.802657    14B1     6.115600
      14B2     6.115600    25A1     6.698976    26A1     7.858171

    Final Occupation by Irrep:
             A1    A2    B1    B2
    DOCC [     4,    0,    1,    1 ]
    SOCC [     1,    0,    0,    0 ]
    NA   [     5,    0,    1,    1 ]
    NB   [     4,    0,    1,    1 ]

  @DF-UKS Final Energy:  -112.65102236473459

   => Energetics <=

    Nuclear Repulsion Energy =             16.0413847557842573
    One-Electron Energy =                -180.1661664540966115
    Two-Electron Energy =                  62.1766772991721126
    DFT Exchange-Correlation Energy =     -10.7029179655943540
    Empirical Dispersion Energy =           0.0000000000000000
    VV10 Nonlocal Energy =                  0.0000000000000000
    Total Energy =                       -112.6510223647345867

  UHF NO Occupations:
  HONO-2 :    1 B1 1.9742331
  HONO-1 :    1 B2 1.9742331
  HONO-0 :    5 A1 1.0000000
  LUNO+0 :    2 B2 0.0257669
  LUNO+1 :    2 B1 0.0257669
  LUNO+2 :    6 A1 0.0094602
  LUNO+3 :    7 A1 0.0002030

Computation Completed

Properties will be evaluated at   0.000000,   0.000000,   0.000000 [a0]

Properties computed using the B3LYP density matrix

 Multipole Moments:

 ------------------------------------------------------------------------------------
     Multipole            Electronic (a.u.)      Nuclear  (a.u.)        Total (a.u.)
 ------------------------------------------------------------------------------------

 L = 1.  Multiply by 2.5417464519 to convert [e a0] to [Debye]
 Dipole X            :          0.0000000            0.0000000            0.0000000
 Dipole Y            :          0.0000000            0.0000000            0.0000000
 Dipole Z            :          1.1847303           -0.0032613            1.1814690
 Magnitude           :                                                    1.1814690

 L = 2.  Multiply by 1.3450342976 to convert [e a0^2] to [Debye ang]
 Quadrupole XX       :         -6.6388312            0.0000000           -6.6388312
 Quadrupole XY       :          0.0000000            0.0000000            0.0000000
 Quadrupole XZ       :          0.0000000            0.0000000            0.0000000
 Quadrupole YY       :         -6.6388312            0.0000000           -6.6388312
 Quadrupole YZ       :          0.0000000            0.0000000            0.0000000
 Quadrupole ZZ       :        -33.0940172           30.6981339           -2.3958833
 Traceless XX        :          8.8183953          -10.2327113           -1.4143160
 Traceless YY        :          8.8183953          -10.2327113           -1.4143160
 Traceless ZZ        :        -17.6367907           20.4654226            2.8286319

 ------------------------------------------------------------------------------------
  ==> Computing MBIS Charges <==

  Electron Count from Grid (Expected Number): 13.00000 (13.00000)
  Difference: -0.00000

  MBIS Charges: (a.u.)
   Center  Symbol  Z      Pop.       Charge
      1       O    8    7.893095    0.106905
      2       C    6    5.106904    0.893096

  MBIS Dipoles: [e a0]
   Center  Symbol  Z        X           Y           Z
      1       O    8   -0.000000   -0.000000   -0.348285
      2       C    6   -0.000000    0.000000    0.140008

  MBIS Quadrupoles: [e a0^2]
   Center  Symbol  Z      XX        XY        XZ        YY        YZ        ZZ
      1       O    8   -3.6879   -0.0000   -0.0000   -3.6879    0.0000   -3.4596
      2       C    6   -2.9510    0.0000    0.0000   -2.9510    0.0000   -3.0947

  MBIS Octupoles: [e a0^3]
   Center  Symbol  Z      XXX       XXY       XXZ       XYY       XYZ       XZZ       YYY       YYZ       YZZ       ZZZ
      1       O    8   -0.0000   -0.0000   -0.3272   -0.0000    0.0000   -0.0000   -0.0000   -0.3272   -0.0000   -1.0306
      2       C    6   -0.0000   -0.0000    0.3450    0.0000    0.0000    0.0000    0.0000    0.3450    0.0000    0.6950

  MBIS Radial Moments:
   Center  Symbol  Z      [a0^2]      [a0^3]      [a0^4]
      1       O    8   10.835370   19.984869   44.079646
      2       C    6    8.996587   19.675993   51.212317

  MBIS Valence Widths: [a0]
   Center  Symbol  Z     Width
      1       O    8    0.381843
      2       C    6    0.472035

*** tstop() called on Mac.lan at Sun Aug 10 18:39:02 2025
Module time:
	user time   =      15.29 seconds =       0.25 minutes
	system time =       2.86 seconds =       0.05 minutes
	total time  =          2 seconds =       0.03 minutes
Total time:
	user time   =      60.68 seconds =       1.01 minutes
	system time =       5.56 seconds =       0.09 minutes
	total time  =          6 seconds =       0.10 minutes

    Psi4 stopped on: Sunday, 10 August 2025 06:39PM
    Psi4 wall time for execution: 0:00:06.58

*** Psi4 exiting successfully. Buy a developer a beer!
