                               Psi4 1.9.1 release

  ==> Input File <==

--------------------------------------------------------------------------
molecule {
1 1
O           0.000000           0.000000           0.000000
N           0.000000           0.000000           1.352860
}

set {
basis              cc-pvtz
reference          uks
maxiter            500
DAMPING_PERCENTAGE 1
E_CONVERGENCE      1.0E-8
D_CONVERGENCE      1.0E-8
DIIS_MAX_VECS      400
MBIS_MAXITER       8000
guess              read
}

E, wfn = energy('b3lyp', restart_file='last_wfn', return_wfn=True)
properties('b3lyp','MBIS_CHARGES', wfn=wfn)
wfn.to_file('last_wfn')
--------------------------------------------------------------------------

    Molecular point group: c2v
  Charge       = 1
  Multiplicity = 1
  Basis Set: CC-PVTZ
    Blend: CC-PVTZ
  Basis Set: (CC-PVTZ AUX)
    Blend: CC-PVTZ-JKFIT
  @DF-UKS Final Energy:  -129.45105407959366
    Total Energy =                       -129.4510540795936606
 Dipole X            :          0.0000000            0.0000000            0.0000000
 Dipole Y            :          0.0000000            0.0000000            0.0000000
 Dipole Z            :          0.4128864           -0.0051296            0.4077568
 Magnitude           :                                                    0.4077568
    Molecular point group: c2v

    Geometry (in Angstrom), charge = 1, multiplicity = 1:

       Center              X                  Y                   Z               Mass
    ------------   -----------------  -----------------  -----------------  -----------------
         O            0.000000000000     0.000000000000    -0.631515630434    15.994914619570
         N            0.000000000000     0.000000000000     0.721344369566    14.003074004430

  Charge       = 1
  Multiplicity = 1
  Basis Set: CC-PVTZ
    Blend: CC-PVTZ
  Basis Set: (CC-PVTZ AUX)
    Blend: CC-PVTZ-JKFIT

    Orbital Energies [Eh]
    ---------------------

    Alpha Occupied:

       1A1   -19.760941     2A1   -15.012591     3A1    -1.551265
       4A1    -1.138110     5A1    -0.888954     1B1    -0.863919
       1B2    -0.863919

    Alpha Virtual:

       2B1    -0.588667     2B2    -0.588667     6A1    -0.291155
       7A1     0.077042     3B1     0.107363     3B2     0.107363
       8A1     0.148487     9A1     0.239225     4B2     0.282998
       4B1     0.282998    10A1     0.573221     1A2     0.573221
       5B1     0.648387     5B2     0.648387    11A1     0.807633
      12A1     1.099406     2A2     1.099407    13A1     1.163497
       6B2     1.508557     6B1     1.508557    14A1     1.685747
       7B1     2.355237     7B2     2.355237    15A1     2.602598
       8B2     3.028590     8B1     3.028590     3A2     3.335904
      16A1     3.335905     9B1     3.381831     9B2     3.381831
      17A1     3.401864    10B2     3.559541    10B1     3.559541
      18A1     3.852183    19A1     3.899299     4A2     3.899304
      11B1     4.162421    11B2     4.162421    20A1     4.169425
      12B1     4.633626    12B2     4.633626    21A1     4.830030
       5A2     4.830032    22A1     5.053795    13B2     5.437293
      13B1     5.437293    23A1     5.702716     6A2     5.702716
      24A1     5.963953    14B2     6.188343    14B1     6.188343
      25A1     6.927374    26A1     9.099511

    Beta Occupied:

       1A1   -19.760941     2A1   -15.012591     3A1    -1.551265
       4A1    -1.138110     5A1    -0.888954     1B1    -0.863919
       1B2    -0.863919

    Beta Virtual:

       2B1    -0.588667     2B2    -0.588667     6A1    -0.291155
       7A1     0.077042     3B1     0.107363     3B2     0.107363
       8A1     0.148487     9A1     0.239225     4B2     0.282998
       4B1     0.282998    10A1     0.573221     1A2     0.573221
       5B1     0.648387     5B2     0.648387    11A1     0.807633
      12A1     1.099406     2A2     1.099407    13A1     1.163497
       6B2     1.508557     6B1     1.508557    14A1     1.685747
       7B1     2.355237     7B2     2.355237    15A1     2.602598
       8B2     3.028590     8B1     3.028590     3A2     3.335904
      16A1     3.335905     9B1     3.381831     9B2     3.381831
      17A1     3.401864    10B2     3.559541    10B1     3.559541
      18A1     3.852183    19A1     3.899299     4A2     3.899304
      11B1     4.162421    11B2     4.162421    20A1     4.169425
      12B1     4.633626    12B2     4.633626    21A1     4.830030
       5A2     4.830032    22A1     5.053795    13B2     5.437293
      13B1     5.437293    23A1     5.702716     6A2     5.702716
      24A1     5.963953    14B2     6.188343    14B1     6.188343
      25A1     6.927374    26A1     9.099511

    Final Occupation by Irrep:
             A1    A2    B1    B2
    DOCC [     5,    0,    1,    1 ]
    SOCC [     0,    0,    0,    0 ]
    NA   [     5,    0,    1,    1 ]
    NB   [     5,    0,    1,    1 ]

  @DF-UKS Final Energy:  -129.45105407403759

   => Energetics <=

    Nuclear Repulsion Energy =             21.9046492597312401
    One-Electron Energy =                -213.9845299577864921
    Two-Electron Energy =                  74.5329630622022421
    DFT Exchange-Correlation Energy =     -11.9041364381845778
    Empirical Dispersion Energy =           0.0000000000000000
    VV10 Nonlocal Energy =                  0.0000000000000000
    Total Energy =                       -129.4510540740375859

  UHF NO Occupations:
  HONO-2 :    1 B2 2.0000000
  HONO-1 :    1 B1 2.0000000
  HONO-0 :    5 A1 2.0000000
  LUNO+0 :    6 A1 0.0000000
  LUNO+1 :    2 B1 0.0000000
  LUNO+2 :    7 A1 0.0000000
  LUNO+3 :    8 A1 0.0000000

Computation Completed

Properties will be evaluated at   0.000000,   0.000000,   0.000000 [a0]

Properties computed using the B3LYP density matrix

 Multipole Moments:

 ------------------------------------------------------------------------------------
     Multipole            Electronic (a.u.)      Nuclear  (a.u.)        Total (a.u.)
 ------------------------------------------------------------------------------------

 L = 1.  Multiply by 2.5417464519 to convert [e a0] to [Debye]
 Dipole X            :          0.0000000            0.0000000            0.0000000
 Dipole Y            :          0.0000000            0.0000000            0.0000000
 Dipole Z            :          0.4128864           -0.0051296            0.4077568
 Magnitude           :                                                    0.4077568

 L = 2.  Multiply by 1.3450342976 to convert [e a0^2] to [Debye ang]
 Quadrupole XX       :         -6.2289110            0.0000000           -6.2289110
 Quadrupole XY       :          0.0000000            0.0000000            0.0000000
 Quadrupole XZ       :          0.0000000            0.0000000            0.0000000
 Quadrupole YY       :         -6.2289110            0.0000000           -6.2289110
 Quadrupole YZ       :          0.0000000            0.0000000            0.0000000
 Quadrupole ZZ       :        -28.9362928           24.4005854           -4.5357074
 Traceless XX        :          7.5691273           -8.1335285           -0.5644012
 Traceless YY        :          7.5691273           -8.1335285           -0.5644012
 Traceless ZZ        :        -15.1382545           16.2670569            1.1288024

 ------------------------------------------------------------------------------------
  ==> Computing MBIS Charges <==

  Electron Count from Grid (Expected Number): 14.00000 (14.00000)
  Difference: -0.00000

  MBIS Charges: (a.u.)
   Center  Symbol  Z      Pop.       Charge
      1       O    8    7.689217    0.310783
      2       N    7    6.310783    0.689217

  MBIS Dipoles: [e a0]
   Center  Symbol  Z        X           Y           Z
      1       O    8   -0.000000    0.000000   -0.165586
      2       N    7   -0.000000    0.000000    0.004726

  MBIS Quadrupoles: [e a0^2]
   Center  Symbol  Z      XX        XY        XZ        YY        YZ        ZZ
      1       O    8   -3.2431    0.0000   -0.0000   -3.2431   -0.0000   -3.3616
      2       N    7   -2.9858    0.0000    0.0000   -2.9858    0.0000   -3.3055

  MBIS Octupoles: [e a0^3]
   Center  Symbol  Z      XXX       XXY       XXZ       XYY       XYZ       XZZ       YYY       YYZ       YZZ       ZZZ
      1       O    8   -0.0000   -0.0000   -0.1609   -0.0000    0.0000   -0.0000   -0.0000   -0.1609    0.0000   -0.4766
      2       N    7   -0.0000   -0.0000    0.1360   -0.0000   -0.0000    0.0000   -0.0000    0.1360    0.0000    0.2864

  MBIS Radial Moments:
   Center  Symbol  Z      [a0^2]      [a0^3]      [a0^4]
      1       O    8    9.847719   17.452359   37.026375
      2       N    7    9.277200   17.912043   41.254736

  MBIS Valence Widths: [a0]
   Center  Symbol  Z     Width
      1       O    8    0.370290
      2       N    7    0.410521

*** tstop() called on Mac.lan at Sun Aug 10 18:42:32 2025
Module time:
	user time   =      10.39 seconds =       0.17 minutes
	system time =       2.16 seconds =       0.04 minutes
	total time  =          1 seconds =       0.02 minutes
Total time:
	user time   =      23.13 seconds =       0.39 minutes
	system time =       4.00 seconds =       0.07 minutes
	total time  =          3 seconds =       0.05 minutes

    Psi4 stopped on: Sunday, 10 August 2025 06:42PM
    Psi4 wall time for execution: 0:00:02.77

*** Psi4 exiting successfully. Buy a developer a beer!
