                               Psi4 1.9.1 release

  ==> Input File <==

--------------------------------------------------------------------------
molecule {
1 2
O           0.000000           0.000000           0.000000
C           0.000000           0.000000           1.603824
}

set {
basis              cc-pvtz
reference          uks
maxiter            500
DAMPING_PERCENTAGE 1
E_CONVERGENCE      1.0E-8
D_CONVERGENCE      1.0E-8
DIIS_MAX_VECS      400
MBIS_MAXITER       8000
guess              read
}

E, wfn = energy('b3lyp', restart_file='last_wfn', return_wfn=True)
properties('b3lyp','MBIS_CHARGES', wfn=wfn)
wfn.to_file('last_wfn')
--------------------------------------------------------------------------

    Molecular point group: c2v
  Charge       = 1
  Multiplicity = 2
  Basis Set: CC-PVTZ
    Blend: CC-PVTZ
  Basis Set: (CC-PVTZ AUX)
    Blend: CC-PVTZ-JKFIT
  @DF-UKS Final Energy:  -112.64341189092002
    Total Energy =                       -112.6434118909200208
 Dipole X            :          0.0000000            0.0000000            0.0000000
 Dipole Y            :          0.0000000            0.0000000            0.0000000
 Dipole Z            :          1.1729639           -0.0033033            1.1696606
 Magnitude           :                                                    1.1696606
    Molecular point group: c2v

    Geometry (in Angstrom), charge = 1, multiplicity = 2:

       Center              X                  Y                   Z               Mass
    ------------   -----------------  -----------------  -----------------  -----------------
         O            0.000000000000     0.000000000000    -0.687478003114    15.994914619570
         C            0.000000000000     0.000000000000     0.916345996886    12.000000000000

  Charge       = 1
  Multiplicity = 2
  Basis Set: CC-PVTZ
    Blend: CC-PVTZ
  Basis Set: (CC-PVTZ AUX)
    Blend: CC-PVTZ-JKFIT

    Orbital Energies [Eh]
    ---------------------

    Alpha Occupied:

       1A1   -19.671869     2A1   -10.854391     3A1    -1.394553
       4A1    -0.994452     5A1    -0.822742     1B1    -0.766446
       1B2    -0.766446

    Alpha Virtual:

       2B1    -0.521559     2B2    -0.521559     6A1    -0.369880
       7A1    -0.010240     3B1     0.017467     3B2     0.017467
       8A1     0.023211     9A1     0.245671     4B1     0.276642
       4B2     0.276642     1A2     0.323055    10A1     0.323055
       5B1     0.415299     5B2     0.415299    11A1     0.611377
      12A1     0.878463     2A2     1.104968    13A1     1.104968
       6B1     1.241498     6B2     1.241498    14A1     1.393103
       7B2     1.575253     7B1     1.575253    15A1     1.895693
       8B2     2.264134     8B1     2.264134     3A2     2.270063
      16A1     2.270064     9B1     2.392876     9B2     2.392876
      17A1     2.396664    18A1     2.499548     4A2     2.499549
      10B1     2.653525    10B2     2.653525    19A1     2.732663
      11B2     3.259609    11B1     3.259609    20A1     3.275044
      21A1     4.278377    12B2     4.706575    12B1     4.706575
      22A1     4.725488     5A2     4.725490    13B1     4.936148
      13B2     4.936148    23A1     5.281082     6A2     5.748539
      24A1     5.748589    14B2     6.018798    14B1     6.018798
      25A1     6.575410    26A1     7.791414

    Beta Occupied:

       1A1   -19.642712     2A1   -10.853756     3A1    -1.322553
       4A1    -0.953502     1B2    -0.719030     1B1    -0.719030

    Beta Virtual:

       5A1    -0.645885     2B1    -0.527220     2B2    -0.527220
       6A1    -0.308645     7A1     0.001222     3B1     0.009801
       3B2     0.009801     8A1     0.039077     9A1     0.273298
       4B1     0.297627     4B2     0.297627    10A1     0.306008
       1A2     0.306008     5B1     0.430943     5B2     0.430943
      11A1     0.641450    12A1     0.911938    13A1     1.132146
       2A2     1.132146     6B2     1.275932     6B1     1.275932
      14A1     1.437493     7B2     1.562863     7B1     1.562863
      15A1     1.926661     8B2     2.236351     8B1     2.236351
       3A2     2.266292    16A1     2.266292     9B1     2.396118
       9B2     2.396118    17A1     2.436045    18A1     2.469687
       4A2     2.469688    10B1     2.694673    10B2     2.694673
      19A1     2.789863    11B2     3.302801    11B1     3.302801
      20A1     3.310266    21A1     4.324661    12B2     4.741853
      12B1     4.741853    22A1     4.775099     5A2     4.775099
      13B1     4.996013    13B2     4.996013    23A1     5.356201
       6A2     5.805519    24A1     5.805569    14B2     6.104463
      14B1     6.104463    25A1     6.663125    26A1     7.833730

    Final Occupation by Irrep:
             A1    A2    B1    B2
    DOCC [     4,    0,    1,    1 ]
    SOCC [     1,    0,    0,    0 ]
    NA   [     5,    0,    1,    1 ]
    NB   [     4,    0,    1,    1 ]

  @DF-UKS Final Energy:  -112.64341191015814

   => Energetics <=

    Nuclear Repulsion Energy =             15.8374647792775267
    One-Electron Energy =                -179.7700217028844918
    Two-Electron Energy =                  61.9911428759263003
    DFT Exchange-Correlation Energy =     -10.7019978624774765
    Empirical Dispersion Energy =           0.0000000000000000
    VV10 Nonlocal Energy =                  0.0000000000000000
    Total Energy =                       -112.6434119101581359

  UHF NO Occupations:
  HONO-2 :    1 B2 1.9590509
  HONO-1 :    1 B1 1.9590509
  HONO-0 :    5 A1 1.0000000
  LUNO+0 :    2 B1 0.0409491
  LUNO+1 :    2 B2 0.0409491
  LUNO+2 :    6 A1 0.0104789
  LUNO+3 :    7 A1 0.0002268

Computation Completed

Properties will be evaluated at   0.000000,   0.000000,   0.000000 [a0]

Properties computed using the B3LYP density matrix

 Multipole Moments:

 ------------------------------------------------------------------------------------
     Multipole            Electronic (a.u.)      Nuclear  (a.u.)        Total (a.u.)
 ------------------------------------------------------------------------------------

 L = 1.  Multiply by 2.5417464519 to convert [e a0] to [Debye]
 Dipole X            :          0.0000000            0.0000000            0.0000000
 Dipole Y            :          0.0000000            0.0000000            0.0000000
 Dipole Z            :          1.1729643           -0.0033033            1.1696610
 Magnitude           :                                                    1.1696610

 L = 2.  Multiply by 1.3450342976 to convert [e a0^2] to [Debye ang]
 Quadrupole XX       :         -6.6562758            0.0000000           -6.6562758
 Quadrupole XY       :          0.0000000            0.0000000            0.0000000
 Quadrupole XZ       :          0.0000000            0.0000000            0.0000000
 Quadrupole YY       :         -6.6562758            0.0000000           -6.6562758
 Quadrupole YZ       :          0.0000000            0.0000000            0.0000000
 Quadrupole ZZ       :        -33.8268356           31.4937491           -2.3330865
 Traceless XX        :          9.0568533          -10.4979164           -1.4410631
 Traceless YY        :          9.0568533          -10.4979164           -1.4410631
 Traceless ZZ        :        -18.1137065           20.9958327            2.8821262

 ------------------------------------------------------------------------------------
  ==> Computing MBIS Charges <==

  Electron Count from Grid (Expected Number): 13.00000 (13.00000)
  Difference: -0.00000

  MBIS Charges: (a.u.)
   Center  Symbol  Z      Pop.       Charge
      1       O    8    7.881262    0.118738
      2       C    6    5.118737    0.881263

  MBIS Dipoles: [e a0]
   Center  Symbol  Z        X           Y           Z
      1       O    8   -0.000000   -0.000000   -0.341993
      2       C    6    0.000000    0.000000    0.139878

  MBIS Quadrupoles: [e a0^2]
   Center  Symbol  Z      XX        XY        XZ        YY        YZ        ZZ
      1       O    8   -3.6793   -0.0000   -0.0000   -3.6793    0.0000   -3.4427
      2       C    6   -2.9769    0.0000    0.0000   -2.9769    0.0000   -3.1063

  MBIS Octupoles: [e a0^3]
   Center  Symbol  Z      XXX       XXY       XXZ       XYY       XYZ       XZZ       YYY       YYZ       YZZ       ZZZ
      1       O    8    0.0000   -0.0000   -0.3215    0.0000    0.0000   -0.0000   -0.0000   -0.3215   -0.0000   -1.0198
      2       C    6   -0.0000   -0.0000    0.3471    0.0000    0.0000    0.0000    0.0000    0.3471    0.0000    0.7151

  MBIS Radial Moments:
   Center  Symbol  Z      [a0^2]      [a0^3]      [a0^4]
      1       O    8   10.801426   19.921314   43.950826
      2       C    6    9.060192   19.860028   51.817903

  MBIS Valence Widths: [a0]
   Center  Symbol  Z     Width
      1       O    8    0.381541
      2       C    6    0.472901

*** tstop() called on Mac.lan at Sun Aug 10 18:39:10 2025
Module time:
	user time   =      26.12 seconds =       0.44 minutes
	system time =       1.98 seconds =       0.03 minutes
	total time  =          3 seconds =       0.05 minutes
Total time:
	user time   =      70.71 seconds =       1.18 minutes
	system time =       3.94 seconds =       0.07 minutes
	total time  =          7 seconds =       0.12 minutes

    Psi4 stopped on: Sunday, 10 August 2025 06:39PM
    Psi4 wall time for execution: 0:00:07.55

*** Psi4 exiting successfully. Buy a developer a beer!
