                               Psi4 1.9.1 release

  ==> Input File <==

--------------------------------------------------------------------------
molecule {
1 2
O           0.000000           0.000000           0.000000
O           0.000000           0.000000           0.826348
}

set {
basis              cc-pvtz
reference          uks
maxiter            500
DAMPING_PERCENTAGE 1
E_CONVERGENCE      1.0E-8
D_CONVERGENCE      1.0E-8
DIIS_MAX_VECS      400
MBIS_MAXITER       8000
guess              read
}

E, wfn = energy('b3lyp', restart_file='last_wfn', return_wfn=True)
properties('b3lyp','MBIS_CHARGES', wfn=wfn)
wfn.to_file('last_wfn')
--------------------------------------------------------------------------

    Molecular point group: d2h
  Charge       = 1
  Multiplicity = 2
  Basis Set: CC-PVTZ
    Blend: CC-PVTZ
  Basis Set: (CC-PVTZ AUX)
    Blend: CC-PVTZ-JKFIT
  @DF-UKS Final Energy:  -149.52249454686537
    Total Energy =                       -149.5224945468653459
 Dipole X            :          0.0000000            0.0000000            0.0000000
 Dipole Y            :          0.0000000            0.0000000            0.0000000
 Dipole Z            :          0.0000000            0.0000000            0.0000000
 Magnitude           :                                                    0.0000000
    Molecular point group: d2h

    Geometry (in Angstrom), charge = 1, multiplicity = 2:

       Center              X                  Y                   Z               Mass
    ------------   -----------------  -----------------  -----------------  -----------------
         O            0.000000000000     0.000000000000    -0.413174000000    15.994914619570
         O            0.000000000000     0.000000000000     0.413174000000    15.994914619570

  Charge       = 1
  Multiplicity = 2
  Basis Set: CC-PVTZ
    Blend: CC-PVTZ
  Basis Set: (CC-PVTZ AUX)
    Blend: CC-PVTZ-JKFIT

    Orbital Energies [Eh]
    ---------------------

    Alpha Occupied:

       1Ag   -19.796841     1B1u  -19.787903     2Ag    -2.223045
       1B3u   -1.269414     1B2u   -1.244263     2B1u   -1.174317
       3Ag    -1.092831     1B2g   -0.570540

    Alpha Virtual:

       1B3g   -0.443113     3B1u    0.046402     2B2u    0.076346
       2B3u    0.078854     4Ag     0.155821     5Ag     0.254560
       2B2g    0.307545     2B3g    0.320074     1B1g    0.680457
       6Ag     0.681781     4B1u    0.690363     5B1u    0.932428
       3B3u    1.163310     3B2u    1.166369     1Au     1.366185
       6B1u    1.368130     7Ag     1.690833     3B2g    1.861963
       3B3g    1.869213     7B1u    2.435183     4B3u    2.873835
       4B2u    2.882204     8Ag     3.465392     4B2g    3.583803
       4B3g    3.593831     8B1u    3.958044     5B3u    4.095565
       5B2u    4.095767     2B1g    4.134397     9Ag     4.135671
       6B2u    4.540755     6B3u    4.541968     5B2g    5.001033
       5B3g    5.001316    10Ag     5.068302     6B2g    5.348012
       6B3g    5.352891     3B1g    5.505834    11Ag     5.509427
       2Au     5.646388     9B1u    5.650002    12Ag     5.907295
      10B1u    6.102941     3Au     6.432316    11B1u    6.434257
       7B2u    6.495840     7B3u    6.497143    12B1u    7.842270
       7B2g    8.860347     7B3g    8.861945    13Ag     9.552634
      13B1u   28.101212

    Beta Occupied:

       1Ag   -19.781331     1B1u  -19.772199     2Ag    -2.204184
       1B2u   -1.231728     1B3u   -1.185102     2B1u   -1.128390
       3Ag    -1.063946

    Beta Virtual:

       1B3g   -0.425602     1B2g   -0.378758     3B1u    0.052843
       2B2u    0.079210     2B3u    0.098279     4Ag     0.158012
       5Ag     0.268240     2B3g    0.325983     2B2g    0.346547
       1B1g    0.701085     6Ag     0.701349     4B1u    0.708961
       5B1u    0.954885     3B2u    1.170659     3B3u    1.203045
       1Au     1.402520     6B1u    1.402793     7Ag     1.700560
       3B3g    1.874648     3B2g    1.900101     7B1u    2.452116
       4B2u    2.892269     4B3u    2.931018     8Ag     3.477891
       4B3g    3.605649     4B2g    3.646572     8B1u    3.984656
       5B2u    4.125862     5B3u    4.125884     2B1g    4.152172
       9Ag     4.152664     6B2u    4.546031     6B3u    4.582832
       5B3g    5.041807     5B2g    5.041834    10Ag     5.083814
       6B3g    5.357533     6B2g    5.391188    11Ag     5.560315
       3B1g    5.560553     9B1u    5.700486     2Au     5.701184
      12Ag     5.928472    10B1u    6.122847     3Au     6.464549
      11B1u    6.465196     7B2u    6.500758     7B3u    6.538303
      12B1u    7.860189     7B3g    8.869008     7B2g    8.908396
      13Ag     9.576349    13B1u   28.120456

    Final Occupation by Irrep:
             Ag   B1g   B2g   B3g    Au   B1u   B2u   B3u
    DOCC [     3,    0,    0,    0,    0,    2,    1,    1 ]
    SOCC [     0,    0,    1,    0,    0,    0,    0,    0 ]
    NA   [     3,    0,    1,    0,    0,    2,    1,    1 ]
    NB   [     3,    0,    0,    0,    0,    2,    1,    1 ]

  @DF-UKS Final Energy:  -149.52249454697179

   => Energetics <=

    Nuclear Repulsion Energy =             40.9843570540256863
    One-Electron Energy =                -277.5600530530362562
    Two-Electron Energy =                 100.8935543221301145
    DFT Exchange-Correlation Energy =     -13.8403528700913334
    Empirical Dispersion Energy =           0.0000000000000000
    VV10 Nonlocal Energy =                  0.0000000000000000
    Total Energy =                       -149.5224945469717852

  UHF NO Occupations:
  HONO-2 :    2B1u 1.9997881
  HONO-1 :    1B3u 1.9996639
  HONO-0 :    1B2g 1.0000000
  LUNO+0 :    2B3u 0.0003361
  LUNO+1 :    3B1u 0.0002119
  LUNO+2 :    4 Ag 0.0001346
  LUNO+3 :    2B2u 0.0000162

Computation Completed

Properties will be evaluated at   0.000000,   0.000000,   0.000000 [a0]

Properties computed using the B3LYP density matrix

 Multipole Moments:

 ------------------------------------------------------------------------------------
     Multipole            Electronic (a.u.)      Nuclear  (a.u.)        Total (a.u.)
 ------------------------------------------------------------------------------------

 L = 1.  Multiply by 2.5417464519 to convert [e a0] to [Debye]
 Dipole X            :          0.0000000            0.0000000            0.0000000
 Dipole Y            :          0.0000000            0.0000000            0.0000000
 Dipole Z            :          0.0000000            0.0000000            0.0000000
 Magnitude           :                                                    0.0000000

 L = 2.  Multiply by 1.3450342976 to convert [e a0^2] to [Debye ang]
 Quadrupole XX       :         -5.7020266            0.0000000           -5.7020266
 Quadrupole XY       :          0.0000000            0.0000000            0.0000000
 Quadrupole XZ       :          0.0000000            0.0000000            0.0000000
 Quadrupole YY       :         -5.0813460            0.0000000           -5.0813460
 Quadrupole YZ       :          0.0000000            0.0000000            0.0000000
 Quadrupole ZZ       :        -15.3628658            9.7540210           -5.6088447
 Traceless XX        :          3.0133862           -3.2513403           -0.2379542
 Traceless YY        :          3.6340668           -3.2513403            0.3827265
 Traceless ZZ        :         -6.6474530            6.5026807           -0.1447723

 ------------------------------------------------------------------------------------
  ==> Computing MBIS Charges <==

  Electron Count from Grid (Expected Number): 15.00000 (15.00000)
  Difference: -0.00000

  MBIS Charges: (a.u.)
   Center  Symbol  Z      Pop.       Charge
      1       O    8    7.500000    0.500000
      2       O    8    7.500000    0.500000

  MBIS Dipoles: [e a0]
   Center  Symbol  Z        X           Y           Z
      1       O    8   -0.000000    0.000000    0.089033
      2       O    8    0.000000   -0.000000   -0.089033

  MBIS Quadrupoles: [e a0^2]
   Center  Symbol  Z      XX        XY        XZ        YY        YZ        ZZ
      1       O    8   -2.8510    0.0000    0.0000   -2.5407   -0.0000   -2.9702
      2       O    8   -2.8510    0.0000   -0.0000   -2.5407    0.0000   -2.9702

  MBIS Octupoles: [e a0^3]
   Center  Symbol  Z      XXX       XXY       XXZ       XYY       XYZ       XZZ       YYY       YYZ       YZZ       ZZZ
      1       O    8   -0.0000   -0.0000    0.1965   -0.0000   -0.0000   -0.0000    0.0000    0.0742    0.0000    0.0917
      2       O    8   -0.0000   -0.0000   -0.1965   -0.0000    0.0000   -0.0000    0.0000   -0.0742    0.0000   -0.0917

  MBIS Radial Moments:
   Center  Symbol  Z      [a0^2]      [a0^3]      [a0^4]
      1       O    8    8.361891   13.902171   27.851853
      2       O    8    8.361891   13.902171   27.851853

  MBIS Valence Widths: [a0]
   Center  Symbol  Z     Width
      1       O    8    0.344386
      2       O    8    0.344386

*** tstop() called on Mac.lan at Sun Aug 10 18:13:02 2025
Module time:
	user time   =       9.23 seconds =       0.15 minutes
	system time =       2.52 seconds =       0.04 minutes
	total time  =          1 seconds =       0.02 minutes
Total time:
	user time   =      22.11 seconds =       0.37 minutes
	system time =       4.89 seconds =       0.08 minutes
	total time  =          3 seconds =       0.05 minutes

    Psi4 stopped on: Sunday, 10 August 2025 06:13PM
    Psi4 wall time for execution: 0:00:02.69

*** Psi4 exiting successfully. Buy a developer a beer!
