                               Psi4 1.9.1 release

  ==> Input File <==

--------------------------------------------------------------------------
molecule {
1 1
O           0.000000           0.000000           0.000000
N           0.000000           0.000000           1.022736
}

set {
basis              cc-pvtz
reference          uks
maxiter            500
DAMPING_PERCENTAGE 1
E_CONVERGENCE      1.0E-8
D_CONVERGENCE      1.0E-8
DIIS_MAX_VECS      400
MBIS_MAXITER       8000
guess              read
}

E, wfn = energy('b3lyp', restart_file='last_wfn', return_wfn=True)
properties('b3lyp','MBIS_CHARGES', wfn=wfn)
wfn.to_file('last_wfn')
--------------------------------------------------------------------------

    Molecular point group: c2v
  Charge       = 1
  Multiplicity = 1
  Basis Set: CC-PVTZ
    Blend: CC-PVTZ
  Basis Set: (CC-PVTZ AUX)
    Blend: CC-PVTZ-JKFIT
  @DF-UKS Final Energy:  -129.58235438946477
    Total Energy =                       -129.5823543894647685
 Dipole X            :          0.0000000            0.0000000            0.0000000
 Dipole Y            :          0.0000000            0.0000000            0.0000000
 Dipole Z            :          0.1264217           -0.0038779            0.1225438
 Magnitude           :                                                    0.1225438
    Molecular point group: c2v

    Geometry (in Angstrom), charge = 1, multiplicity = 1:

       Center              X                  Y                   Z               Mass
    ------------   -----------------  -----------------  -----------------  -----------------
         O            0.000000000000     0.000000000000    -0.477413605109    15.994914619570
         N            0.000000000000     0.000000000000     0.545322394891    14.003074004430

  Charge       = 1
  Multiplicity = 1
  Basis Set: CC-PVTZ
    Blend: CC-PVTZ
  Basis Set: (CC-PVTZ AUX)
    Blend: CC-PVTZ-JKFIT

    Orbital Energies [Eh]
    ---------------------

    Alpha Occupied:

       1A1   -19.767435     2A1   -14.950240     3A1    -1.818686
       4A1    -1.092476     1B2    -1.009684     1B1    -1.009684
       5A1    -0.921791

    Alpha Virtual:

       2B1    -0.474762     2B2    -0.474762     6A1    -0.057199
       3B1     0.076323     3B2     0.076323     7A1     0.122916
       8A1     0.196485     4B2     0.284734     4B1     0.284734
       9A1     0.337449     1A2     0.522503    10A1     0.522503
       5B2     0.807224     5B1     0.807224    11A1     0.830986
       2A2     1.172235    12A1     1.172236    13A1     1.385590
       6B2     1.669965     6B1     1.669965    14A1     1.900842
       7B2     2.380155     7B1     2.380155    15A1     2.680093
       8B1     3.209673     8B2     3.209673    16A1     3.276694
       9B1     3.331314     9B2     3.331314    17A1     3.368190
       3A2     3.368190    10B1     3.647549    10B2     3.647549
       4A2     3.930139    18A1     3.930140    19A1     4.063486
      11B2     4.356011    11B1     4.356011    12B1     4.644787
      12B2     4.644787    20A1     4.753758     5A2     5.364803
      21A1     5.364804     6A2     5.713917    22A1     5.713921
      13B1     6.089822    13B2     6.089822    23A1     6.173107
      24A1     6.657013    14B1     6.937105    14B2     6.937105
      25A1     7.278851    26A1    16.537835

    Beta Occupied:

       1A1   -19.767435     2A1   -14.950240     3A1    -1.818686
       4A1    -1.092476     1B2    -1.009684     1B1    -1.009684
       5A1    -0.921791

    Beta Virtual:

       2B1    -0.474762     2B2    -0.474762     6A1    -0.057199
       3B1     0.076323     3B2     0.076323     7A1     0.122916
       8A1     0.196485     4B2     0.284734     4B1     0.284734
       9A1     0.337449     1A2     0.522503    10A1     0.522503
       5B2     0.807224     5B1     0.807224    11A1     0.830986
       2A2     1.172235    12A1     1.172236    13A1     1.385590
       6B2     1.669965     6B1     1.669965    14A1     1.900842
       7B2     2.380155     7B1     2.380155    15A1     2.680093
       8B1     3.209673     8B2     3.209673    16A1     3.276694
       9B1     3.331314     9B2     3.331314    17A1     3.368190
       3A2     3.368190    10B1     3.647549    10B2     3.647549
       4A2     3.930139    18A1     3.930140    19A1     4.063486
      11B2     4.356011    11B1     4.356011    12B1     4.644787
      12B2     4.644787    20A1     4.753758     5A2     5.364803
      21A1     5.364804     6A2     5.713917    22A1     5.713921
      13B1     6.089822    13B2     6.089822    23A1     6.173107
      24A1     6.657013    14B1     6.937105    14B2     6.937105
      25A1     7.278851    26A1    16.537835

    Final Occupation by Irrep:
             A1    A2    B1    B2
    DOCC [     5,    0,    1,    1 ]
    SOCC [     0,    0,    0,    0 ]
    NA   [     5,    0,    1,    1 ]
    NB   [     5,    0,    1,    1 ]

  @DF-UKS Final Energy:  -129.58235438996400

   => Energetics <=

    Nuclear Repulsion Energy =             28.9751449030052761
    One-Electron Energy =                -227.2297216687270520
    Two-Electron Energy =                  80.8388561367136731
    DFT Exchange-Correlation Energy =     -12.1666337609559037
    Empirical Dispersion Energy =           0.0000000000000000
    VV10 Nonlocal Energy =                  0.0000000000000000
    Total Energy =                       -129.5823543899639958

  UHF NO Occupations:
  HONO-2 :    1 B2 2.0000000
  HONO-1 :    4 A1 2.0000000
  HONO-0 :    5 A1 2.0000000
  LUNO+0 :    6 A1 0.0000000
  LUNO+1 :    7 A1 0.0000000
  LUNO+2 :    8 A1 0.0000000
  LUNO+3 :    9 A1 0.0000000

Computation Completed

Properties will be evaluated at   0.000000,   0.000000,   0.000000 [a0]

Properties computed using the B3LYP density matrix

 Multipole Moments:

 ------------------------------------------------------------------------------------
     Multipole            Electronic (a.u.)      Nuclear  (a.u.)        Total (a.u.)
 ------------------------------------------------------------------------------------

 L = 1.  Multiply by 2.5417464519 to convert [e a0] to [Debye]
 Dipole X            :          0.0000000            0.0000000            0.0000000
 Dipole Y            :          0.0000000            0.0000000            0.0000000
 Dipole Z            :          0.1264217           -0.0038779            0.1225438
 Magnitude           :                                                    0.1225438

 L = 2.  Multiply by 1.3450342976 to convert [e a0^2] to [Debye ang]
 Quadrupole XX       :         -5.7460460            0.0000000           -5.7460460
 Quadrupole XY       :          0.0000000            0.0000000            0.0000000
 Quadrupole XZ       :          0.0000000            0.0000000            0.0000000
 Quadrupole YY       :         -5.7460460            0.0000000           -5.7460460
 Quadrupole YZ       :          0.0000000            0.0000000            0.0000000
 Quadrupole ZZ       :        -19.4139918           13.9450996           -5.4688922
 Traceless XX        :          4.5559819           -4.6483665           -0.0923846
 Traceless YY        :          4.5559819           -4.6483665           -0.0923846
 Traceless ZZ        :         -9.1119639            9.2967331            0.1847692

 ------------------------------------------------------------------------------------
  ==> Computing MBIS Charges <==

  Electron Count from Grid (Expected Number): 14.00000 (14.00000)
  Difference:  0.00000

  MBIS Charges: (a.u.)
   Center  Symbol  Z      Pop.       Charge
      1       O    8    7.613243    0.386757
      2       N    7    6.386757    0.613243

  MBIS Dipoles: [e a0]
   Center  Symbol  Z        X           Y           Z
      1       O    8   -0.000000    0.000000   -0.077554
      2       N    7    0.000000   -0.000000   -0.082929

  MBIS Quadrupoles: [e a0^2]
   Center  Symbol  Z      XX        XY        XZ        YY        YZ        ZZ
      1       O    8   -2.9082   -0.0000   -0.0000   -2.9082    0.0000   -3.1385
      2       N    7   -2.8379   -0.0000   -0.0000   -2.8379   -0.0000   -3.2655

  MBIS Octupoles: [e a0^3]
   Center  Symbol  Z      XXX       XXY       XXZ       XYY       XYZ       XZZ       YYY       YYZ       YZZ       ZZZ
      1       O    8    0.0000    0.0000   -0.0463    0.0000   -0.0000   -0.0000   -0.0000   -0.0463    0.0000   -0.1370
      2       N    7    0.0000   -0.0000   -0.0175   -0.0000    0.0000    0.0000   -0.0000   -0.0175   -0.0000   -0.1143

  MBIS Radial Moments:
   Center  Symbol  Z      [a0^2]      [a0^3]      [a0^4]
      1       O    8    8.954780   15.123479   30.594495
      2       N    7    8.941248   16.784993   37.593738

  MBIS Valence Widths: [a0]
   Center  Symbol  Z     Width
      1       O    8    0.354648
      2       N    7    0.398445

*** tstop() called on Mac.lan at Sun Aug 10 18:39:53 2025
Module time:
	user time   =       3.91 seconds =       0.07 minutes
	system time =       2.50 seconds =       0.04 minutes
	total time  =          1 seconds =       0.02 minutes
Total time:
	user time   =      17.72 seconds =       0.30 minutes
	system time =       4.45 seconds =       0.07 minutes
	total time  =          2 seconds =       0.03 minutes

    Psi4 stopped on: Sunday, 10 August 2025 06:39PM
    Psi4 wall time for execution: 0:00:02.21

*** Psi4 exiting successfully. Buy a developer a beer!
