                               Psi4 1.9.1 release

  ==> Input File <==

--------------------------------------------------------------------------
molecule {
1 2
N           0.000000           0.000000           0.000000
N           0.000000           0.000000           0.744031
}

set {
basis              cc-pvtz
reference          uks
maxiter            500
DAMPING_PERCENTAGE 1
E_CONVERGENCE      1.0E-8
D_CONVERGENCE      1.0E-8
DIIS_MAX_VECS      400
MBIS_MAXITER       8000
guess              read
}

E, wfn = energy('b3lyp', restart_file='last_wfn', return_wfn=True)
properties('b3lyp','MBIS_CHARGES', wfn=wfn)
wfn.to_file('last_wfn')
--------------------------------------------------------------------------

    Molecular point group: d2h
  Charge       = 1
  Multiplicity = 2
  Basis Set: CC-PVTZ
    Blend: CC-PVTZ
  Basis Set: (CC-PVTZ AUX)
    Blend: CC-PVTZ-JKFIT
  @DF-UKS Final Energy:  -108.09745064134955
    Total Energy =                       -108.0974506413495533
 Dipole X            :          0.0000000            0.0000000            0.0000000
 Dipole Y            :          0.0000000            0.0000000            0.0000000
 Dipole Z            :          0.0000000            0.0000000            0.0000000
 Magnitude           :                                                    0.0000000
    Molecular point group: d2h

    Geometry (in Angstrom), charge = 1, multiplicity = 2:

       Center              X                  Y                   Z               Mass
    ------------   -----------------  -----------------  -----------------  -----------------
         N            0.000000000000     0.000000000000    -0.372015500000    14.003074004430
         N            0.000000000000     0.000000000000     0.372015500000    14.003074004430

  Charge       = 1
  Multiplicity = 2
  Basis Set: CC-PVTZ
    Blend: CC-PVTZ
  Basis Set: (CC-PVTZ AUX)
    Blend: CC-PVTZ-JKFIT

    Orbital Energies [Eh]
    ---------------------

    Alpha Occupied:

       1Ag   -14.900248     1B1u  -14.843509     2Ag    -1.765734
       1B2u   -1.108716     1B3u   -1.108716     3Ag    -0.953071
       2B1u   -0.930764

    Alpha Virtual:

       1B2g   -0.230986     1B3g   -0.230986     2B3u    0.009178
       2B2u    0.009178     3B1u    0.018213     4Ag     0.064223
       5Ag     0.148798     2B3g    0.279507     2B2g    0.279507
       6Ag     0.439796     1B1g    0.439796     4B1u    0.522919
       3B2u    0.919030     3B3u    0.919030     5B1u    0.982887
       1Au     1.015496     6B1u    1.015496     7Ag     1.151068
       3B3g    1.336880     3B2g    1.336880     4B3u    2.100921
       4B2u    2.100921     7B1u    2.553618     8Ag     2.785321
       4B3g    3.014470     4B2g    3.014470     5B2u    3.029589
       5B3u    3.029589     9Ag     3.148796     2B1g    3.148796
       8B1u    3.155684     6B3u    3.538505     6B2u    3.538505
      10Ag     3.740842     2Au     3.882545     9B1u    3.882545
       5B3g    3.953824     5B2g    3.953824     6B3g    3.990550
       6B2g    3.990550     3B1g    4.048966    11Ag     4.048966
      12Ag     4.283589    10B1u    4.814254     7B2u    5.256053
       7B3u    5.256053    11B1u    5.585427     3Au     5.585427
      12B1u    7.285636     7B3g    7.426223     7B2g    7.426223
      13Ag     8.445077    13B1u   27.278789

    Beta Occupied:

       1Ag   -14.884271     1B1u  -14.829251     2Ag    -1.730473
       1B2u   -1.093117     1B3u   -1.093117     2B1u   -0.835207

    Beta Virtual:

       3Ag    -0.767768     1B2g   -0.204351     1B3g   -0.204351
       2B3u    0.014302     2B2u    0.014302     3B1u    0.031080
       4Ag     0.081955     5Ag     0.177784     2B3g    0.289816
       2B2g    0.289816     6Ag     0.447099     1B1g    0.447099
       4B1u    0.546977     3B2u    0.950144     3B3u    0.950144
       5B1u    1.011189     1Au     1.029118     6B1u    1.029118
       7Ag     1.188101     3B3g    1.355560     3B2g    1.355560
       4B3u    2.112976     4B2u    2.112976     7B1u    2.627777
       8Ag     2.816212     4B3g    3.029049     4B2g    3.029049
       5B2u    3.035929     5B3u    3.035929     9Ag     3.154046
       2B1g    3.154046     8B1u    3.176348     6B3u    3.595630
       6B2u    3.595630    10Ag     3.816228     2Au     3.915459
       9B1u    3.915459     5B3g    4.004005     5B2g    4.004005
       6B3g    4.006743     6B2g    4.006743    11Ag     4.081718
       3B1g    4.081718    12Ag     4.325828    10B1u    4.867832
       7B2u    5.294850     7B3u    5.294850    11B1u    5.600667
       3Au     5.600667    12B1u    7.344104     7B3g    7.467089
       7B2g    7.467089    13Ag     8.474817    13B1u   27.302096

    Final Occupation by Irrep:
             Ag   B1g   B2g   B3g    Au   B1u   B2u   B3u
    DOCC [     2,    0,    0,    0,    0,    2,    1,    1 ]
    SOCC [     1,    0,    0,    0,    0,    0,    0,    0 ]
    NA   [     3,    0,    0,    0,    0,    2,    1,    1 ]
    NB   [     2,    0,    0,    0,    0,    2,    1,    1 ]

  @DF-UKS Final Energy:  -108.09745064373402

   => Energetics <=

    Nuclear Repulsion Energy =             34.8502728015768213
    One-Electron Energy =                -207.7072918833099209
    Two-Electron Energy =                  76.0537665826555980
    DFT Exchange-Correlation Energy =     -11.2941981446565300
    Empirical Dispersion Energy =           0.0000000000000000
    VV10 Nonlocal Energy =                  0.0000000000000000
    Total Energy =                       -108.0974506437340210

  UHF NO Occupations:
  HONO-2 :    2 Ag 1.9999146
  HONO-1 :    2B1u 1.9991970
  HONO-0 :    3 Ag 1.0000000
  LUNO+0 :    3B1u 0.0008030
  LUNO+1 :    4 Ag 0.0000854
  LUNO+2 :    2B2u 0.0000427
  LUNO+3 :    2B3u 0.0000427

Computation Completed

Properties will be evaluated at   0.000000,   0.000000,   0.000000 [a0]

Properties computed using the B3LYP density matrix

 Multipole Moments:

 ------------------------------------------------------------------------------------
     Multipole            Electronic (a.u.)      Nuclear  (a.u.)        Total (a.u.)
 ------------------------------------------------------------------------------------

 L = 1.  Multiply by 2.5417464519 to convert [e a0] to [Debye]
 Dipole X            :          0.0000000            0.0000000            0.0000000
 Dipole Y            :          0.0000000            0.0000000            0.0000000
 Dipole Z            :          0.0000000            0.0000000            0.0000000
 Magnitude           :                                                    0.0000000

 L = 2.  Multiply by 1.3450342976 to convert [e a0^2] to [Debye ang]
 Quadrupole XX       :         -5.2221342            0.0000000           -5.2221342
 Quadrupole XY       :          0.0000000            0.0000000            0.0000000
 Quadrupole XZ       :          0.0000000            0.0000000            0.0000000
 Quadrupole YY       :         -5.2221342            0.0000000           -5.2221342
 Quadrupole YZ       :          0.0000000            0.0000000            0.0000000
 Quadrupole ZZ       :        -11.9990736            6.9190718           -5.0800017
 Traceless XX        :          2.2589798           -2.3063573           -0.0473775
 Traceless YY        :          2.2589798           -2.3063573           -0.0473775
 Traceless ZZ        :         -4.5179596            4.6127146            0.0947550

 ------------------------------------------------------------------------------------
  ==> Computing MBIS Charges <==

  Electron Count from Grid (Expected Number): 13.00000 (13.00000)
  Difference:  0.00000

  MBIS Charges: (a.u.)
   Center  Symbol  Z      Pop.       Charge
      1       N    7    6.500000    0.500000
      2       N    7    6.500000    0.500000

  MBIS Dipoles: [e a0]
   Center  Symbol  Z        X           Y           Z
      1       N    7    0.000000   -0.000000   -0.095094
      2       N    7   -0.000000    0.000000    0.095094

  MBIS Quadrupoles: [e a0^2]
   Center  Symbol  Z      XX        XY        XZ        YY        YZ        ZZ
      1       N    7   -2.6111   -0.0000   -0.0000   -2.6111   -0.0000   -2.9208
      2       N    7   -2.6111   -0.0000    0.0000   -2.6111   -0.0000   -2.9208

  MBIS Octupoles: [e a0^3]
   Center  Symbol  Z      XXX       XXY       XXZ       XYY       XYZ       XZZ       YYY       YYZ       YZZ       ZZZ
      1       N    7    0.0000   -0.0000    0.0188    0.0000    0.0000    0.0000   -0.0000    0.0188    0.0000    0.1773
      2       N    7    0.0000   -0.0000   -0.0188    0.0000   -0.0000    0.0000   -0.0000   -0.0188    0.0000   -0.1773

  MBIS Radial Moments:
   Center  Symbol  Z      [a0^2]      [a0^3]      [a0^4]
      1       N    7    8.142948   14.497656   31.004600
      2       N    7    8.142948   14.497656   31.004600

  MBIS Valence Widths: [a0]
   Center  Symbol  Z     Width
      1       N    7    0.372631
      2       N    7    0.372631

*** tstop() called on Mac.lan at Sun Aug 10 18:24:49 2025
Module time:
	user time   =       4.01 seconds =       0.07 minutes
	system time =       2.03 seconds =       0.03 minutes
	total time  =          1 seconds =       0.02 minutes
Total time:
	user time   =      14.81 seconds =       0.25 minutes
	system time =       4.36 seconds =       0.07 minutes
	total time  =          2 seconds =       0.03 minutes

    Psi4 stopped on: Sunday, 10 August 2025 06:24PM
    Psi4 wall time for execution: 0:00:01.87

*** Psi4 exiting successfully. Buy a developer a beer!
