                               Psi4 1.9.1 release

  ==> Input File <==

--------------------------------------------------------------------------
molecule {
1 3
O           0.000000           0.000000           0.000000
H           0.000000           0.000000           1.385847
}

set {
basis              cc-pvtz
reference          uks
maxiter            500
DAMPING_PERCENTAGE 1
E_CONVERGENCE      1.0E-8
D_CONVERGENCE      1.0E-8
DIIS_MAX_VECS      400
MBIS_MAXITER       8000
guess              read
}

E, wfn = energy('b3lyp', restart_file='last_wfn', return_wfn=True)
properties('b3lyp','MBIS_CHARGES', wfn=wfn)
wfn.to_file('last_wfn')
--------------------------------------------------------------------------

    Molecular point group: c2v
  Charge       = 1
  Multiplicity = 3
  Basis Set: CC-PVTZ
    Blend: CC-PVTZ
  Basis Set: (CC-PVTZ AUX)
    Blend: CC-PVTZ-JKFIT
  @DF-UKS Final Energy:   -75.24594443307330
    Total Energy =                        -75.2459444330733191
 Dipole X            :          0.0000000            0.0000000            0.0000000
 Dipole Y            :          0.0000000            0.0000000            0.0000000
 Dipole Z            :          0.0679584            1.2217861            1.2897444
 Magnitude           :                                                    1.2897444
    Molecular point group: c2v

    Geometry (in Angstrom), charge = 1, multiplicity = 3:

       Center              X                  Y                   Z               Mass
    ------------   -----------------  -----------------  -----------------  -----------------
         O            0.000000000000     0.000000000000    -0.082145073444    15.994914619570
         H            0.000000000000     0.000000000000     1.303701926556     1.007825032230

  Charge       = 1
  Multiplicity = 3
  Basis Set: CC-PVTZ
    Blend: CC-PVTZ
  Basis Set: (CC-PVTZ AUX)
    Blend: CC-PVTZ-JKFIT

    Orbital Energies [Eh]
    ---------------------

    Alpha Occupied:

       1A1   -19.776832     2A1    -1.481760     1B2    -0.899459
       1B1    -0.899459     3A1    -0.888025

    Alpha Virtual:

       4A1    -0.440088     5A1    -0.030591     2B1     0.133016
       2B2     0.133016     6A1     0.225548     3B1     0.334318
       3B2     0.334318     7A1     0.425696     8A1     0.681442
       9A1     0.968761     1A2     0.968761     4B1     1.119078
       4B2     1.119078    10A1     1.565831    11A1     1.976906
      12A1     2.696096     2A2     2.779711    13A1     2.779714
       5B1     2.794227     5B2     2.794227     6B1     3.131646
       6B2     3.131646     7B1     3.263305     7B2     3.263305
      14A1     3.385755    15A1     4.175002     8B2     4.548456
       8B1     4.548456     3A2     4.593821    16A1     4.593821
       9B1     4.880643     9B2     4.880643    17A1     5.295750
      18A1     5.555825     4A2     5.555825    10B1     5.809173
      10B2     5.809173    19A1     6.448877    20A1     7.050792

    Beta Occupied:

       1A1   -19.718823     2A1    -1.314488     3A1    -0.836640

    Beta Virtual:

       1B2    -0.597279     1B1    -0.597279     4A1    -0.437941
       5A1    -0.037134     2B1     0.180485     2B2     0.180485
       6A1     0.247963     3B1     0.353844     3B2     0.353844
       7A1     0.462382     8A1     0.708590     1A2     1.081902
       9A1     1.081902     4B1     1.174880     4B2     1.174880
      10A1     1.597274    11A1     1.950738    12A1     2.711192
       2A2     2.757880    13A1     2.757884     5B1     2.819295
       5B2     2.819295     6B1     3.215368     6B2     3.215368
       7B1     3.263479     7B2     3.263479    14A1     3.383156
      15A1     4.205952    16A1     4.695405     3A2     4.695405
       8B2     4.699839     8B1     4.699839     9B1     4.957064
       9B2     4.957064    17A1     5.352590    18A1     5.770634
       4A2     5.770635    10B1     5.923465    10B2     5.923465
      19A1     6.525194    20A1     7.151350

    Final Occupation by Irrep:
             A1    A2    B1    B2
    DOCC [     3,    0,    0,    0 ]
    SOCC [     0,    0,    1,    1 ]
    NA   [     3,    0,    1,    1 ]
    NB   [     3,    0,    0,    0 ]

  @DF-UKS Final Energy:   -75.24594443300933

   => Energetics <=

    Nuclear Repulsion Energy =              3.0547511271879220
    One-Electron Energy =                -105.8931389956526488
    Two-Electron Energy =                  34.3973866118217444
    DFT Exchange-Correlation Energy =      -6.8049431763663488
    Empirical Dispersion Energy =           0.0000000000000000
    VV10 Nonlocal Energy =                  0.0000000000000000
    Total Energy =                        -75.2459444330093277

  UHF NO Occupations:
  HONO-2 :    3 A1 1.9917831
  HONO-1 :    1 B2 1.0000000
  HONO-0 :    1 B1 1.0000000
  LUNO+0 :    4 A1 0.0082169
  LUNO+1 :    5 A1 0.0008914
  LUNO+2 :    6 A1 0.0000014
  LUNO+3 :    7 A1 0.0000000

Computation Completed

Properties will be evaluated at   0.000000,   0.000000,   0.000000 [a0]

Properties computed using the B3LYP density matrix

 Multipole Moments:

 ------------------------------------------------------------------------------------
     Multipole            Electronic (a.u.)      Nuclear  (a.u.)        Total (a.u.)
 ------------------------------------------------------------------------------------

 L = 1.  Multiply by 2.5417464519 to convert [e a0] to [Debye]
 Dipole X            :          0.0000000            0.0000000            0.0000000
 Dipole Y            :          0.0000000            0.0000000            0.0000000
 Dipole Z            :          0.0679584            1.2217861            1.2897444
 Magnitude           :                                                    1.2897444

 L = 2.  Multiply by 1.3450342976 to convert [e a0^2] to [Debye ang]
 Quadrupole XX       :         -3.2072266            0.0000000           -3.2072266
 Quadrupole XY       :          0.0000000            0.0000000            0.0000000
 Quadrupole XZ       :          0.0000000            0.0000000            0.0000000
 Quadrupole YY       :         -3.2072266            0.0000000           -3.2072266
 Quadrupole YZ       :          0.0000000            0.0000000            0.0000000
 Quadrupole ZZ       :         -6.0836857            6.2622951            0.1786094
 Traceless XX        :          0.9588197           -2.0874317           -1.1286120
 Traceless YY        :          0.9588197           -2.0874317           -1.1286120
 Traceless ZZ        :         -1.9176394            4.1748634            2.2572240

 ------------------------------------------------------------------------------------
  ==> Computing MBIS Charges <==

  Electron Count from Grid (Expected Number):  8.00000 ( 8.00000)
  Difference: -0.00000

  MBIS Charges: (a.u.)
   Center  Symbol  Z      Pop.       Charge
      1       O    8    7.579251    0.420749
      2       H    1    0.420749    0.579251

  MBIS Dipoles: [e a0]
   Center  Symbol  Z        X           Y           Z
      1       O    8   -0.000000   -0.000000   -0.148477
      2       H    1   -0.000000   -0.000000    0.076469

  MBIS Quadrupoles: [e a0^2]
   Center  Symbol  Z      XX        XY        XZ        YY        YZ        ZZ
      1       O    8   -2.9533   -0.0000    0.0000   -2.9533    0.0000   -3.5383
      2       H    1   -0.2539    0.0000    0.0000   -0.2539   -0.0000   -0.2319

  MBIS Octupoles: [e a0^3]
   Center  Symbol  Z      XXX       XXY       XXZ       XYY       XYZ       XZZ       YYY       YYZ       YZZ       ZZZ
      1       O    8   -0.0000   -0.0000   -0.1235   -0.0000    0.0000   -0.0000   -0.0000   -0.1235   -0.0000   -0.4867
      2       H    1    0.0000    0.0000    0.0358    0.0000    0.0000    0.0000   -0.0000    0.0358   -0.0000    0.1046

  MBIS Radial Moments:
   Center  Symbol  Z      [a0^2]      [a0^3]      [a0^4]
      1       O    8    9.444968   16.529346   34.581744
      2       H    1    0.739669    1.363449    2.986909

  MBIS Valence Widths: [a0]
   Center  Symbol  Z     Width
      1       O    8    0.365856
      2       H    1    0.389512

*** tstop() called on Mac.lan at Sun Aug 10 18:30:26 2025
Module time:
	user time   =       2.57 seconds =       0.04 minutes
	system time =       1.99 seconds =       0.03 minutes
	total time  =          0 seconds =       0.00 minutes
Total time:
	user time   =      13.14 seconds =       0.22 minutes
	system time =       4.07 seconds =       0.07 minutes
	total time  =          2 seconds =       0.03 minutes

    Psi4 stopped on: Sunday, 10 August 2025 06:30PM
    Psi4 wall time for execution: 0:00:01.71

*** Psi4 exiting successfully. Buy a developer a beer!
