                               Psi4 1.9.1 release

  ==> Input File <==

--------------------------------------------------------------------------
molecule {
1 1
O           0.000000           0.000000           0.000000
N           0.000000           0.000000           1.449955
}

set {
basis              cc-pvtz
reference          uks
maxiter            500
DAMPING_PERCENTAGE 1
E_CONVERGENCE      1.0E-8
D_CONVERGENCE      1.0E-8
DIIS_MAX_VECS      400
MBIS_MAXITER       8000
guess              read
}

E, wfn = energy('b3lyp', restart_file='last_wfn', return_wfn=True)
properties('b3lyp','MBIS_CHARGES', wfn=wfn)
wfn.to_file('last_wfn')
--------------------------------------------------------------------------

    Molecular point group: c2v
  Charge       = 1
  Multiplicity = 1
  Basis Set: CC-PVTZ
    Blend: CC-PVTZ
  Basis Set: (CC-PVTZ AUX)
    Blend: CC-PVTZ-JKFIT
  @DF-UKS Final Energy:  -129.39070404208763
    Total Energy =                       -129.3907040420876342
 Dipole X            :          0.0000000            0.0000000            0.0000000
 Dipole Y            :          0.0000000            0.0000000            0.0000000
 Dipole Z            :          0.4869343           -0.0054977            0.4814366
 Magnitude           :                                                    0.4814366
    Molecular point group: c2v

    Geometry (in Angstrom), charge = 1, multiplicity = 1:

       Center              X                  Y                   Z               Mass
    ------------   -----------------  -----------------  -----------------  -----------------
         O            0.000000000000     0.000000000000    -0.676839618235    15.994914619570
         N            0.000000000000     0.000000000000     0.773115381765    14.003074004430

  Charge       = 1
  Multiplicity = 1
  Basis Set: CC-PVTZ
    Blend: CC-PVTZ
  Basis Set: (CC-PVTZ AUX)
    Blend: CC-PVTZ-JKFIT

    Orbital Energies [Eh]
    ---------------------

    Alpha Occupied:

       1A1   -19.753413     2A1   -15.019096     3A1    -1.495269
       4A1    -1.151184     5A1    -0.874084     1B2    -0.834484
       1B1    -0.834484

    Alpha Virtual:

       2B2    -0.605714     2B1    -0.605714     6A1    -0.372290
       7A1     0.089634     3B2     0.110827     3B1     0.110827
       8A1     0.155371     9A1     0.250496     4B2     0.283702
       4B1     0.283702    10A1     0.587046     1A2     0.587046
       5B1     0.624741     5B2     0.624741    11A1     0.775092
      12A1     1.090974     2A2     1.090974    13A1     1.131106
       6B1     1.453064     6B2     1.453064    14A1     1.641128
       7B2     2.339230     7B1     2.339230    15A1     2.592690
       8B2     3.031920     8B1     3.031920    16A1     3.257680
      17A1     3.355309     3A2     3.355309     9B1     3.387159
       9B2     3.387159    10B1     3.529946    10B2     3.529946
      18A1     3.829808    19A1     3.892786     4A2     3.892795
      11B1     4.098510    11B2     4.098510    20A1     4.396509
      12B2     4.644703    12B1     4.644703    21A1     4.756908
       5A2     4.756910    22A1     4.802992    13B1     5.231582
      13B2     5.231582     6A2     5.699629    23A1     5.699657
      24A1     5.767403    14B2     6.100504    14B1     6.100504
      25A1     6.948736    26A1     8.140136

    Beta Occupied:

       1A1   -19.753413     2A1   -15.019096     3A1    -1.495269
       4A1    -1.151184     5A1    -0.874084     1B2    -0.834484
       1B1    -0.834484

    Beta Virtual:

       2B2    -0.605714     2B1    -0.605714     6A1    -0.372290
       7A1     0.089634     3B2     0.110827     3B1     0.110827
       8A1     0.155371     9A1     0.250496     4B2     0.283702
       4B1     0.283702    10A1     0.587046     1A2     0.587046
       5B1     0.624741     5B2     0.624741    11A1     0.775092
      12A1     1.090974     2A2     1.090974    13A1     1.131106
       6B1     1.453064     6B2     1.453064    14A1     1.641128
       7B2     2.339230     7B1     2.339230    15A1     2.592690
       8B2     3.031920     8B1     3.031920    16A1     3.257680
      17A1     3.355309     3A2     3.355309     9B1     3.387159
       9B2     3.387159    10B1     3.529946    10B2     3.529946
      18A1     3.829808    19A1     3.892786     4A2     3.892795
      11B1     4.098510    11B2     4.098510    20A1     4.396509
      12B2     4.644703    12B1     4.644703    21A1     4.756908
       5A2     4.756910    22A1     4.802992    13B1     5.231582
      13B2     5.231582     6A2     5.699629    23A1     5.699657
      24A1     5.767403    14B2     6.100504    14B1     6.100504
      25A1     6.948736    26A1     8.140136

    Final Occupation by Irrep:
             A1    A2    B1    B2
    DOCC [     5,    0,    1,    1 ]
    SOCC [     0,    0,    0,    0 ]
    NA   [     5,    0,    1,    1 ]
    NB   [     5,    0,    1,    1 ]

  @DF-UKS Final Energy:  -129.39070403268960

   => Energetics <=

    Nuclear Repulsion Energy =             20.4378231031445772
    One-Electron Energy =                -211.1932988356402348
    Two-Electron Energy =                  73.2270178506552583
    DFT Exchange-Correlation Energy =     -11.8622461508491988
    Empirical Dispersion Energy =           0.0000000000000000
    VV10 Nonlocal Energy =                  0.0000000000000000
    Total Energy =                       -129.3907040326895981

  UHF NO Occupations:
  HONO-2 :    3 A1 2.0000000
  HONO-1 :    4 A1 2.0000000
  HONO-0 :    5 A1 2.0000000
  LUNO+0 :    6 A1 0.0000000
  LUNO+1 :    7 A1 0.0000000
  LUNO+2 :    8 A1 0.0000000
  LUNO+3 :    9 A1 0.0000000

Computation Completed

Properties will be evaluated at   0.000000,   0.000000,   0.000000 [a0]

Properties computed using the B3LYP density matrix

 Multipole Moments:

 ------------------------------------------------------------------------------------
     Multipole            Electronic (a.u.)      Nuclear  (a.u.)        Total (a.u.)
 ------------------------------------------------------------------------------------

 L = 1.  Multiply by 2.5417464519 to convert [e a0] to [Debye]
 Dipole X            :          0.0000000            0.0000000            0.0000000
 Dipole Y            :          0.0000000            0.0000000            0.0000000
 Dipole Z            :          0.4869343           -0.0054977            0.4814366
 Magnitude           :                                                    0.4814366

 L = 2.  Multiply by 1.3450342976 to convert [e a0^2] to [Debye ang]
 Quadrupole XX       :         -6.3257380            0.0000000           -6.3257380
 Quadrupole XY       :          0.0000000            0.0000000            0.0000000
 Quadrupole XZ       :          0.0000000            0.0000000            0.0000000
 Quadrupole YY       :         -6.3257380            0.0000000           -6.3257380
 Quadrupole YZ       :          0.0000000            0.0000000            0.0000000
 Quadrupole ZZ       :        -32.1853147           28.0287404           -4.1565743
 Traceless XX        :          8.6198589           -9.3429135           -0.7230546
 Traceless YY        :          8.6198589           -9.3429135           -0.7230546
 Traceless ZZ        :        -17.2397178           18.6858269            1.4461091

 ------------------------------------------------------------------------------------
  ==> Computing MBIS Charges <==

  Electron Count from Grid (Expected Number): 14.00000 (14.00000)
  Difference: -0.00000

  MBIS Charges: (a.u.)
   Center  Symbol  Z      Pop.       Charge
      1       O    8    7.698152    0.301848
      2       N    7    6.301848    0.698152

  MBIS Dipoles: [e a0]
   Center  Symbol  Z        X           Y           Z
      1       O    8    0.000000   -0.000000   -0.186524
      2       N    7    0.000000    0.000000    0.034052

  MBIS Quadrupoles: [e a0^2]
   Center  Symbol  Z      XX        XY        XZ        YY        YZ        ZZ
      1       O    8   -3.3082    0.0000    0.0000   -3.3082   -0.0000   -3.3997
      2       N    7   -3.0176    0.0000    0.0000   -3.0176    0.0000   -3.3175

  MBIS Octupoles: [e a0^3]
   Center  Symbol  Z      XXX       XXY       XXZ       XYY       XYZ       XZZ       YYY       YYZ       YZZ       ZZZ
      1       O    8   -0.0000   -0.0000   -0.1893   -0.0000    0.0000   -0.0000   -0.0000   -0.1893   -0.0000   -0.5635
      2       N    7    0.0000    0.0000    0.1727    0.0000   -0.0000    0.0000   -0.0000    0.1727    0.0000    0.3795

  MBIS Radial Moments:
   Center  Symbol  Z      [a0^2]      [a0^3]      [a0^4]
      1       O    8   10.016076   17.936442   38.454342
      2       N    7    9.352599   18.181758   42.187372

  MBIS Valence Widths: [a0]
   Center  Symbol  Z     Width
      1       O    8    0.373132
      2       N    7    0.412651

*** tstop() called on Mac.lan at Sun Aug 10 18:42:45 2025
Module time:
	user time   =       3.40 seconds =       0.06 minutes
	system time =       2.22 seconds =       0.04 minutes
	total time  =          0 seconds =       0.00 minutes
Total time:
	user time   =      15.90 seconds =       0.27 minutes
	system time =       4.30 seconds =       0.07 minutes
	total time  =          2 seconds =       0.03 minutes

    Psi4 stopped on: Sunday, 10 August 2025 06:42PM
    Psi4 wall time for execution: 0:00:01.97

*** Psi4 exiting successfully. Buy a developer a beer!
