                               Psi4 1.9.1 release

  ==> Input File <==

--------------------------------------------------------------------------
molecule {
1 4
C           0.000000           0.000000           0.000000
C           0.000000           0.000000           1.659495
}

set {
basis              cc-pvtz
reference          uks
maxiter            500
DAMPING_PERCENTAGE 1
E_CONVERGENCE      1.0E-8
D_CONVERGENCE      1.0E-8
DIIS_MAX_VECS      400
MBIS_MAXITER       8000
guess              read
}

E, wfn = energy('b3lyp', restart_file='last_wfn', return_wfn=True)
properties('b3lyp','MBIS_CHARGES', wfn=wfn)
wfn.to_file('last_wfn')
--------------------------------------------------------------------------

    Molecular point group: d2h
  Charge       = 1
  Multiplicity = 4
  Basis Set: CC-PVTZ
    Blend: CC-PVTZ
  Basis Set: (CC-PVTZ AUX)
    Blend: CC-PVTZ-JKFIT
  @DF-UKS Final Energy:   -75.47814576562294
    Total Energy =                        -75.4781457656229406
 Dipole X            :          0.0000000            0.0000000            0.0000000
 Dipole Y            :          0.0000000            0.0000000            0.0000000
 Dipole Z            :          0.0000000            0.0000000            0.0000000
 Magnitude           :                                                    0.0000000
    Molecular point group: d2h

    Geometry (in Angstrom), charge = 1, multiplicity = 4:

       Center              X                  Y                   Z               Mass
    ------------   -----------------  -----------------  -----------------  -----------------
         C            0.000000000000     0.000000000000    -0.829747500000    12.000000000000
         C            0.000000000000     0.000000000000     0.829747500000    12.000000000000

  Charge       = 1
  Multiplicity = 4
  Basis Set: CC-PVTZ
    Blend: CC-PVTZ
  Basis Set: (CC-PVTZ AUX)
    Blend: CC-PVTZ-JKFIT

    Orbital Energies [Eh]
    ---------------------

    Alpha Occupied:

       1Ag   -10.724740     1B1u  -10.724508     2Ag    -1.099557
       2B1u   -0.850846     3Ag    -0.687767     1B3u   -0.659040
       1B2u   -0.659040

    Alpha Virtual:

       1B2g   -0.461719     1B3g   -0.461719     3B1u   -0.234909
       2B2u    0.015462     2B3u    0.015462     4B1u    0.017257
       4Ag     0.034439     5Ag     0.047816     2B3g    0.094212
       2B2g    0.094212     6Ag     0.251034     1B1g    0.251034
       3B3u    0.296350     3B2u    0.296350     5B1u    0.346355
       6B1u    0.467610     1Au     0.467610     7Ag     0.744703
       3B2g    0.762044     3B3g    0.762044     7B1u    0.804757
       4B2u    1.513136     4B3u    1.513136     8Ag     1.594788
       4B2g    1.655147     4B3g    1.655147     5B3u    2.031818
       5B2u    2.031818     9Ag     2.045351     2B1g    2.045351
      10Ag     2.090907     8B1u    2.157861     6B2u    2.223874
       6B3u    2.223874     5B3g    2.350332     5B2g    2.350332
      11Ag     2.501986     3B1g    2.501992     9B1u    2.527322
       2Au     2.527326    10B1u    2.616870     6B2g    2.670054
       6B3g    2.670054    11B1u    2.720572     3Au     2.720575
       7B3u    2.727983     7B2u    2.727983    12B1u    3.043366
      12Ag     3.214864     7B3g    3.391535     7B2g    3.391535
      13Ag     3.572784    13B1u    5.926022

    Beta Occupied:

       1Ag   -10.700336     1B1u  -10.700288     2Ag    -1.004437
       2B1u   -0.735462

    Beta Virtual:

       3Ag    -0.520439     1B3u   -0.507362     1B2u   -0.507362
       1B2g   -0.363857     1B3g   -0.363857     3B1u   -0.159009
       2B2u    0.043604     2B3u    0.043604     4B1u    0.052503
       4Ag     0.066487     5Ag     0.079999     2B3g    0.116921
       2B2g    0.116921     1B1g    0.301008     6Ag     0.301008
       3B3u    0.356857     3B2u    0.356857     5B1u    0.374069
       1Au     0.512338     6B1u    0.512338     7Ag     0.801468
       3B2g    0.807290     3B3g    0.807290     7B1u    0.846680
       4B2u    1.569933     4B3u    1.569933     8Ag     1.655495
       4B2g    1.710275     4B3g    1.710275     5B3u    2.093957
       5B2u    2.093957     2B1g    2.112709     9Ag     2.112709
      10Ag     2.158082     8B1u    2.216177     6B2u    2.288884
       6B3u    2.288884     5B3g    2.414749     5B2g    2.414749
      11Ag     2.584999     3B1g    2.585004     9B1u    2.600741
       2Au     2.600744    10B1u    2.694383     6B2g    2.750058
       6B3g    2.750058    11B1u    2.794937     3Au     2.794939
       7B3u    2.813249     7B2u    2.813249    12B1u    3.106316
      12Ag     3.281694     7B3g    3.458768     7B2g    3.458768
      13Ag     3.629153    13B1u    5.972275

    Final Occupation by Irrep:
             Ag   B1g   B2g   B3g    Au   B1u   B2u   B3u
    DOCC [     2,    0,    0,    0,    0,    2,    0,    0 ]
    SOCC [     1,    0,    0,    0,    0,    0,    1,    1 ]
    NA   [     3,    0,    0,    0,    0,    2,    1,    1 ]
    NB   [     2,    0,    0,    0,    0,    2,    0,    0 ]

  @DF-UKS Final Energy:   -75.47814576554978

   => Energetics <=

    Nuclear Repulsion Energy =             11.4796245750183044
    One-Electron Energy =                -119.4661952121733037
    Two-Electron Energy =                  40.6891661428544893
    DFT Exchange-Correlation Energy =      -8.1807412712492678
    Empirical Dispersion Energy =           0.0000000000000000
    VV10 Nonlocal Energy =                  0.0000000000000000
    Total Energy =                        -75.4781457655497832

  UHF NO Occupations:
  HONO-2 :    1B2u 1.0000000
  HONO-1 :    1B3u 1.0000000
  HONO-0 :    3 Ag 1.0000000
  LUNO+0 :    3B1u 0.0016442
  LUNO+1 :    4 Ag 0.0001298
  LUNO+2 :    4B1u 0.0000008
  LUNO+3 :    5 Ag 0.0000006

Computation Completed

Properties will be evaluated at   0.000000,   0.000000,   0.000000 [a0]

Properties computed using the B3LYP density matrix

 Multipole Moments:

 ------------------------------------------------------------------------------------
     Multipole            Electronic (a.u.)      Nuclear  (a.u.)        Total (a.u.)
 ------------------------------------------------------------------------------------

 L = 1.  Multiply by 2.5417464519 to convert [e a0] to [Debye]
 Dipole X            :          0.0000000            0.0000000            0.0000000
 Dipole Y            :          0.0000000            0.0000000            0.0000000
 Dipole Z            :          0.0000000            0.0000000            0.0000000
 Magnitude           :                                                    0.0000000

 L = 2.  Multiply by 1.3450342976 to convert [e a0^2] to [Debye ang]
 Quadrupole XX       :         -6.7398894            0.0000000           -6.7398894
 Quadrupole XY       :          0.0000000            0.0000000            0.0000000
 Quadrupole XZ       :          0.0000000            0.0000000            0.0000000
 Quadrupole YY       :         -6.7398894            0.0000000           -6.7398894
 Quadrupole YZ       :          0.0000000            0.0000000            0.0000000
 Quadrupole ZZ       :        -33.6154211           29.5033197           -4.1121013
 Traceless XX        :          8.9585105           -9.8344399           -0.8759294
 Traceless YY        :          8.9585105           -9.8344399           -0.8759294
 Traceless ZZ        :        -17.9170211           19.6688798            1.7518587

 ------------------------------------------------------------------------------------
  ==> Computing MBIS Charges <==

  Electron Count from Grid (Expected Number): 11.00000 (11.00000)
  Difference:  0.00000

  MBIS Charges: (a.u.)
   Center  Symbol  Z      Pop.       Charge
      1       C    6    5.500000    0.500000
      2       C    6    5.500000    0.500000

  MBIS Dipoles: [e a0]
   Center  Symbol  Z        X           Y           Z
      1       C    6   -0.000000   -0.000000   -0.145264
      2       C    6   -0.000000    0.000000    0.145264

  MBIS Quadrupoles: [e a0^2]
   Center  Symbol  Z      XX        XY        XZ        YY        YZ        ZZ
      1       C    6   -3.3699    0.0000   -0.0000   -3.3699   -0.0000   -3.7409
      2       C    6   -3.3699    0.0000    0.0000   -3.3699    0.0000   -3.7409

  MBIS Octupoles: [e a0^3]
   Center  Symbol  Z      XXX       XXY       XXZ       XYY       XYZ       XZZ       YYY       YYZ       YZZ       ZZZ
      1       C    6   -0.0000   -0.0000   -0.2079   -0.0000    0.0000   -0.0000    0.0000   -0.2079   -0.0000   -0.7029
      2       C    6   -0.0000   -0.0000    0.2079   -0.0000   -0.0000   -0.0000    0.0000    0.2079    0.0000    0.7029

  MBIS Radial Moments:
   Center  Symbol  Z      [a0^2]      [a0^3]      [a0^4]
      1       C    6   10.480793   23.427018   62.306001
      2       C    6   10.480793   23.427018   62.306001

  MBIS Valence Widths: [a0]
   Center  Symbol  Z     Width
      1       C    6    0.482805
      2       C    6    0.482805

*** tstop() called on Mac.lan at Sun Aug 10 18:22:57 2025
Module time:
	user time   =       3.40 seconds =       0.06 minutes
	system time =       2.35 seconds =       0.04 minutes
	total time  =          0 seconds =       0.00 minutes
Total time:
	user time   =      13.87 seconds =       0.23 minutes
	system time =       4.91 seconds =       0.08 minutes
	total time  =          2 seconds =       0.03 minutes

    Psi4 stopped on: Sunday, 10 August 2025 06:22PM
    Psi4 wall time for execution: 0:00:01.87

*** Psi4 exiting successfully. Buy a developer a beer!
