                               Psi4 1.9.1 release

  ==> Input File <==

--------------------------------------------------------------------------
molecule {
1 4
C           0.000000           0.000000           0.000000
C           0.000000           0.000000           1.065730
}

set {
basis              cc-pvtz
reference          uks
maxiter            500
DAMPING_PERCENTAGE 1
E_CONVERGENCE      1.0E-8
D_CONVERGENCE      1.0E-8
DIIS_MAX_VECS      400
MBIS_MAXITER       8000
guess              read
}

E, wfn = energy('b3lyp', restart_file='last_wfn', return_wfn=True)
properties('b3lyp','MBIS_CHARGES', wfn=wfn)
wfn.to_file('last_wfn')
--------------------------------------------------------------------------

    Molecular point group: d2h
  Charge       = 1
  Multiplicity = 4
  Basis Set: CC-PVTZ
    Blend: CC-PVTZ
  Basis Set: (CC-PVTZ AUX)
    Blend: CC-PVTZ-JKFIT
  @DF-UKS Final Energy:   -75.39278408536256
    Total Energy =                        -75.3927840853625639
 Dipole X            :          0.0000000            0.0000000            0.0000000
 Dipole Y            :          0.0000000            0.0000000            0.0000000
 Dipole Z            :          0.0000000            0.0000000            0.0000000
 Magnitude           :                                                    0.0000000
    Molecular point group: d2h

    Geometry (in Angstrom), charge = 1, multiplicity = 4:

       Center              X                  Y                   Z               Mass
    ------------   -----------------  -----------------  -----------------  -----------------
         C            0.000000000000     0.000000000000    -0.532865000000    12.000000000000
         C            0.000000000000     0.000000000000     0.532865000000    12.000000000000

  Charge       = 1
  Multiplicity = 4
  Basis Set: CC-PVTZ
    Blend: CC-PVTZ
  Basis Set: (CC-PVTZ AUX)
    Blend: CC-PVTZ-JKFIT

    Orbital Energies [Eh]
    ---------------------

    Alpha Occupied:

       1Ag   -10.666118     1B1u  -10.658066     2Ag    -1.267124
       2B1u   -0.813268     1B2u   -0.798865     3Ag    -0.759124
       1B3u   -0.756104

    Alpha Virtual:

       1B3g   -0.329037     1B2g   -0.299515     3B1u   -0.041899
       2B2u   -0.024495     2B3u   -0.012452     4Ag     0.007250
       5Ag     0.028368     2B3g    0.118769     2B2g    0.129161
       1B1g    0.221902     6Ag     0.222656     4B1u    0.268227
       3B2u    0.462599     5B1u    0.466702     3B3u    0.485234
       1Au     0.575817     6B1u    0.576586     7Ag     0.796413
       3B3g    0.827006     3B2g    0.840566     7B1u    1.315966
       4B2u    1.481950     4B3u    1.512152     8Ag     1.764494
       4B3g    1.909442     4B2g    1.938173     8B1u    1.984893
       5B2u    2.059480     5B3u    2.059818     2B1g    2.065597
       9Ag     2.066969     6B2u    2.170164     6B3u    2.203565
      10Ag     2.382309     5B3g    2.524984     5B2g    2.544912
       3B1g    2.566910    11Ag     2.567003     6B3g    2.584947
       6B2g    2.585624     9B1u    2.602281     2Au     2.602941
      10B1u    3.083464    12Ag     3.129286     7B2u    3.237269
       7B3u    3.264930     3Au     3.394303    11B1u    3.394560
      12B1u    4.061136     7B3g    4.606141     7B2g    4.638128
      13Ag     5.273932    13B1u   15.842397

    Beta Occupied:

       1Ag   -10.632405     1B1u  -10.624983     2Ag    -1.182447
       1B3u   -0.713838

    Beta Virtual:

       1B2u   -0.598926     2B1u   -0.555957     3Ag    -0.499936
       1B2g   -0.236450     1B3g   -0.203774     3B1u   -0.011855
       2B3u   -0.005741     2B2u    0.004476     4Ag     0.035552
       5Ag     0.096765     2B2g    0.145890     2B3g    0.162771
       1B1g    0.257474     6Ag     0.262098     4B1u    0.337616
       5B1u    0.536248     3B3u    0.538556     3B2u    0.553473
       1Au     0.613238     6B1u    0.619541     7Ag     0.871953
       3B2g    0.873942     3B3g    0.889050     7B1u    1.404755
       4B3u    1.534930     4B2u    1.549950     8Ag     1.827613
       4B2g    1.964446     4B3g    1.975938     8B1u    2.075873
       5B3u    2.111375     5B2u    2.114424     2B1g    2.116015
       9Ag     2.122165     6B3u    2.277615     6B2u    2.303906
      10Ag     2.544155     5B2g    2.643043     5B3g    2.647058
       6B2g    2.652169     3B1g    2.661931    11Ag     2.674946
       6B3g    2.687805     2Au     2.693667     9B1u    2.706174
      12Ag     3.218326    10B1u    3.225108     7B3u    3.351700
       7B2u    3.379785     3Au     3.461459    11B1u    3.471992
      12B1u    4.157261     7B2g    4.700794     7B3g    4.726980
      13Ag     5.339668    13B1u   15.902459

    Final Occupation by Irrep:
             Ag   B1g   B2g   B3g    Au   B1u   B2u   B3u
    DOCC [     2,    0,    0,    0,    0,    1,    0,    1 ]
    SOCC [     1,    0,    0,    0,    0,    1,    1,    0 ]
    NA   [     3,    0,    0,    0,    0,    2,    1,    1 ]
    NB   [     2,    0,    0,    0,    0,    1,    0,    1 ]

  @DF-UKS Final Energy:   -75.39278408484265

   => Energetics <=

    Nuclear Repulsion Energy =             17.8754277200791947
    One-Electron Energy =                -131.5370257701032415
    Two-Electron Energy =                  46.7735113996431835
    DFT Exchange-Correlation Energy =      -8.5046974344617823
    Empirical Dispersion Energy =           0.0000000000000000
    VV10 Nonlocal Energy =                  0.0000000000000000
    Total Energy =                        -75.3927840848426456

  UHF NO Occupations:
  HONO-2 :    3 Ag 1.0000000
  HONO-1 :    1B2u 1.0000000
  HONO-0 :    2B1u 1.0000000
  LUNO+0 :    2B3u 0.0005580
  LUNO+1 :    4 Ag 0.0004704
  LUNO+2 :    3B1u 0.0000011
  LUNO+3 :    5 Ag 0.0000007

Computation Completed

Properties will be evaluated at   0.000000,   0.000000,   0.000000 [a0]

Properties computed using the B3LYP density matrix

 Multipole Moments:

 ------------------------------------------------------------------------------------
     Multipole            Electronic (a.u.)      Nuclear  (a.u.)        Total (a.u.)
 ------------------------------------------------------------------------------------

 L = 1.  Multiply by 2.5417464519 to convert [e a0] to [Debye]
 Dipole X            :          0.0000000            0.0000000            0.0000000
 Dipole Y            :          0.0000000            0.0000000            0.0000000
 Dipole Z            :          0.0000000            0.0000000            0.0000000
 Magnitude           :                                                    0.0000000

 L = 2.  Multiply by 1.3450342976 to convert [e a0^2] to [Debye ang]
 Quadrupole XX       :         -6.6303099            0.0000000           -6.6303099
 Quadrupole XY       :          0.0000000            0.0000000            0.0000000
 Quadrupole XZ       :          0.0000000            0.0000000            0.0000000
 Quadrupole YY       :         -5.5448372            0.0000000           -5.5448372
 Quadrupole YZ       :          0.0000000            0.0000000            0.0000000
 Quadrupole ZZ       :        -16.2466380           12.1678367           -4.0788014
 Traceless XX        :          2.8436184           -4.0559456           -1.2123271
 Traceless YY        :          3.9290912           -4.0559456           -0.1268544
 Traceless ZZ        :         -6.7727096            8.1118911            1.3391815

 ------------------------------------------------------------------------------------
  ==> Computing MBIS Charges <==

  Electron Count from Grid (Expected Number): 11.00000 (11.00000)
  Difference: -0.00000

  MBIS Charges: (a.u.)
   Center  Symbol  Z      Pop.       Charge
      1       C    6    5.500000    0.500000
      2       C    6    5.500000    0.500000

  MBIS Dipoles: [e a0]
   Center  Symbol  Z        X           Y           Z
      1       C    6   -0.000000    0.000000   -0.331967
      2       C    6   -0.000000    0.000000    0.331967

  MBIS Quadrupoles: [e a0^2]
   Center  Symbol  Z      XX        XY        XZ        YY        YZ        ZZ
      1       C    6   -3.3152   -0.0000   -0.0000   -2.7724   -0.0000   -3.2150
      2       C    6   -3.3152   -0.0000    0.0000   -2.7724    0.0000   -3.2150

  MBIS Octupoles: [e a0^3]
   Center  Symbol  Z      XXX       XXY       XXZ       XYY       XYZ       XZZ       YYY       YYZ       YZZ       ZZZ
      1       C    6   -0.0000    0.0000   -0.3569   -0.0000   -0.0000   -0.0000    0.0000   -0.1967    0.0000   -0.4144
      2       C    6   -0.0000    0.0000    0.3569   -0.0000    0.0000   -0.0000    0.0000    0.1967    0.0000    0.4144

  MBIS Radial Moments:
   Center  Symbol  Z      [a0^2]      [a0^3]      [a0^4]
      1       C    6    9.302528   19.654625   49.643924
      2       C    6    9.302528   19.654625   49.643924

  MBIS Valence Widths: [a0]
   Center  Symbol  Z     Width
      1       C    6    0.450939
      2       C    6    0.450939

*** tstop() called on Mac.lan at Sun Aug 10 18:15:17 2025
Module time:
	user time   =       4.33 seconds =       0.07 minutes
	system time =       1.69 seconds =       0.03 minutes
	total time  =          1 seconds =       0.02 minutes
Total time:
	user time   =      16.08 seconds =       0.27 minutes
	system time =       3.25 seconds =       0.05 minutes
	total time  =          2 seconds =       0.03 minutes

    Psi4 stopped on: Sunday, 10 August 2025 06:15PM
    Psi4 wall time for execution: 0:00:01.89

*** Psi4 exiting successfully. Buy a developer a beer!
