                               Psi4 1.9.1 release

  ==> Input File <==

--------------------------------------------------------------------------
molecule {
1 1
C           0.000000           0.000000           0.000000
H           0.000000           0.000000           0.723786
}

set {
basis              cc-pvtz
reference          uks
maxiter            500
DAMPING_PERCENTAGE 1
E_CONVERGENCE      1.0E-8
D_CONVERGENCE      1.0E-8
DIIS_MAX_VECS      400
MBIS_MAXITER       8000
guess              read
}

E, wfn = energy('b3lyp', restart_file='last_wfn', return_wfn=True)
properties('b3lyp','MBIS_CHARGES', wfn=wfn)
wfn.to_file('last_wfn')
--------------------------------------------------------------------------

    Molecular point group: c2v
  Charge       = 1
  Multiplicity = 1
  Basis Set: CC-PVTZ
    Blend: CC-PVTZ
  Basis Set: (CC-PVTZ AUX)
    Blend: CC-PVTZ-JKFIT
  @DF-UKS Final Energy:   -37.88302875504010
    Total Energy =                        -37.8830287550401010
 Dipole X            :          0.0000000            0.0000000            0.0000000
 Dipole Y            :          0.0000000            0.0000000            0.0000000
 Dipole Z            :          0.0729443            0.6259561            0.6989004
 Magnitude           :                                                    0.6989004
    Molecular point group: c2v

    Geometry (in Angstrom), charge = 1, multiplicity = 1:

       Center              X                  Y                   Z               Mass
    ------------   -----------------  -----------------  -----------------  -----------------
         C            0.000000000000     0.000000000000    -0.056077756809    12.000000000000
         H            0.000000000000     0.000000000000     0.667708243191     1.007825032230

  Charge       = 1
  Multiplicity = 1
  Basis Set: CC-PVTZ
    Blend: CC-PVTZ
  Basis Set: (CC-PVTZ AUX)
    Blend: CC-PVTZ-JKFIT

    Orbital Energies [Eh]
    ---------------------

    Alpha Occupied:

       1A1   -10.791331     2A1    -1.214106     3A1    -0.748362

    Alpha Virtual:

       1B1    -0.568293     1B2    -0.568293     4A1    -0.175170
       5A1     0.001419     2B2     0.001865     2B1     0.001865
       6A1     0.077735     3B2     0.270251     3B1     0.270251
       7A1     0.305810     1A2     0.305810     8A1     0.308860
       9A1     0.693462     4B1     0.775519     4B2     0.775519
      10A1     1.460842     5B1     1.497666     5B2     1.497666
      11A1     1.585720    12A1     1.852442    13A1     2.171607
       2A2     2.171607     6B2     2.232224     6B1     2.232224
       7B1     2.286072     7B2     2.286072    14A1     2.445761
       3A2     2.445761     8B1     2.635387     8B2     2.635387
      15A1     2.658335    16A1     3.509231     4A2     3.656788
      17A1     3.656788     9B1     3.702009     9B2     3.702009
      18A1     5.290160    10B1     5.314160    10B2     5.314160
      19A1     5.999234    20A1    13.654787

    Beta Occupied:

       1A1   -10.791331     2A1    -1.214106     3A1    -0.748362

    Beta Virtual:

       1B1    -0.568293     1B2    -0.568293     4A1    -0.175170
       5A1     0.001419     2B2     0.001865     2B1     0.001865
       6A1     0.077735     3B2     0.270251     3B1     0.270251
       7A1     0.305810     1A2     0.305810     8A1     0.308860
       9A1     0.693462     4B1     0.775519     4B2     0.775519
      10A1     1.460842     5B1     1.497666     5B2     1.497666
      11A1     1.585720    12A1     1.852442    13A1     2.171607
       2A2     2.171607     6B2     2.232224     6B1     2.232224
       7B1     2.286072     7B2     2.286072    14A1     2.445761
       3A2     2.445761     8B1     2.635387     8B2     2.635387
      15A1     2.658335    16A1     3.509231     4A2     3.656788
      17A1     3.656788     9B1     3.702009     9B2     3.702009
      18A1     5.290160    10B1     5.314160    10B2     5.314160
      19A1     5.999234    20A1    13.654787

    Final Occupation by Irrep:
             A1    A2    B1    B2
    DOCC [     3,    0,    0,    0 ]
    SOCC [     0,    0,    0,    0 ]
    NA   [     3,    0,    0,    0 ]
    NB   [     3,    0,    0,    0 ]

  @DF-UKS Final Energy:   -37.88302875501077

   => Energetics <=

    Nuclear Repulsion Energy =              4.3867431312846614
    One-Electron Energy =                 -55.8379476371859766
    Two-Electron Energy =                  17.9887119064802690
    DFT Exchange-Correlation Energy =      -4.4205361555897236
    Empirical Dispersion Energy =           0.0000000000000000
    VV10 Nonlocal Energy =                  0.0000000000000000
    Total Energy =                        -37.8830287550107698

  UHF NO Occupations:
  HONO-2 :    1 A1 2.0000000
  HONO-1 :    2 A1 2.0000000
  HONO-0 :    3 A1 2.0000000
  LUNO+0 :    4 A1 0.0000000
  LUNO+1 :    5 A1 0.0000000
  LUNO+2 :    6 A1 0.0000000
  LUNO+3 :    7 A1 0.0000000

Computation Completed

Properties will be evaluated at   0.000000,   0.000000,   0.000000 [a0]

Properties computed using the B3LYP density matrix

 Multipole Moments:

 ------------------------------------------------------------------------------------
     Multipole            Electronic (a.u.)      Nuclear  (a.u.)        Total (a.u.)
 ------------------------------------------------------------------------------------

 L = 1.  Multiply by 2.5417464519 to convert [e a0] to [Debye]
 Dipole X            :          0.0000000            0.0000000            0.0000000
 Dipole Y            :          0.0000000            0.0000000            0.0000000
 Dipole Z            :          0.0729443            0.6259561            0.6989004
 Magnitude           :                                                    0.6989004

 L = 2.  Multiply by 1.3450342976 to convert [e a0^2] to [Debye ang]
 Quadrupole XX       :         -2.6415128            0.0000000           -2.6415128
 Quadrupole XY       :          0.0000000            0.0000000            0.0000000
 Quadrupole XZ       :          0.0000000            0.0000000            0.0000000
 Quadrupole YY       :         -2.6415128            0.0000000           -2.6415128
 Quadrupole YZ       :          0.0000000            0.0000000            0.0000000
 Quadrupole ZZ       :         -5.2441906            1.6594831           -3.5847076
 Traceless XX        :          0.8675593           -0.5531610            0.3143983
 Traceless YY        :          0.8675593           -0.5531610            0.3143983
 Traceless ZZ        :         -1.7351186            1.1063220           -0.6287965

 ------------------------------------------------------------------------------------
  ==> Computing MBIS Charges <==

  Electron Count from Grid (Expected Number):  6.00000 ( 6.00000)
  Difference:  0.00000

  MBIS Charges: (a.u.)
   Center  Symbol  Z      Pop.       Charge
      1       C    6    5.121897    0.878103
      2       H    1    0.878103    0.121897

  MBIS Dipoles: [e a0]
   Center  Symbol  Z        X           Y           Z
      1       C    6   -0.000000    0.000000    0.605082
      2       H    1    0.000000    0.000000    0.033065

  MBIS Quadrupoles: [e a0^2]
   Center  Symbol  Z      XX        XY        XZ        YY        YZ        ZZ
      1       C    6   -2.3978    0.0000    0.0000   -2.3978    0.0000   -3.4978
      2       H    1   -0.2437    0.0000    0.0000   -0.2437   -0.0000   -0.2461

  MBIS Octupoles: [e a0^3]
   Center  Symbol  Z      XXX       XXY       XXZ       XYY       XYZ       XZZ       YYY       YYZ       YZZ       ZZZ
      1       C    6   -0.0000    0.0000    0.7042   -0.0000   -0.0000   -0.0000    0.0000    0.7042   -0.0000    1.7819
      2       H    1   -0.0000    0.0000   -0.0003   -0.0000   -0.0000    0.0000    0.0000   -0.0003   -0.0000    0.0044

  MBIS Radial Moments:
   Center  Symbol  Z      [a0^2]      [a0^3]      [a0^4]
      1       C    6    8.293300   17.380499   43.366607
      2       H    1    0.733565    0.930726    1.411270

  MBIS Valence Widths: [a0]
   Center  Symbol  Z     Width
      1       C    6    0.449981
      2       H    1    0.269422

*** tstop() called on Mac.lan at Sun Aug 10 18:27:04 2025
Module time:
	user time   =       3.41 seconds =       0.06 minutes
	system time =       2.23 seconds =       0.04 minutes
	total time  =          0 seconds =       0.00 minutes
Total time:
	user time   =      12.30 seconds =       0.21 minutes
	system time =       4.35 seconds =       0.07 minutes
	total time  =          1 seconds =       0.02 minutes

    Psi4 stopped on: Sunday, 10 August 2025 06:27PM
    Psi4 wall time for execution: 0:00:01.64

*** Psi4 exiting successfully. Buy a developer a beer!
