                               Psi4 1.9.1 release

  ==> Input File <==

--------------------------------------------------------------------------
molecule {
1 4
C           0.000000           0.000000           0.000000
C           0.000000           0.000000           0.997219
}

set {
basis              cc-pvtz
reference          uks
maxiter            500
DAMPING_PERCENTAGE 1
E_CONVERGENCE      1.0E-8
D_CONVERGENCE      1.0E-8
DIIS_MAX_VECS      400
MBIS_MAXITER       8000
guess              read
}

E, wfn = energy('b3lyp', restart_file='last_wfn', return_wfn=True)
properties('b3lyp','MBIS_CHARGES', wfn=wfn)
wfn.to_file('last_wfn')
--------------------------------------------------------------------------

    Molecular point group: d2h
  Charge       = 1
  Multiplicity = 4
  Basis Set: CC-PVTZ
    Blend: CC-PVTZ
  Basis Set: (CC-PVTZ AUX)
    Blend: CC-PVTZ-JKFIT
  @DF-UKS Final Energy:   -75.30220714748893
    Total Energy =                        -75.3022071474889145
 Dipole X            :          0.0000000            0.0000000            0.0000000
 Dipole Y            :          0.0000000            0.0000000            0.0000000
 Dipole Z            :          0.0000000            0.0000000            0.0000000
 Magnitude           :                                                    0.0000000
    Molecular point group: d2h

    Geometry (in Angstrom), charge = 1, multiplicity = 4:

       Center              X                  Y                   Z               Mass
    ------------   -----------------  -----------------  -----------------  -----------------
         C            0.000000000000     0.000000000000    -0.498609500000    12.000000000000
         C            0.000000000000     0.000000000000     0.498609500000    12.000000000000

  Charge       = 1
  Multiplicity = 4
  Basis Set: CC-PVTZ
    Blend: CC-PVTZ
  Basis Set: (CC-PVTZ AUX)
    Blend: CC-PVTZ-JKFIT

    Orbital Energies [Eh]
    ---------------------

    Alpha Occupied:

       1Ag   -10.660505     1B1u  -10.646083     2Ag    -1.287394
       1B2u   -0.826767     2B1u   -0.803390     1B3u   -0.781525
       3Ag    -0.764155

    Alpha Virtual:

       1B3g   -0.301741     1B2g   -0.272650     3B1u   -0.041954
       2B2u   -0.032399     2B3u   -0.020280     4Ag     0.003015
       5Ag     0.031455     2B3g    0.125730     2B2g    0.136848
       1B1g    0.219520     6Ag     0.220318     4B1u    0.294361
       3B2u    0.487462     3B3u    0.509429     5B1u    0.513067
       1Au     0.589422     6B1u    0.590640     7Ag     0.780042
       3B3g    0.830611     3B2g    0.844261     4B2u    1.449242
       7B1u    1.457185     4B3u    1.481189     8Ag     1.805021
       4B3g    1.949268     4B2g    1.977533     8B1u    2.023920
       5B2u    2.043418     5B3u    2.043749     2B1g    2.070727
       9Ag     2.072406     6B2u    2.212408     6B3u    2.245850
      10Ag     2.405040     5B3g    2.534294     5B2g    2.555845
       9B1u    2.584217     2Au     2.584761     3B1g    2.595480
      11Ag     2.595677     6B3g    2.623901     6B2g    2.624472
      12Ag     3.102080    10B1u    3.135737     7B2u    3.336032
       7B3u    3.364726     3Au     3.521921    11B1u    3.522133
      12B1u    4.339925     7B3g    4.745514     7B2g    4.777998
      13Ag     5.569569    13B1u   17.008820

    Beta Occupied:

       1Ag   -10.626300     1B1u  -10.612756     2Ag    -1.199777
       1B3u   -0.739010

    Beta Virtual:

       1B2u   -0.621158     2B1u   -0.544613     3Ag    -0.503128
       1B2g   -0.210669     1B3g   -0.180848     2B3u   -0.013813
       3B1u   -0.011092     2B2u   -0.004007     4Ag     0.032633
       5Ag     0.100103     2B2g    0.155620     2B3g    0.173356
       1B1g    0.255226     6Ag     0.259760     4B1u    0.354941
       3B3u    0.562690     3B2u    0.576731     5B1u    0.589577
       1Au     0.625775     6B1u    0.631885     7Ag     0.855041
       3B2g    0.876621     3B3g    0.891842     4B3u    1.503554
       4B2u    1.518224     7B1u    1.560658     8Ag     1.868062
       4B2g    2.004455     4B3g    2.015877     5B3u    2.094571
       5B2u    2.097467     8B1u    2.109967     2B1g    2.121760
       9Ag     2.127747     6B3u    2.329782     6B2u    2.358023
      10Ag     2.572167     5B2g    2.661191     2Au     2.676909
       6B2g    2.682013     5B3g    2.685116     9B1u    2.689955
       3B1g    2.691105     6B3g    2.695996    11Ag     2.704374
      12Ag     3.189618    10B1u    3.279442     7B3u    3.446880
       7B2u    3.473324     3Au     3.589068    11B1u    3.599419
      12B1u    4.435593     7B2g    4.844623     7B3g    4.871627
      13Ag     5.637738    13B1u   17.070741

    Final Occupation by Irrep:
             Ag   B1g   B2g   B3g    Au   B1u   B2u   B3u
    DOCC [     2,    0,    0,    0,    0,    1,    0,    1 ]
    SOCC [     1,    0,    0,    0,    0,    1,    1,    0 ]
    NA   [     3,    0,    0,    0,    0,    2,    1,    1 ]
    NB   [     2,    0,    0,    0,    0,    1,    0,    1 ]

  @DF-UKS Final Energy:   -75.30220714766654

   => Energetics <=

    Nuclear Repulsion Energy =             19.1035064355171791
    One-Electron Energy =                -133.6883454378248075
    Two-Electron Energy =                  47.8570761315116755
    DFT Exchange-Correlation Energy =      -8.5744442768705778
    Empirical Dispersion Energy =           0.0000000000000000
    VV10 Nonlocal Energy =                  0.0000000000000000
    Total Energy =                        -75.3022071476665360

  UHF NO Occupations:
  HONO-2 :    1B2u 1.0000000
  HONO-1 :    3 Ag 1.0000000
  HONO-0 :    2B1u 1.0000000
  LUNO+0 :    2B3u 0.0004895
  LUNO+1 :    4 Ag 0.0004754
  LUNO+2 :    3B1u 0.0000012
  LUNO+3 :    5 Ag 0.0000008

Computation Completed

Properties will be evaluated at   0.000000,   0.000000,   0.000000 [a0]

Properties computed using the B3LYP density matrix

 Multipole Moments:

 ------------------------------------------------------------------------------------
     Multipole            Electronic (a.u.)      Nuclear  (a.u.)        Total (a.u.)
 ------------------------------------------------------------------------------------

 L = 1.  Multiply by 2.5417464519 to convert [e a0] to [Debye]
 Dipole X            :          0.0000000            0.0000000            0.0000000
 Dipole Y            :          0.0000000            0.0000000            0.0000000
 Dipole Z            :          0.0000000            0.0000000            0.0000000
 Magnitude           :                                                    0.0000000

 L = 2.  Multiply by 1.3450342976 to convert [e a0^2] to [Debye ang]
 Quadrupole XX       :         -6.4339565            0.0000000           -6.4339565
 Quadrupole XY       :          0.0000000            0.0000000            0.0000000
 Quadrupole XZ       :          0.0000000            0.0000000            0.0000000
 Quadrupole YY       :         -5.4044494            0.0000000           -5.4044494
 Quadrupole YZ       :          0.0000000            0.0000000            0.0000000
 Quadrupole ZZ       :        -14.8709844           10.6536906           -4.2172939
 Traceless XX        :          2.4691736           -3.5512302           -1.0820566
 Traceless YY        :          3.4986807           -3.5512302           -0.0525495
 Traceless ZZ        :         -5.9678543            7.1024604            1.1346061

 ------------------------------------------------------------------------------------
  ==> Computing MBIS Charges <==

  Electron Count from Grid (Expected Number): 11.00000 (11.00000)
  Difference:  0.00000

  MBIS Charges: (a.u.)
   Center  Symbol  Z      Pop.       Charge
      1       C    6    5.500000    0.500000
      2       C    6    5.500000    0.500000

  MBIS Dipoles: [e a0]
   Center  Symbol  Z        X           Y           Z
      1       C    6   -0.000000    0.000000   -0.307974
      2       C    6   -0.000000   -0.000000    0.307974

  MBIS Quadrupoles: [e a0^2]
   Center  Symbol  Z      XX        XY        XZ        YY        YZ        ZZ
      1       C    6   -3.2170    0.0000   -0.0000   -2.7022   -0.0000   -3.1329
      2       C    6   -3.2170    0.0000    0.0000   -2.7022    0.0000   -3.1329

  MBIS Octupoles: [e a0^3]
   Center  Symbol  Z      XXX       XXY       XXZ       XYY       XYZ       XZZ       YYY       YYZ       YZZ       ZZZ
      1       C    6   -0.0000   -0.0000   -0.3035   -0.0000    0.0000   -0.0000    0.0000   -0.1564    0.0000   -0.2796
      2       C    6   -0.0000   -0.0000    0.3035   -0.0000   -0.0000   -0.0000    0.0000    0.1564    0.0000    0.2796

  MBIS Radial Moments:
   Center  Symbol  Z      [a0^2]      [a0^3]      [a0^4]
      1       C    6    9.052121   18.878219   47.102602
      2       C    6    9.052121   18.878219   47.102602

  MBIS Valence Widths: [a0]
   Center  Symbol  Z     Width
      1       C    6    0.443941
      2       C    6    0.443941

*** tstop() called on Mac.lan at Sun Aug 10 18:15:26 2025
Module time:
	user time   =      12.31 seconds =       0.21 minutes
	system time =       2.80 seconds =       0.05 minutes
	total time  =          2 seconds =       0.03 minutes
Total time:
	user time   =      30.38 seconds =       0.51 minutes
	system time =       5.19 seconds =       0.09 minutes
	total time  =          4 seconds =       0.07 minutes

    Psi4 stopped on: Sunday, 10 August 2025 06:15PM
    Psi4 wall time for execution: 0:00:03.59

*** Psi4 exiting successfully. Buy a developer a beer!
