                               Psi4 1.9.1 release

  ==> Input File <==

--------------------------------------------------------------------------
molecule {
1 4
C           0.000000           0.000000           0.000000
C           0.000000           0.000000           1.248427
}

set {
basis              cc-pvtz
reference          uks
maxiter            500
DAMPING_PERCENTAGE 1
E_CONVERGENCE      1.0E-8
D_CONVERGENCE      1.0E-8
DIIS_MAX_VECS      400
MBIS_MAXITER       8000
guess              read
}

E, wfn = energy('b3lyp', restart_file='last_wfn', return_wfn=True)
properties('b3lyp','MBIS_CHARGES', wfn=wfn)
wfn.to_file('last_wfn')
--------------------------------------------------------------------------

    Molecular point group: d2h
  Charge       = 1
  Multiplicity = 4
  Basis Set: CC-PVTZ
    Blend: CC-PVTZ
  Basis Set: (CC-PVTZ AUX)
    Blend: CC-PVTZ-JKFIT
  @DF-UKS Final Energy:   -75.46642460564097
    Total Energy =                        -75.4664246056409667
 Dipole X            :          0.0000000            0.0000000            0.0000000
 Dipole Y            :          0.0000000            0.0000000            0.0000000
 Dipole Z            :          0.0000000           -0.0000000           -0.0000000
 Magnitude           :                                                    0.0000000
    Molecular point group: d2h

    Geometry (in Angstrom), charge = 1, multiplicity = 4:

       Center              X                  Y                   Z               Mass
    ------------   -----------------  -----------------  -----------------  -----------------
         C            0.000000000000     0.000000000000    -0.624213500000    12.000000000000
         C            0.000000000000     0.000000000000     0.624213500000    12.000000000000

  Charge       = 1
  Multiplicity = 4
  Basis Set: CC-PVTZ
    Blend: CC-PVTZ
  Basis Set: (CC-PVTZ AUX)
    Blend: CC-PVTZ-JKFIT

    Orbital Energies [Eh]
    ---------------------

    Alpha Occupied:

       1Ag   -10.693983     1B1u  -10.692135     2Ag    -1.201629
       2B1u   -0.836427     3Ag    -0.746680     1B2u   -0.740715
       1B3u   -0.703290

    Alpha Virtual:

       1B3g   -0.390765     1B2g   -0.360982     3B1u   -0.047603
       2B2u   -0.006673     2B3u    0.005139     4Ag     0.017852
       5Ag     0.026835     2B3g    0.105378     2B2g    0.114615
       4B1u    0.160055     1B1g    0.231729     6Ag     0.232356
       5B1u    0.364581     3B2u    0.398142     3B3u    0.421686
       1Au     0.540094     6B1u    0.540292     3B3g    0.815846
       7Ag     0.824981     3B2g    0.829905     7B1u    1.028505
       4B2u    1.530239     4B3u    1.556657     8Ag     1.673239
       4B3g    1.797706     4B2g    1.825840     8B1u    1.962113
       2B1g    2.039985     9Ag     2.040774     5B2u    2.074643
       5B3u    2.105882     6B2u    2.114319     6B3u    2.114831
      10Ag     2.312204     5B3g    2.492293     5B2g    2.492678
      11Ag     2.521547     3B1g    2.521686     6B3g    2.583514
       6B2g    2.603124     9B1u    2.615414     2Au     2.616242
      10B1u    2.877062     7B2u    3.036318     7B3u    3.062446
       3Au     3.116189    11B1u    3.116748    12Ag     3.239950
      12B1u    3.585226     7B3g    4.190741     7B2g    4.220367
      13Ag     4.388839    13B1u   12.062299

    Beta Occupied:

       1Ag   -10.660610     1B1u  -10.659075     2Ag    -1.120029
       1B3u   -0.660907

    Beta Virtual:

       2B1u   -0.585559     1B2u   -0.552298     3Ag    -0.493020
       1B2g   -0.297339     1B3g   -0.258755     3B1u   -0.019431
       2B3u    0.012882     2B2u    0.024088     4Ag     0.044872
       5Ag     0.091055     2B2g    0.128175     2B3g    0.143263
       1B1g    0.266645     4B1u    0.269385     6Ag     0.271345
       5B1u    0.397715     3B3u    0.473164     3B2u    0.489469
       1Au     0.579102     6B1u    0.585490     3B2g    0.866536
       3B3g    0.881318     7Ag     0.902586     7B1u    1.096243
       4B3u    1.582069     4B2u    1.598316     8Ag     1.737850
       4B2g    1.853072     4B3g    1.866050     8B1u    2.056289
       2B1g    2.092947     9Ag     2.099898     5B3u    2.158709
       6B3u    2.168201     5B2u    2.170492     6B2u    2.181734
      10Ag     2.452328     5B2g    2.550955     5B3g    2.555061
       3B1g    2.611757    11Ag     2.623590     2Au     2.700238
       6B2g    2.707968     9B1u    2.710919     6B3g    2.744733
      10B1u    3.006966     7B3u    3.156299     3Au     3.185346
       7B2u    3.187109    11B1u    3.196252    12Ag     3.332450
      12B1u    3.684197     7B2g    4.275561     7B3g    4.299620
      13Ag     4.456127    13B1u   12.114790

    Final Occupation by Irrep:
             Ag   B1g   B2g   B3g    Au   B1u   B2u   B3u
    DOCC [     2,    0,    0,    0,    0,    1,    0,    1 ]
    SOCC [     1,    0,    0,    0,    0,    1,    1,    0 ]
    NA   [     3,    0,    0,    0,    0,    2,    1,    1 ]
    NB   [     2,    0,    0,    0,    0,    1,    0,    1 ]

  @DF-UKS Final Energy:   -75.46642460524927

   => Energetics <=

    Nuclear Repulsion Energy =             15.2595062299357522
    One-Electron Energy =                -126.7125165961949875
    Two-Electron Energy =                  44.3422796684162606
    DFT Exchange-Correlation Energy =      -8.3556939074062839
    Empirical Dispersion Energy =           0.0000000000000000
    VV10 Nonlocal Energy =                  0.0000000000000000
    Total Energy =                        -75.4664246052492445

  UHF NO Occupations:
  HONO-2 :    1B2u 1.0000000
  HONO-1 :    3 Ag 1.0000000
  HONO-0 :    2B1u 1.0000000
  LUNO+0 :    2B3u 0.0007547
  LUNO+1 :    4 Ag 0.0005040
  LUNO+2 :    3B1u 0.0000009
  LUNO+3 :    5 Ag 0.0000005

Computation Completed

Properties will be evaluated at   0.000000,   0.000000,   0.000000 [a0]

Properties computed using the B3LYP density matrix

 Multipole Moments:

 ------------------------------------------------------------------------------------
     Multipole            Electronic (a.u.)      Nuclear  (a.u.)        Total (a.u.)
 ------------------------------------------------------------------------------------

 L = 1.  Multiply by 2.5417464519 to convert [e a0] to [Debye]
 Dipole X            :          0.0000000            0.0000000            0.0000000
 Dipole Y            :          0.0000000            0.0000000            0.0000000
 Dipole Z            :          0.0000000           -0.0000000           -0.0000000
 Magnitude           :                                                    0.0000000

 L = 2.  Multiply by 1.3450342976 to convert [e a0^2] to [Debye ang]
 Quadrupole XX       :         -7.1021313            0.0000000           -7.1021313
 Quadrupole XY       :          0.0000000            0.0000000            0.0000000
 Quadrupole XZ       :          0.0000000            0.0000000            0.0000000
 Quadrupole YY       :         -5.8877502            0.0000000           -5.8877502
 Quadrupole YZ       :          0.0000000            0.0000000            0.0000000
 Quadrupole ZZ       :        -20.3228961           16.6972633           -3.6256328
 Traceless XX        :          4.0021279           -5.5657544           -1.5636265
 Traceless YY        :          5.2165089           -5.5657544           -0.3492455
 Traceless ZZ        :         -9.2186369           11.1315088            1.9128720

 ------------------------------------------------------------------------------------
  ==> Computing MBIS Charges <==

  Electron Count from Grid (Expected Number): 11.00000 (11.00000)
  Difference: -0.00000

  MBIS Charges: (a.u.)
   Center  Symbol  Z      Pop.       Charge
      1       C    6    5.500000    0.500000
      2       C    6    5.500000    0.500000

  MBIS Dipoles: [e a0]
   Center  Symbol  Z        X           Y           Z
      1       C    6   -0.000000    0.000000   -0.383322
      2       C    6    0.000000    0.000000    0.383322

  MBIS Quadrupoles: [e a0^2]
   Center  Symbol  Z      XX        XY        XZ        YY        YZ        ZZ
      1       C    6   -3.5511    0.0000   -0.0000   -2.9439   -0.0000   -3.4129
      2       C    6   -3.5511    0.0000    0.0000   -2.9439    0.0000   -3.4129

  MBIS Octupoles: [e a0^3]
   Center  Symbol  Z      XXX       XXY       XXZ       XYY       XYZ       XZZ       YYY       YYZ       YZZ       ZZZ
      1       C    6   -0.0000    0.0000   -0.4976    0.0000    0.0000   -0.0000    0.0000   -0.3058    0.0000   -0.7861
      2       C    6   -0.0000    0.0000    0.4976   -0.0000   -0.0000   -0.0000    0.0000    0.3058    0.0000    0.7861

  MBIS Radial Moments:
   Center  Symbol  Z      [a0^2]      [a0^3]      [a0^4]
      1       C    6    9.907804   21.603896   56.226984
      2       C    6    9.907804   21.603896   56.226984

  MBIS Valence Widths: [a0]
   Center  Symbol  Z     Width
      1       C    6    0.467434
      2       C    6    0.467434

*** tstop() called on Mac.lan at Sun Aug 10 18:14:57 2025
Module time:
	user time   =       5.26 seconds =       0.09 minutes
	system time =       2.54 seconds =       0.04 minutes
	total time  =          1 seconds =       0.02 minutes
Total time:
	user time   =      17.95 seconds =       0.30 minutes
	system time =       3.55 seconds =       0.06 minutes
	total time  =          3 seconds =       0.05 minutes

    Psi4 stopped on: Sunday, 10 August 2025 06:14PM
    Psi4 wall time for execution: 0:00:02.15

*** Psi4 exiting successfully. Buy a developer a beer!
