                               Psi4 1.9.1 release

  ==> Input File <==

--------------------------------------------------------------------------
molecule {
1 2
O           0.000000           0.000000           0.000000
O           0.000000           0.000000           1.029549
}

set {
basis              cc-pvtz
reference          uks
maxiter            500
DAMPING_PERCENTAGE 1
E_CONVERGENCE      1.0E-8
D_CONVERGENCE      1.0E-8
DIIS_MAX_VECS      400
MBIS_MAXITER       8000
guess              read
}

E, wfn = energy('b3lyp', restart_file='last_wfn', return_wfn=True)
properties('b3lyp','MBIS_CHARGES', wfn=wfn)
wfn.to_file('last_wfn')
--------------------------------------------------------------------------

    Molecular point group: d2h
  Charge       = 1
  Multiplicity = 2
  Basis Set: CC-PVTZ
    Blend: CC-PVTZ
  Basis Set: (CC-PVTZ AUX)
    Blend: CC-PVTZ-JKFIT
  @DF-UKS Final Energy:  -149.90596251749128
    Total Energy =                       -149.9059625174912753
 Dipole X            :          0.0000000            0.0000000            0.0000000
 Dipole Y            :          0.0000000            0.0000000            0.0000000
 Dipole Z            :          0.0000000            0.0000000            0.0000000
 Magnitude           :                                                    0.0000000
    Molecular point group: d2h

    Geometry (in Angstrom), charge = 1, multiplicity = 2:

       Center              X                  Y                   Z               Mass
    ------------   -----------------  -----------------  -----------------  -----------------
         O            0.000000000000     0.000000000000    -0.514774500000    15.994914619570
         O            0.000000000000     0.000000000000     0.514774500000    15.994914619570

  Charge       = 1
  Multiplicity = 2
  Basis Set: CC-PVTZ
    Blend: CC-PVTZ
  Basis Set: (CC-PVTZ AUX)
    Blend: CC-PVTZ-JKFIT

    Orbital Energies [Eh]
    ---------------------

    Alpha Occupied:

       1Ag   -19.811832     1B1u  -19.810781     2Ag    -1.963563
       2B1u   -1.230046     1B3u   -1.110042     1B2u   -1.075972
       3Ag    -1.038317     1B2g   -0.702585

    Alpha Virtual:

       1B3g   -0.574131     3B1u   -0.010499     2B3u    0.126023
       2B2u    0.126453     4Ag     0.190262     4B1u    0.249718
       5Ag     0.258265     2B2g    0.289857     2B3g    0.298735
       1B1g    0.734778     6Ag     0.736059     5B1u    0.816570
       3B2u    0.978952     3B3u    0.979019     1Au     1.269769
       6B1u    1.271512     7Ag     1.789998     3B2g    1.844747
       3B3g    1.848213     7B1u    1.865007     4B3u    2.948413
       4B2u    2.964922     8Ag     3.214026     4B2g    3.345886
       4B3g    3.358163     2B1g    4.045490     9Ag     4.046733
       8B1u    4.055795     5B2u    4.251760     5B3u    4.257738
       6B3u    4.293449     6B2u    4.293772    10Ag     4.720271
       5B2g    4.791011     5B3g    4.791315     9B1u    5.354581
       3B1g    5.511261    11Ag     5.515369     2Au     5.596240
      10B1u    5.599658     6B2g    5.764044     6B3g    5.772112
       3Au     5.825509    11B1u    5.827987     7B3u    6.167332
       7B2u    6.170317    12Ag     6.520844    12B1u    6.813786
      13Ag     7.473854     7B3g    7.481421     7B2g    7.483380
      13B1u   17.331772

    Beta Occupied:

       1Ag   -19.795315     1B1u  -19.794153     2Ag    -1.938782
       2B1u   -1.183695     1B2u   -1.062436     1B3u   -1.016783
       3Ag    -1.013826

    Beta Virtual:

       1B3g   -0.556015     1B2g   -0.507123     3B1u    0.004240
       2B2u    0.130089     2B3u    0.149564     4Ag     0.192158
       4B1u    0.266515     5Ag     0.271157     2B3g    0.303875
       2B2g    0.322926     1B1g    0.755845     6Ag     0.756036
       5B1u    0.831614     3B2u    0.981775     3B3u    1.012216
       1Au     1.303365     6B1u    1.303385     7Ag     1.803955
       3B3g    1.852716     7B1u    1.877503     3B2g    1.878858
       4B2u    2.976577     4B3u    3.016493     8Ag     3.225683
       4B3g    3.370387     4B2g    3.412266     2B1g    4.064464
       9Ag     4.064698     8B1u    4.077010     5B2u    4.254678
       5B3u    4.286631     6B2u    4.329573     6B3u    4.330351
      10Ag     4.735668     5B3g    4.831031     5B2g    4.831051
       9B1u    5.373748    11Ag     5.570840     3B1g    5.570901
      10B1u    5.644262     2Au     5.644272     6B3g    5.777855
       6B2g    5.814147     3Au     5.864914    11B1u    5.865975
       7B2u    6.176116     7B3u    6.215176    12Ag     6.551914
      12B1u    6.831818     7B3g    7.486613    13Ag     7.487915
       7B2g    7.522219    13B1u   17.354851

    Final Occupation by Irrep:
             Ag   B1g   B2g   B3g    Au   B1u   B2u   B3u
    DOCC [     3,    0,    0,    0,    0,    2,    1,    1 ]
    SOCC [     0,    0,    1,    0,    0,    0,    0,    0 ]
    NA   [     3,    0,    1,    0,    0,    2,    1,    1 ]
    NB   [     3,    0,    0,    0,    0,    2,    1,    1 ]

  @DF-UKS Final Energy:  -149.90596251811291

   => Energetics <=

    Nuclear Repulsion Energy =             32.8953177390100109
    One-Electron Energy =                -263.3423573895526602
    Two-Electron Energy =                  94.0649110880519856
    DFT Exchange-Correlation Energy =     -13.5238339556222424
    Empirical Dispersion Energy =           0.0000000000000000
    VV10 Nonlocal Energy =                  0.0000000000000000
    Total Energy =                       -149.9059625181129149

  UHF NO Occupations:
  HONO-2 :    2B1u 1.9997353
  HONO-1 :    1B3u 1.9993123
  HONO-0 :    1B2g 1.0000000
  LUNO+0 :    2B3u 0.0006877
  LUNO+1 :    3B1u 0.0002647
  LUNO+2 :    4 Ag 0.0001420
  LUNO+3 :    2B2u 0.0000265

Computation Completed

Properties will be evaluated at   0.000000,   0.000000,   0.000000 [a0]

Properties computed using the B3LYP density matrix

 Multipole Moments:

 ------------------------------------------------------------------------------------
     Multipole            Electronic (a.u.)      Nuclear  (a.u.)        Total (a.u.)
 ------------------------------------------------------------------------------------

 L = 1.  Multiply by 2.5417464519 to convert [e a0] to [Debye]
 Dipole X            :          0.0000000            0.0000000            0.0000000
 Dipole Y            :          0.0000000            0.0000000            0.0000000
 Dipole Z            :          0.0000000            0.0000000            0.0000000
 Magnitude           :                                                    0.0000000

 L = 2.  Multiply by 1.3450342976 to convert [e a0^2] to [Debye ang]
 Quadrupole XX       :         -6.0228688            0.0000000           -6.0228688
 Quadrupole XY       :          0.0000000            0.0000000            0.0000000
 Quadrupole XZ       :          0.0000000            0.0000000            0.0000000
 Quadrupole YY       :         -5.4675843            0.0000000           -5.4675843
 Quadrupole YZ       :          0.0000000            0.0000000            0.0000000
 Quadrupole ZZ       :        -20.3745320           15.1409027           -5.2336293
 Traceless XX        :          4.5987929           -5.0469676           -0.4481747
 Traceless YY        :          5.1540774           -5.0469676            0.1071098
 Traceless ZZ        :         -9.7528703           10.0939351            0.3410648

 ------------------------------------------------------------------------------------
  ==> Computing MBIS Charges <==

  Electron Count from Grid (Expected Number): 15.00000 (15.00000)
  Difference:  0.00000

  MBIS Charges: (a.u.)
   Center  Symbol  Z      Pop.       Charge
      1       O    8    7.500000    0.500000
      2       O    8    7.500000    0.500000

  MBIS Dipoles: [e a0]
   Center  Symbol  Z        X           Y           Z
      1       O    8    0.000000   -0.000000    0.027668
      2       O    8   -0.000000    0.000000   -0.027668

  MBIS Quadrupoles: [e a0^2]
   Center  Symbol  Z      XX        XY        XZ        YY        YZ        ZZ
      1       O    8   -3.0114   -0.0000    0.0000   -2.7338    0.0000   -3.0361
      2       O    8   -3.0114   -0.0000   -0.0000   -2.7338    0.0000   -3.0361

  MBIS Octupoles: [e a0^3]
   Center  Symbol  Z      XXX       XXY       XXZ       XYY       XYZ       XZZ       YYY       YYZ       YZZ       ZZZ
      1       O    8   -0.0000   -0.0000    0.0739    0.0000   -0.0000   -0.0000    0.0000   -0.0099   -0.0000   -0.1081
      2       O    8   -0.0000   -0.0000   -0.0739   -0.0000    0.0000   -0.0000    0.0000    0.0099   -0.0000    0.1081

  MBIS Radial Moments:
   Center  Symbol  Z      [a0^2]      [a0^3]      [a0^4]
      1       O    8    8.781364   14.885369   30.283759
      2       O    8    8.781364   14.885369   30.283759

  MBIS Valence Widths: [a0]
   Center  Symbol  Z     Width
      1       O    8    0.354343
      2       O    8    0.354343

*** tstop() called on Mac.lan at Sun Aug 10 18:12:38 2025
Module time:
	user time   =       3.49 seconds =       0.06 minutes
	system time =       2.56 seconds =       0.04 minutes
	total time  =          1 seconds =       0.02 minutes
Total time:
	user time   =      14.06 seconds =       0.23 minutes
	system time =       4.84 seconds =       0.08 minutes
	total time  =          2 seconds =       0.03 minutes

    Psi4 stopped on: Sunday, 10 August 2025 06:12PM
    Psi4 wall time for execution: 0:00:01.85

*** Psi4 exiting successfully. Buy a developer a beer!
