                               Psi4 1.9.1 release

  ==> Input File <==

--------------------------------------------------------------------------
molecule {
1 2
N           0.000000           0.000000           0.000000
N           0.000000           0.000000           1.149867
}

set {
basis              cc-pvtz
reference          uks
maxiter            500
DAMPING_PERCENTAGE 1
E_CONVERGENCE      1.0E-8
D_CONVERGENCE      1.0E-8
DIIS_MAX_VECS      400
MBIS_MAXITER       8000
guess              SAP
}

E, wfn = energy('b3lyp', return_wfn=True)
properties('b3lyp','MBIS_CHARGES', wfn=wfn)
wfn.to_file('last_wfn')
--------------------------------------------------------------------------

    Molecular point group: d2h
  Charge       = 1
  Multiplicity = 2
  Basis Set: CC-PVTZ
    Blend: CC-PVTZ
  Basis Set: (CC-PVTZ AUX)
    Blend: CC-PVTZ-JKFIT
  @DF-UKS Final Energy:  -108.98343803901648
    Total Energy =                       -108.9834380390164768
 Dipole X            :          0.0000000            0.0000000            0.0000000
 Dipole Y            :          0.0000000            0.0000000            0.0000000
 Dipole Z            :          0.0000000           -0.0000000           -0.0000000
 Magnitude           :                                                    0.0000000
    Molecular point group: d2h

    Geometry (in Angstrom), charge = 1, multiplicity = 2:

       Center              X                  Y                   Z               Mass
    ------------   -----------------  -----------------  -----------------  -----------------
         N            0.000000000000     0.000000000000    -0.574933500000    14.003074004430
         N            0.000000000000     0.000000000000     0.574933500000    14.003074004430

  Charge       = 1
  Multiplicity = 2
  Basis Set: CC-PVTZ
    Blend: CC-PVTZ
  Basis Set: (CC-PVTZ AUX)
    Blend: CC-PVTZ-JKFIT

    Orbital Energies [Eh]
    ---------------------

    Alpha Occupied:

       1Ag   -14.927075     1B1u  -14.925888     2Ag    -1.542048
       2B1u   -1.025241     3Ag    -0.902771     1B2u   -0.869353
       1B3u   -0.869353

    Alpha Virtual:

       1B3g   -0.467655     1B2g   -0.467655     3B1u   -0.016162
       2B2u    0.082889     2B3u    0.082889     4Ag     0.108412
       5Ag     0.127994     4B1u    0.188528     2B3g    0.217162
       2B2g    0.217162     1B1g    0.475038     6Ag     0.475038
       5B1u    0.535651     3B2u    0.665191     3B3u    0.665191
       1Au     0.882124     6B1u    0.882124     7Ag     1.294147
       3B2g    1.299080     3B3g    1.299080     7B1u    1.421014
       4B2u    2.318436     4B3u    2.318436     8Ag     2.452814
       4B3g    2.618984     4B2g    2.618984     8B1u    2.969182
       2B1g    3.030022     9Ag     3.030022     5B3u    3.118362
       5B2u    3.118362     6B2u    3.224918     6B3u    3.224918
      10Ag     3.420738     5B3g    3.635308     5B2g    3.635308
       3B1g    3.905777    11Ag     3.905781     2Au     4.035188
       9B1u    4.035192    10B1u    4.045531     6B2g    4.062998
       6B3g    4.062998     3Au     4.382258    11B1u    4.382259
       7B2u    4.459960     7B3u    4.459960    12Ag     4.768419
      12B1u    5.056902    13Ag     5.675246     7B3g    5.743964
       7B2g    5.743964    13B1u   13.744765

    Beta Occupied:

       1Ag   -14.913868     1B1u  -14.912909     2Ag    -1.512163
       2B1u   -0.935537     1B2u   -0.856528     1B3u   -0.856528

    Beta Virtual:

       3Ag    -0.722052     1B3g   -0.445304     1B2g   -0.445304
       3B1u   -0.003704     2B2u    0.086859     2B3u    0.086859
       4Ag     0.126520     5Ag     0.154035     2B3g    0.222467
       2B2g    0.222467     4B1u    0.252662     1B1g    0.478579
       6Ag     0.478579     5B1u    0.542426     3B2u    0.696800
       3B3u    0.696800     1Au     0.891556     6B1u    0.891556
       3B2g    1.326132     3B3g    1.326132     7Ag     1.334636
       7B1u    1.459660     4B2u    2.329532     4B3u    2.329532
       8Ag     2.492020     4B3g    2.628035     4B2g    2.628035
       8B1u    3.019785     2B1g    3.050369     9Ag     3.050370
       5B3u    3.150632     5B2u    3.150632     6B2u    3.230192
       6B3u    3.230192    10Ag     3.492274     5B3g    3.641770
       5B2g    3.641770     3B1g    3.920304    11Ag     3.920308
       2Au     4.043827     9B1u    4.043831    10B1u    4.096063
       6B2g    4.124095     6B3g    4.124095     3Au     4.410498
      11B1u    4.410498     7B2u    4.515795     7B3u    4.515795
      12Ag     4.801658    12B1u    5.119699    13Ag     5.719939
       7B3g    5.777888     7B2g    5.777888    13B1u   13.763688

    Final Occupation by Irrep:
             Ag   B1g   B2g   B3g    Au   B1u   B2u   B3u
    DOCC [     2,    0,    0,    0,    0,    2,    1,    1 ]
    SOCC [     1,    0,    0,    0,    0,    0,    0,    0 ]
    NA   [     3,    0,    0,    0,    0,    2,    1,    1 ]
    NB   [     2,    0,    0,    0,    0,    2,    1,    1 ]

  @DF-UKS Final Energy:  -108.98343803901648

   => Energetics <=

    Nuclear Repulsion Energy =             22.5501586903789750
    One-Electron Energy =                -186.3192792566213143
    Two-Electron Energy =                  65.4793694881894908
    DFT Exchange-Correlation Energy =     -10.6936869609636211
    Empirical Dispersion Energy =           0.0000000000000000
    VV10 Nonlocal Energy =                  0.0000000000000000
    Total Energy =                       -108.9834380390164768

  UHF NO Occupations:
  HONO-2 :    2 Ag 1.9998821
  HONO-1 :    2B1u 1.9981016
  HONO-0 :    3 Ag 1.0000000
  LUNO+0 :    3B1u 0.0018984
  LUNO+1 :    4 Ag 0.0001179
  LUNO+2 :    2B2u 0.0000961
  LUNO+3 :    2B3u 0.0000961

Computation Completed

Properties will be evaluated at   0.000000,   0.000000,   0.000000 [a0]

Properties computed using the B3LYP density matrix

 Multipole Moments:

 ------------------------------------------------------------------------------------
     Multipole            Electronic (a.u.)      Nuclear  (a.u.)        Total (a.u.)
 ------------------------------------------------------------------------------------

 L = 1.  Multiply by 2.5417464519 to convert [e a0] to [Debye]
 Dipole X            :          0.0000000            0.0000000            0.0000000
 Dipole Y            :          0.0000000            0.0000000            0.0000000
 Dipole Z            :          0.0000000           -0.0000000           -0.0000000
 Magnitude           :                                                    0.0000000

 L = 2.  Multiply by 1.3450342976 to convert [e a0^2] to [Debye ang]
 Quadrupole XX       :         -6.2637816            0.0000000           -6.2637816
 Quadrupole XY       :          0.0000000            0.0000000            0.0000000
 Quadrupole XZ       :          0.0000000            0.0000000            0.0000000
 Quadrupole YY       :         -6.2637816            0.0000000           -6.2637816
 Quadrupole YZ       :          0.0000000            0.0000000            0.0000000
 Quadrupole ZZ       :        -20.7717026           16.5257432           -4.2459594
 Traceless XX        :          4.8359736           -5.5085811           -0.6726074
 Traceless YY        :          4.8359736           -5.5085811           -0.6726074
 Traceless ZZ        :         -9.6719473           11.0171621            1.3452148

 ------------------------------------------------------------------------------------
  ==> Computing MBIS Charges <==

  Electron Count from Grid (Expected Number): 13.00000 (13.00000)
  Difference:  0.00000

  MBIS Charges: (a.u.)
   Center  Symbol  Z      Pop.       Charge
      1       N    7    6.500000    0.500000
      2       N    7    6.500000    0.500000

  MBIS Dipoles: [e a0]
   Center  Symbol  Z        X           Y           Z
      1       N    7   -0.000000   -0.000000   -0.237493
      2       N    7   -0.000000   -0.000000    0.237493

  MBIS Quadrupoles: [e a0^2]
   Center  Symbol  Z      XX        XY        XZ        YY        YZ        ZZ
      1       N    7   -3.1319    0.0000   -0.0000   -3.1319   -0.0000   -3.2292
      2       N    7   -3.1319    0.0000    0.0000   -3.1319    0.0000   -3.2292

  MBIS Octupoles: [e a0^3]
   Center  Symbol  Z      XXX       XXY       XXZ       XYY       XYZ       XZZ       YYY       YYZ       YZZ       ZZZ
      1       N    7   -0.0000   -0.0000   -0.2307   -0.0000    0.0000    0.0000   -0.0000   -0.2307    0.0000   -0.5479
      2       N    7   -0.0000   -0.0000    0.2307   -0.0000   -0.0000    0.0000   -0.0000    0.2307   -0.0000    0.5479

  MBIS Radial Moments:
   Center  Symbol  Z      [a0^2]      [a0^3]      [a0^4]
      1       N    7    9.493023   18.137158   41.310937
      2       N    7    9.493023   18.137158   41.310937

  MBIS Valence Widths: [a0]
   Center  Symbol  Z     Width
      1       N    7    0.406582
      2       N    7    0.406582

*** tstop() called on Mac.lan at Sun Aug 10 18:25:03 2025
Module time:
	user time   =      14.12 seconds =       0.24 minutes
	system time =       2.86 seconds =       0.05 minutes
	total time  =          2 seconds =       0.03 minutes
Total time:
	user time   =      32.98 seconds =       0.55 minutes
	system time =       5.16 seconds =       0.09 minutes
	total time  =          4 seconds =       0.07 minutes

    Psi4 stopped on: Sunday, 10 August 2025 06:25PM
    Psi4 wall time for execution: 0:00:03.70

*** Psi4 exiting successfully. Buy a developer a beer!
