                               Psi4 1.9.1 release

  ==> Input File <==

--------------------------------------------------------------------------
molecule {
1 2
N           0.000000           0.000000           0.000000
N           0.000000           0.000000           1.251326
}

set {
basis              cc-pvtz
reference          uks
maxiter            500
DAMPING_PERCENTAGE 1
E_CONVERGENCE      1.0E-8
D_CONVERGENCE      1.0E-8
DIIS_MAX_VECS      400
MBIS_MAXITER       8000
guess              read
}

E, wfn = energy('b3lyp', restart_file='last_wfn', return_wfn=True)
properties('b3lyp','MBIS_CHARGES', wfn=wfn)
wfn.to_file('last_wfn')
--------------------------------------------------------------------------

    Molecular point group: d2h
  Charge       = 1
  Multiplicity = 2
  Basis Set: CC-PVTZ
    Blend: CC-PVTZ
  Basis Set: (CC-PVTZ AUX)
    Blend: CC-PVTZ-JKFIT
  @DF-UKS Final Energy:  -108.94918698311946
    Total Energy =                       -108.9491869831194748
 Dipole X            :          0.0000000            0.0000000            0.0000000
 Dipole Y            :          0.0000000            0.0000000            0.0000000
 Dipole Z            :          0.0000000            0.0000000            0.0000000
 Magnitude           :                                                    0.0000000
    Molecular point group: d2h

    Geometry (in Angstrom), charge = 1, multiplicity = 2:

       Center              X                  Y                   Z               Mass
    ------------   -----------------  -----------------  -----------------  -----------------
         N            0.000000000000     0.000000000000    -0.625663000000    14.003074004430
         N            0.000000000000     0.000000000000     0.625663000000    14.003074004430

  Charge       = 1
  Multiplicity = 2
  Basis Set: CC-PVTZ
    Blend: CC-PVTZ
  Basis Set: (CC-PVTZ AUX)
    Blend: CC-PVTZ-JKFIT

    Orbital Energies [Eh]
    ---------------------

    Alpha Occupied:

       1Ag   -14.940684     1B1u  -14.940089     2Ag    -1.476649
       2B1u   -1.043044     3Ag    -0.892256     1B2u   -0.834049
       1B3u   -0.834049

    Alpha Virtual:

       1B3g   -0.502220     1B2g   -0.502220     3B1u   -0.095081
       2B3u    0.094617     2B2u    0.094617     4B1u    0.111408
       4Ag     0.117565     5Ag     0.134702     2B2g    0.212341
       2B3g    0.212341     1B1g    0.491267     6Ag     0.491267
       5B1u    0.538691     3B3u    0.613690     3B2u    0.613690
       1Au     0.853035     6B1u    0.853035     7Ag     1.265984
       3B2g    1.271554     3B3g    1.271554     7B1u    1.312913
       4B3u    2.306363     4B2u    2.306363     8Ag     2.420161
       4B3g    2.555193     4B2g    2.555193     2B1g    3.030252
       9Ag     3.030253     5B2u    3.090899     5B3u    3.090899
       8B1u    3.094769     6B3u    3.282106     6B2u    3.282106
      10Ag     3.306889     5B2g    3.579383     5B3g    3.579383
       9B1u    3.860700     3B1g    3.905824    11Ag     3.905825
       2Au     3.988663    10B1u    3.988664     6B2g    4.119901
       6B3g    4.119901     3Au     4.226838    11B1u    4.226840
       7B2u    4.326956     7B3u    4.326956    12B1u    4.781434
      12Ag     4.913448    13Ag     5.215418     7B2g    5.376175
       7B3g    5.376175    13B1u   11.015534

    Beta Occupied:

       1Ag   -14.927804     1B1u  -14.927378     2Ag    -1.446223
       2B1u   -0.958397     1B2u   -0.821618     1B3u   -0.821618

    Beta Virtual:

       3Ag    -0.711184     1B3g   -0.481842     1B2g   -0.481842
       3B1u   -0.066044     2B3u    0.098479     2B2u    0.098479
       4Ag     0.140055     5Ag     0.155729     4B1u    0.164495
       2B2g    0.217140     2B3g    0.217140     1B1g    0.494342
       6Ag     0.494342     5B1u    0.547535     3B3u    0.644803
       3B2u    0.644803     1Au     0.860887     6B1u    0.860887
       3B2g    1.299817     3B3g    1.299817     7Ag     1.306307
       7B1u    1.352233     4B3u    2.318679     4B2u    2.318679
       8Ag     2.465540     4B3g    2.563481     4B2g    2.563481
       2B1g    3.054008     9Ag     3.054009     5B2u    3.121448
       5B3u    3.121448     8B1u    3.142988     6B3u    3.286607
       6B2u    3.286607    10Ag     3.370182     5B2g    3.584338
       5B3g    3.584338     9B1u    3.915164     3B1g    3.916386
      11Ag     3.916386     2Au     3.989896    10B1u    3.989896
       6B2g    4.176807     6B3g    4.176807     3Au     4.259674
      11B1u    4.259676     7B2u    4.383265     7B3u    4.383265
      12B1u    4.843982    12Ag     4.932212    13Ag     5.281652
       7B2g    5.412670     7B3g    5.412670    13B1u   11.035885

    Final Occupation by Irrep:
             Ag   B1g   B2g   B3g    Au   B1u   B2u   B3u
    DOCC [     2,    0,    0,    0,    0,    2,    1,    1 ]
    SOCC [     1,    0,    0,    0,    0,    0,    0,    0 ]
    NA   [     3,    0,    0,    0,    0,    2,    1,    1 ]
    NB   [     2,    0,    0,    0,    0,    2,    1,    1 ]

  @DF-UKS Final Energy:  -108.94918698310035

   => Energetics <=

    Nuclear Repulsion Energy =             20.7217650099414605
    One-Electron Energy =                -182.8316814728447071
    Two-Electron Energy =                  63.7773357494364888
    DFT Exchange-Correlation Energy =     -10.6166062696335892
    Empirical Dispersion Energy =           0.0000000000000000
    VV10 Nonlocal Energy =                  0.0000000000000000
    Total Energy =                       -108.9491869831003470

  UHF NO Occupations:
  HONO-2 :    2 Ag 1.9998581
  HONO-1 :    2B1u 1.9974301
  HONO-0 :    3 Ag 1.0000000
  LUNO+0 :    3B1u 0.0025699
  LUNO+1 :    4 Ag 0.0001419
  LUNO+2 :    2B3u 0.0001035
  LUNO+3 :    2B2u 0.0001035

Computation Completed

Properties will be evaluated at   0.000000,   0.000000,   0.000000 [a0]

Properties computed using the B3LYP density matrix

 Multipole Moments:

 ------------------------------------------------------------------------------------
     Multipole            Electronic (a.u.)      Nuclear  (a.u.)        Total (a.u.)
 ------------------------------------------------------------------------------------

 L = 1.  Multiply by 2.5417464519 to convert [e a0] to [Debye]
 Dipole X            :          0.0000000            0.0000000            0.0000000
 Dipole Y            :          0.0000000            0.0000000            0.0000000
 Dipole Z            :          0.0000000            0.0000000            0.0000000
 Magnitude           :                                                    0.0000000

 L = 2.  Multiply by 1.3450342976 to convert [e a0^2] to [Debye ang]
 Quadrupole XX       :         -6.4604936            0.0000000           -6.4604936
 Quadrupole XY       :          0.0000000            0.0000000            0.0000000
 Quadrupole XZ       :          0.0000000            0.0000000            0.0000000
 Quadrupole YY       :         -6.4604936            0.0000000           -6.4604936
 Quadrupole YZ       :          0.0000000            0.0000000            0.0000000
 Quadrupole ZZ       :        -23.4873027           19.5707160           -3.9165867
 Traceless XX        :          5.6756030           -6.5235720           -0.8479690
 Traceless YY        :          5.6756030           -6.5235720           -0.8479690
 Traceless ZZ        :        -11.3512060           13.0471440            1.6959380

 ------------------------------------------------------------------------------------
  ==> Computing MBIS Charges <==

  Electron Count from Grid (Expected Number): 13.00000 (13.00000)
  Difference:  0.00000

  MBIS Charges: (a.u.)
   Center  Symbol  Z      Pop.       Charge
      1       N    7    6.500000    0.500000
      2       N    7    6.500000    0.500000

  MBIS Dipoles: [e a0]
   Center  Symbol  Z        X           Y           Z
      1       N    7    0.000000   -0.000000   -0.260808
      2       N    7    0.000000    0.000000    0.260808

  MBIS Quadrupoles: [e a0^2]
   Center  Symbol  Z      XX        XY        XZ        YY        YZ        ZZ
      1       N    7   -3.2302    0.0000   -0.0000   -3.2302   -0.0000   -3.2740
      2       N    7   -3.2302    0.0000    0.0000   -3.2302    0.0000   -3.2740

  MBIS Octupoles: [e a0^3]
   Center  Symbol  Z      XXX       XXY       XXZ       XYY       XYZ       XZZ       YYY       YYZ       YZZ       ZZZ
      1       N    7   -0.0000   -0.0000   -0.2860   -0.0000    0.0000    0.0000   -0.0000   -0.2860    0.0000   -0.7113
      2       N    7   -0.0000   -0.0000    0.2860   -0.0000   -0.0000    0.0000   -0.0000    0.2860   -0.0000    0.7113

  MBIS Radial Moments:
   Center  Symbol  Z      [a0^2]      [a0^3]      [a0^4]
      1       N    7    9.734463   18.865548   43.572628
      2       N    7    9.734463   18.865548   43.572628

  MBIS Valence Widths: [a0]
   Center  Symbol  Z     Width
      1       N    7    0.412131
      2       N    7    0.412131

*** tstop() called on Mac.lan at Sun Aug 10 18:25:15 2025
Module time:
	user time   =       3.70 seconds =       0.06 minutes
	system time =       2.23 seconds =       0.04 minutes
	total time  =          0 seconds =       0.00 minutes
Total time:
	user time   =      15.79 seconds =       0.26 minutes
	system time =       4.24 seconds =       0.07 minutes
	total time  =          2 seconds =       0.03 minutes

    Psi4 stopped on: Sunday, 10 August 2025 06:25PM
    Psi4 wall time for execution: 0:00:01.95

*** Psi4 exiting successfully. Buy a developer a beer!
