                               Psi4 1.9.1 release

  ==> Input File <==

--------------------------------------------------------------------------
molecule {
1 3
N           0.000000           0.000000           0.000000
C           0.000000           0.000000           1.847345
}

set {
basis              cc-pvtz
reference          uks
maxiter            500
DAMPING_PERCENTAGE 1
E_CONVERGENCE      1.0E-8
D_CONVERGENCE      1.0E-8
DIIS_MAX_VECS      400
MBIS_MAXITER       8000
guess              read
}

E, wfn = energy('b3lyp', restart_file='last_wfn', return_wfn=True)
properties('b3lyp','MBIS_CHARGES', wfn=wfn)
wfn.to_file('last_wfn')
--------------------------------------------------------------------------

    Molecular point group: c2v
  Charge       = 1
  Multiplicity = 3
  Basis Set: CC-PVTZ
    Blend: CC-PVTZ
  Basis Set: (CC-PVTZ AUX)
    Blend: CC-PVTZ-JKFIT
  @DF-UKS Final Energy:   -92.11039370533348
    Total Energy =                        -92.1103937053334789
 Dipole X            :          0.0000000            0.0000000            0.0000000
 Dipole Y            :          0.0000000            0.0000000            0.0000000
 Dipole Z            :          0.5679873            0.0024762            0.5704634
 Magnitude           :                                                    0.5704634
    Molecular point group: c2v

    Geometry (in Angstrom), charge = 1, multiplicity = 3:

       Center              X                  Y                   Z               Mass
    ------------   -----------------  -----------------  -----------------  -----------------
         N            0.000000000000     0.000000000000    -0.852519974993    14.003074004430
         C            0.000000000000     0.000000000000     0.994825025007    12.000000000000

  Charge       = 1
  Multiplicity = 3
  Basis Set: CC-PVTZ
    Blend: CC-PVTZ
  Basis Set: (CC-PVTZ AUX)
    Blend: CC-PVTZ-JKFIT

    Orbital Energies [Eh]
    ---------------------

    Alpha Occupied:

       1A1   -14.836279     2A1   -10.755326     3A1    -1.188242
       4A1    -0.910297     5A1    -0.722948     1B1    -0.710968
       1B2    -0.703051

    Alpha Virtual:

       2B1    -0.491969     2B2    -0.440048     6A1    -0.385698
       7A1     0.020556     3B1     0.036302     3B2     0.057673
       8A1     0.073434     9A1     0.169467     4B1     0.179644
       4B2     0.187758     5B1     0.343838    10A1     0.359001
       1A2     0.359508     5B2     0.365408    11A1     0.474172
      12A1     0.672996     2A2     0.693959    13A1     0.694237
       6B1     0.899751     6B2     0.914398    14A1     1.088150
       7B1     1.572481     7B2     1.615862    15A1     1.824529
      16A1     2.173017     8B1     2.234128     8B2     2.259436
       3A2     2.299871    17A1     2.302458     9B1     2.327432
       9B2     2.328092    10B1     2.486672    10B2     2.504652
      18A1     2.567992     4A2     2.573854    19A1     2.638319
      11B1     2.639940    11B2     2.680568    20A1     3.135595
      21A1     3.361810    12B1     3.463749    12B2     3.463750
       5A2     3.488238    22A1     3.488314    13B1     3.660509
      13B2     3.670121    23A1     3.935574     6A2     3.981103
      24A1     3.981193    14B1     4.218649    14B2     4.226393
      25A1     4.859516    26A1     5.567522

    Beta Occupied:

       1A1   -14.784393     2A1   -10.763587     3A1    -1.059089
       4A1    -0.876133     1B2    -0.641906

    Beta Virtual:

       5A1    -0.552976     1B1    -0.527641     2B2    -0.439721
       2B1    -0.421573     6A1    -0.307386     3B2     0.028411
       7A1     0.037992     3B1     0.041684     8A1     0.078400
       9A1     0.211406     4B2     0.238698     4B1     0.239398
       1A2     0.331255    10A1     0.336430     5B2     0.373318
       5B1     0.381998    11A1     0.521327    12A1     0.711582
       2A2     0.776588    13A1     0.776987     6B2     0.967421
       6B1     0.969368    14A1     1.149316     7B2     1.546323
       7B1     1.574522    15A1     1.863748    16A1     2.209256
       8B2     2.275259     9B2     2.278162     8B1     2.279627
       3A2     2.281633     9B1     2.286883    17A1     2.288578
       4A2     2.508257    18A1     2.520558    10B2     2.564904
      10B1     2.574310    11B2     2.675058    19A1     2.685079
      11B1     2.693975    20A1     3.189610    21A1     3.382234
      12B2     3.581600    12B1     3.581612     5A2     3.594772
      22A1     3.595050    13B2     3.763026    13B1     3.764276
      23A1     4.036542     6A2     4.143094    24A1     4.143418
      14B2     4.356860    14B1     4.358041    25A1     4.945648
      26A1     5.657912

    Final Occupation by Irrep:
             A1    A2    B1    B2
    DOCC [     4,    0,    0,    1 ]
    SOCC [     1,    0,    1,    0 ]
    NA   [     5,    0,    1,    1 ]
    NB   [     4,    0,    0,    1 ]

  @DF-UKS Final Energy:   -92.11039370140017

   => Energetics <=

    Nuclear Repulsion Energy =             12.0310190290064938
    One-Electron Energy =                -143.5598734386765045
    Two-Electron Energy =                  48.8071144596947377
    DFT Exchange-Correlation Energy =      -9.3886537514249113
    Empirical Dispersion Energy =           0.0000000000000000
    VV10 Nonlocal Energy =                  0.0000000000000000
    Total Energy =                        -92.1103937014001843

  UHF NO Occupations:
  HONO-2 :    1 B2 1.4958501
  HONO-1 :    5 A1 1.0000000
  HONO-0 :    1 B1 1.0000000
  LUNO+0 :    2 B2 0.5041499
  LUNO+1 :    6 A1 0.0090157
  LUNO+2 :    7 A1 0.0008344
  LUNO+3 :    8 A1 0.0000015

Computation Completed

Properties will be evaluated at   0.000000,   0.000000,   0.000000 [a0]

Properties computed using the B3LYP density matrix

 Multipole Moments:

 ------------------------------------------------------------------------------------
     Multipole            Electronic (a.u.)      Nuclear  (a.u.)        Total (a.u.)
 ------------------------------------------------------------------------------------

 L = 1.  Multiply by 2.5417464519 to convert [e a0] to [Debye]
 Dipole X            :          0.0000000            0.0000000            0.0000000
 Dipole Y            :          0.0000000            0.0000000            0.0000000
 Dipole Z            :          0.5679873            0.0024762            0.5704634
 Magnitude           :                                                    0.5704634

 L = 2.  Multiply by 1.3450342976 to convert [e a0^2] to [Debye ang]
 Quadrupole XX       :         -6.2184797            0.0000000           -6.2184797
 Quadrupole XY       :          0.0000000            0.0000000            0.0000000
 Quadrupole XZ       :          0.0000000            0.0000000            0.0000000
 Quadrupole YY       :         -7.3882165            0.0000000           -7.3882165
 Quadrupole YZ       :          0.0000000            0.0000000            0.0000000
 Quadrupole ZZ       :        -41.9413579           39.3731079           -2.5682501
 Traceless XX        :         12.2975383          -13.1243693           -0.8268310
 Traceless YY        :         11.1278016          -13.1243693           -1.9965677
 Traceless ZZ        :        -23.4253399           26.2487386            2.8233987

 ------------------------------------------------------------------------------------
  ==> Computing MBIS Charges <==

  Electron Count from Grid (Expected Number): 12.00000 (12.00000)
  Difference: -0.00000

  MBIS Charges: (a.u.)
   Center  Symbol  Z      Pop.       Charge
      1       N    7    6.659570    0.340430
      2       C    6    5.340429    0.659571

  MBIS Dipoles: [e a0]
   Center  Symbol  Z        X           Y           Z
      1       N    7   -0.000000   -0.000000   -0.220095
      2       C    6   -0.000000    0.000000    0.099043

  MBIS Quadrupoles: [e a0^2]
   Center  Symbol  Z      XX        XY        XZ        YY        YZ        ZZ
      1       N    7   -3.4234    0.0000    0.0000   -3.6180   -0.0000   -3.4984
      2       C    6   -2.7951    0.0000   -0.0000   -3.7702    0.0000   -3.3660

  MBIS Octupoles: [e a0^3]
   Center  Symbol  Z      XXX       XXY       XXZ       XYY       XYZ       XZZ       YYY       YYZ       YZZ       ZZZ
      1       N    7   -0.0000   -0.0000   -0.1435   -0.0000    0.0000   -0.0000    0.0000   -0.2999    0.0000   -0.8578
      2       C    6   -0.0000    0.0000    0.1795   -0.0000    0.0000   -0.0000    0.0000    0.2099    0.0000    0.7360

  MBIS Radial Moments:
   Center  Symbol  Z      [a0^2]      [a0^3]      [a0^4]
      1       N    7   10.539785   21.089239   50.385663
      2       C    6    9.931321   22.148661   58.859167

  MBIS Valence Widths: [a0]
   Center  Symbol  Z     Width
      1       N    7    0.421915
      2       C    6    0.479868

*** tstop() called on Mac.lan at Sun Aug 10 18:35:18 2025
Module time:
	user time   =       4.04 seconds =       0.07 minutes
	system time =       1.84 seconds =       0.03 minutes
	total time  =          1 seconds =       0.02 minutes
Total time:
	user time   =      17.50 seconds =       0.29 minutes
	system time =       4.23 seconds =       0.07 minutes
	total time  =          2 seconds =       0.03 minutes

    Psi4 stopped on: Sunday, 10 August 2025 06:35PM
    Psi4 wall time for execution: 0:00:02.13

*** Psi4 exiting successfully. Buy a developer a beer!
