                               Psi4 1.9.1 release

  ==> Input File <==

--------------------------------------------------------------------------
molecule {
1 4
C           0.000000           0.000000           0.000000
C           0.000000           0.000000           1.453961
}

set {
basis              cc-pvtz
reference          uks
maxiter            500
DAMPING_PERCENTAGE 1
E_CONVERGENCE      1.0E-8
D_CONVERGENCE      1.0E-8
DIIS_MAX_VECS      400
MBIS_MAXITER       8000
guess              read
}

E, wfn = energy('b3lyp', restart_file='last_wfn', return_wfn=True)
properties('b3lyp','MBIS_CHARGES', wfn=wfn)
wfn.to_file('last_wfn')
--------------------------------------------------------------------------

    Molecular point group: d2h
  Charge       = 1
  Multiplicity = 4
  Basis Set: CC-PVTZ
    Blend: CC-PVTZ
  Basis Set: (CC-PVTZ AUX)
    Blend: CC-PVTZ-JKFIT
  @DF-UKS Final Energy:   -75.50486303667221
    Total Energy =                        -75.5048630366722051
 Dipole X            :          0.0000000            0.0000000            0.0000000
 Dipole Y            :          0.0000000            0.0000000            0.0000000
 Dipole Z            :          0.0000000            0.0000000            0.0000000
 Magnitude           :                                                    0.0000000
    Molecular point group: d2h

    Geometry (in Angstrom), charge = 1, multiplicity = 4:

       Center              X                  Y                   Z               Mass
    ------------   -----------------  -----------------  -----------------  -----------------
         C            0.000000000000     0.000000000000    -0.726980500000    12.000000000000
         C            0.000000000000     0.000000000000     0.726980500000    12.000000000000

  Charge       = 1
  Multiplicity = 4
  Basis Set: CC-PVTZ
    Blend: CC-PVTZ
  Basis Set: (CC-PVTZ AUX)
    Blend: CC-PVTZ-JKFIT

    Orbital Energies [Eh]
    ---------------------

    Alpha Occupied:

       1Ag   -10.719738     1B1u  -10.719207     2Ag    -1.179858
       2B1u   -0.831636     3Ag    -0.705222     1B3u   -0.704288
       1B2u   -0.704288

    Alpha Virtual:

       1B2g   -0.433444     1B3g   -0.433444     3B1u   -0.113312
       2B3u    0.002284     2B2u    0.002284     4Ag     0.017411
       4B1u    0.038244     5Ag     0.038392     2B2g    0.096234
       2B3g    0.096234     1B1g    0.223357     6Ag     0.223357
       5B1u    0.339419     3B3u    0.341458     3B2u    0.341458
       1Au     0.494804     6B1u    0.494804     3B2g    0.804928
       3B3g    0.804928     7Ag     0.822423     7B1u    0.847521
       4B2u    1.526440     4B3u    1.526440     8Ag     1.608807
       4B2g    1.700942     4B3g    1.700942     2B1g    2.000146
       9Ag     2.000146     5B3u    2.011856     5B2u    2.011856
       8B1u    2.096922     6B2u    2.157950     6B3u    2.157950
      10Ag     2.196607     5B3g    2.394575     5B2g    2.394575
       3B1g    2.494692    11Ag     2.494694     2Au     2.572941
       9B1u    2.572943    10B1u    2.632392     6B2g    2.680247
       6B3g    2.680247     3Au     2.874956    11B1u    2.874957
       7B3u    2.877948     7B2u    2.877948    12B1u    3.244141
      12Ag     3.431084    13Ag     3.625117     7B3g    3.737172
       7B2g    3.737172    13B1u    8.216756

    Beta Occupied:

       1Ag   -10.694656     1B1u  -10.694422     2Ag    -1.079092
       2B1u   -0.712542

    Beta Virtual:

       1B2u   -0.542296     1B3u   -0.542296     3Ag    -0.536580
       1B3g   -0.336187     1B2g   -0.336187     3B1u   -0.065841
       2B2u    0.029353     2B3u    0.029353     4Ag     0.048197
       5Ag     0.073185     4B1u    0.098191     2B2g    0.119530
       2B3g    0.119530     1B1g    0.277025     6Ag     0.277025
       5B1u    0.363174     3B2u    0.403223     3B3u    0.403223
       1Au     0.539325     6B1u    0.539325     3B3g    0.846630
       3B2g    0.846630     7Ag     0.873829     7B1u    0.891343
       4B2u    1.584302     4B3u    1.584302     8Ag     1.671167
       4B3g    1.757934     4B2g    1.757934     2B1g    2.069032
       9Ag     2.069033     5B2u    2.080900     5B3u    2.080900
       8B1u    2.153698     6B2u    2.226334     6B3u    2.226334
      10Ag     2.274247     5B3g    2.461752     5B2g    2.461752
       3B1g    2.582345    11Ag     2.582349     2Au     2.656747
       9B1u    2.656751    10B1u    2.709004     6B3g    2.761764
       6B2g    2.761764     3Au     2.944720    11B1u    2.944722
       7B2u    2.961120     7B3u    2.961120    12B1u    3.314421
      12Ag     3.489424    13Ag     3.683900     7B3g    3.804971
       7B2g    3.804971    13B1u    8.259462

    Final Occupation by Irrep:
             Ag   B1g   B2g   B3g    Au   B1u   B2u   B3u
    DOCC [     2,    0,    0,    0,    0,    2,    0,    0 ]
    SOCC [     1,    0,    0,    0,    0,    0,    1,    1 ]
    NA   [     3,    0,    0,    0,    0,    2,    1,    1 ]
    NB   [     2,    0,    0,    0,    0,    2,    0,    0 ]

  @DF-UKS Final Energy:   -75.50486303649851

   => Energetics <=

    Nuclear Repulsion Energy =             13.1024006724526956
    One-Electron Energy =                -122.5214407149708791
    Two-Electron Energy =                  42.1606099511992838
    DFT Exchange-Correlation Energy =      -8.2464329451795990
    Empirical Dispersion Energy =           0.0000000000000000
    VV10 Nonlocal Energy =                  0.0000000000000000
    Total Energy =                        -75.5048630364985058

  UHF NO Occupations:
  HONO-2 :    1B2u 1.0000000
  HONO-1 :    1B3u 1.0000000
  HONO-0 :    3 Ag 1.0000000
  LUNO+0 :    3B1u 0.0013268
  LUNO+1 :    4 Ag 0.0000867
  LUNO+2 :    4B1u 0.0000009
  LUNO+3 :    5 Ag 0.0000007

Computation Completed

Properties will be evaluated at   0.000000,   0.000000,   0.000000 [a0]

Properties computed using the B3LYP density matrix

 Multipole Moments:

 ------------------------------------------------------------------------------------
     Multipole            Electronic (a.u.)      Nuclear  (a.u.)        Total (a.u.)
 ------------------------------------------------------------------------------------

 L = 1.  Multiply by 2.5417464519 to convert [e a0] to [Debye]
 Dipole X            :          0.0000000            0.0000000            0.0000000
 Dipole Y            :          0.0000000            0.0000000            0.0000000
 Dipole Z            :          0.0000000            0.0000000            0.0000000
 Magnitude           :                                                    0.0000000

 L = 2.  Multiply by 1.3450342976 to convert [e a0^2] to [Debye ang]
 Quadrupole XX       :         -6.4733604            0.0000000           -6.4733604
 Quadrupole XY       :          0.0000000            0.0000000            0.0000000
 Quadrupole XZ       :          0.0000000            0.0000000            0.0000000
 Quadrupole YY       :         -6.4733604            0.0000000           -6.4733604
 Quadrupole YZ       :          0.0000000            0.0000000            0.0000000
 Quadrupole ZZ       :        -27.6833971           22.6477209           -5.0356762
 Traceless XX        :          7.0700122           -7.5492403           -0.4792281
 Traceless YY        :          7.0700122           -7.5492403           -0.4792281
 Traceless ZZ        :        -14.1400245           15.0984806            0.9584561

 ------------------------------------------------------------------------------------
  ==> Computing MBIS Charges <==

  Electron Count from Grid (Expected Number): 11.00000 (11.00000)
  Difference:  0.00000

  MBIS Charges: (a.u.)
   Center  Symbol  Z      Pop.       Charge
      1       C    6    5.500000    0.500000
      2       C    6    5.500000    0.500000

  MBIS Dipoles: [e a0]
   Center  Symbol  Z        X           Y           Z
      1       C    6   -0.000000    0.000000   -0.082519
      2       C    6   -0.000000    0.000000    0.082519

  MBIS Quadrupoles: [e a0^2]
   Center  Symbol  Z      XX        XY        XZ        YY        YZ        ZZ
      1       C    6   -3.2367   -0.0000   -0.0000   -3.2367   -0.0000   -3.6882
      2       C    6   -3.2367    0.0000    0.0000   -3.2367    0.0000   -3.6882

  MBIS Octupoles: [e a0^3]
   Center  Symbol  Z      XXX       XXY       XXZ       XYY       XYZ       XZZ       YYY       YYZ       YZZ       ZZZ
      1       C    6   -0.0000   -0.0000   -0.0852   -0.0000    0.0000   -0.0000    0.0000   -0.0852    0.0000   -0.3451
      2       C    6   -0.0000    0.0000    0.0852   -0.0000    0.0000   -0.0000    0.0000    0.0852    0.0000    0.3451

  MBIS Radial Moments:
   Center  Symbol  Z      [a0^2]      [a0^3]      [a0^4]
      1       C    6   10.161582   22.330422   58.423491
      2       C    6   10.161582   22.330422   58.423491

  MBIS Valence Widths: [a0]
   Center  Symbol  Z     Width
      1       C    6    0.474606
      2       C    6    0.474606

*** tstop() called on Mac.lan at Sun Aug 10 18:22:32 2025
Module time:
	user time   =       3.79 seconds =       0.06 minutes
	system time =       0.77 seconds =       0.01 minutes
	total time  =          0 seconds =       0.00 minutes
Total time:
	user time   =    1176.00 seconds =      19.60 minutes
	system time =    1015.68 seconds =      16.93 minutes
	total time  =        366 seconds =       6.10 minutes

    Psi4 stopped on: Sunday, 10 August 2025 06:22PM
    Psi4 wall time for execution: 0:06:06.12

*** Psi4 exiting successfully. Buy a developer a beer!
