                               Psi4 1.9.1 release

  ==> Input File <==

--------------------------------------------------------------------------
molecule {
1 2
O           0.000000           0.000000           0.000000
C           0.000000           0.000000           0.808708
}

set {
basis              cc-pvtz
reference          uks
maxiter            500
DAMPING_PERCENTAGE 1
E_CONVERGENCE      1.0E-8
D_CONVERGENCE      1.0E-8
DIIS_MAX_VECS      400
MBIS_MAXITER       8000
guess              read
}

E, wfn = energy('b3lyp', restart_file='last_wfn', return_wfn=True)
properties('b3lyp','MBIS_CHARGES', wfn=wfn)
wfn.to_file('last_wfn')
--------------------------------------------------------------------------

    Molecular point group: c2v
  Charge       = 1
  Multiplicity = 2
  Basis Set: CC-PVTZ
    Blend: CC-PVTZ
  Basis Set: (CC-PVTZ AUX)
    Blend: CC-PVTZ-JKFIT
  @DF-UKS Final Energy:  -112.34647984255062
    Total Energy =                       -112.3464798425506217
 Dipole X            :          0.0000000            0.0000000            0.0000000
 Dipole Y            :          0.0000000            0.0000000            0.0000000
 Dipole Z            :          0.8345958           -0.0016657            0.8329301
 Magnitude           :                                                    0.8329301
    Molecular point group: c2v

    Geometry (in Angstrom), charge = 1, multiplicity = 2:

       Center              X                  Y                   Z               Mass
    ------------   -----------------  -----------------  -----------------  -----------------
         O            0.000000000000     0.000000000000    -0.346652102065    15.994914619570
         C            0.000000000000     0.000000000000     0.462055897935    12.000000000000

  Charge       = 1
  Multiplicity = 2
  Basis Set: CC-PVTZ
    Blend: CC-PVTZ
  Basis Set: (CC-PVTZ AUX)
    Blend: CC-PVTZ-JKFIT

    Orbital Energies [Eh]
    ---------------------

    Alpha Occupied:

       1A1   -19.610189     2A1   -10.722478     3A1    -1.730003
       1B2    -1.029524     1B1    -1.029524     4A1    -0.930039
       5A1    -0.872537

    Alpha Virtual:

       2B1    -0.273637     2B2    -0.273637     6A1    -0.100109
       7A1    -0.026098     3B1    -0.023072     3B2    -0.023072
       8A1     0.241284     1A2     0.266001     9A1     0.266001
       4B1     0.324488     4B2     0.324488    10A1     0.487196
       5B1     0.631168     5B2     0.631168    11A1     0.926132
      12A1     1.246345     2A2     1.246345     6B1     1.316175
       6B2     1.316175    13A1     1.360516    14A1     1.696942
       7B1     1.803659     7B2     1.803659     8B1     2.203631
       8B2     2.203631    15A1     2.310989     3A2     2.410191
      16A1     2.410191     9B2     2.553261     9B1     2.553261
       4A2     2.664442    17A1     2.664442    18A1     2.682140
      10B1     3.328427    10B2     3.328427    19A1     3.633979
      11B2     3.853448    11B1     3.853448    12B1     4.813160
      12B2     4.813160    20A1     5.219243     5A2     5.714539
      21A1     5.714539    22A1     5.916326     6A2     5.916327
      23A1     6.039622    13B1     6.145293    13B2     6.145293
      24A1     6.737020    14B2     6.954368    14B1     6.954368
      25A1     9.122805    26A1    16.055285

    Beta Occupied:

       1A1   -19.610444     2A1   -10.697668     3A1    -1.723867
       1B2    -1.019451     1B1    -1.019451     4A1    -0.930335

    Beta Virtual:

       5A1    -0.625503     2B1    -0.231132     2B2    -0.231132
       6A1    -0.087796     3B1    -0.009700     3B2    -0.009700
       7A1     0.015302     8A1     0.260120     1A2     0.285310
       9A1     0.285311     4B1     0.329202     4B2     0.329202
      10A1     0.534669     5B1     0.662526     5B2     0.662526
      11A1     0.935353     2A2     1.249011    12A1     1.249011
       6B1     1.336661     6B2     1.336661    13A1     1.427465
      14A1     1.732307     7B1     1.828528     7B2     1.828528
       8B1     2.237439     8B2     2.237439    15A1     2.368222
       3A2     2.474909    16A1     2.474909     9B2     2.658325
       9B1     2.658325     4A2     2.705725    17A1     2.705727
      18A1     2.777408    10B1     3.347950    10B2     3.347950
      19A1     3.672924    11B2     3.877746    11B1     3.877746
      12B1     4.810694    12B2     4.810694    20A1     5.238446
       5A2     5.717052    21A1     5.717053    22A1     5.914816
       6A2     5.914817    23A1     6.054760    13B1     6.148292
      13B2     6.148292    24A1     6.750240    14B2     6.977120
      14B1     6.977120    25A1     9.137979    26A1    16.087663

    Final Occupation by Irrep:
             A1    A2    B1    B2
    DOCC [     4,    0,    1,    1 ]
    SOCC [     1,    0,    0,    0 ]
    NA   [     5,    0,    1,    1 ]
    NB   [     4,    0,    1,    1 ]

  @DF-UKS Final Energy:  -112.34647984233578

   => Energetics <=

    Nuclear Repulsion Energy =             31.4087484137166975
    One-Electron Energy =                -208.4214349665339228
    Two-Electron Energy =                  76.0333241894668532
    DFT Exchange-Correlation Energy =     -11.3671174789853993
    Empirical Dispersion Energy =           0.0000000000000000
    VV10 Nonlocal Energy =                  0.0000000000000000
    Total Energy =                       -112.3464798423357820

  UHF NO Occupations:
  HONO-2 :    1 B2 1.9990134
  HONO-1 :    1 B1 1.9990134
  HONO-0 :    5 A1 1.0000000
  LUNO+0 :    2 B1 0.0009866
  LUNO+1 :    2 B2 0.0009866
  LUNO+2 :    6 A1 0.0000133
  LUNO+3 :    7 A1 0.0000015

Computation Completed

Properties will be evaluated at   0.000000,   0.000000,   0.000000 [a0]

Properties computed using the B3LYP density matrix

 Multipole Moments:

 ------------------------------------------------------------------------------------
     Multipole            Electronic (a.u.)      Nuclear  (a.u.)        Total (a.u.)
 ------------------------------------------------------------------------------------

 L = 1.  Multiply by 2.5417464519 to convert [e a0] to [Debye]
 Dipole X            :          0.0000000            0.0000000            0.0000000
 Dipole Y            :          0.0000000            0.0000000            0.0000000
 Dipole Z            :          0.8345958           -0.0016657            0.8329301
 Magnitude           :                                                    0.8329301

 L = 2.  Multiply by 1.3450342976 to convert [e a0^2] to [Debye ang]
 Quadrupole XX       :         -5.2155115            0.0000000           -5.2155115
 Quadrupole XY       :          0.0000000            0.0000000            0.0000000
 Quadrupole XZ       :          0.0000000            0.0000000            0.0000000
 Quadrupole YY       :         -5.2155115            0.0000000           -5.2155115
 Quadrupole YZ       :          0.0000000            0.0000000            0.0000000
 Quadrupole ZZ       :        -12.6496404            8.0074535           -4.6421869
 Traceless XX        :          2.4780430           -2.6691512           -0.1911082
 Traceless YY        :          2.4780430           -2.6691512           -0.1911082
 Traceless ZZ        :         -4.9560860            5.3383023            0.3822164

 ------------------------------------------------------------------------------------
  ==> Computing MBIS Charges <==

  Electron Count from Grid (Expected Number): 13.00000 (13.00000)
  Difference:  0.00000

  MBIS Charges: (a.u.)
   Center  Symbol  Z      Pop.       Charge
      1       O    8    8.069411   -0.069411
      2       C    6    4.930589    1.069411

  MBIS Dipoles: [e a0]
   Center  Symbol  Z        X           Y           Z
      1       O    8   -0.000000   -0.000000   -0.197371
      2       C    6   -0.000000    0.000000    0.051065

  MBIS Quadrupoles: [e a0^2]
   Center  Symbol  Z      XX        XY        XZ        YY        YZ        ZZ
      1       O    8   -3.0793   -0.0000    0.0000   -3.0793    0.0000   -3.3821
      2       C    6   -2.1362   -0.0000    0.0000   -2.1362    0.0000   -2.3934

  MBIS Octupoles: [e a0^3]
   Center  Symbol  Z      XXX       XXY       XXZ       XYY       XYZ       XZZ       YYY       YYZ       YZZ       ZZZ
      1       O    8   -0.0000    0.0000   -0.1063   -0.0000    0.0000    0.0000   -0.0000   -0.1063    0.0000   -0.0699
      2       C    6   -0.0000    0.0000   -0.0346   -0.0000    0.0000   -0.0000    0.0000   -0.0346    0.0000   -0.2792

  MBIS Radial Moments:
   Center  Symbol  Z      [a0^2]      [a0^3]      [a0^4]
      1       O    8    9.540744   16.071644   32.436535
      2       C    6    6.665769   12.976524   30.330756

  MBIS Valence Widths: [a0]
   Center  Symbol  Z     Width
      1       O    8    0.351925
      2       C    6    0.410057

*** tstop() called on Mac.lan at Sun Aug 10 18:37:02 2025
Module time:
	user time   =       4.04 seconds =       0.07 minutes
	system time =       2.19 seconds =       0.04 minutes
	total time  =          1 seconds =       0.02 minutes
Total time:
	user time   =      18.75 seconds =       0.31 minutes
	system time =       4.08 seconds =       0.07 minutes
	total time  =          3 seconds =       0.05 minutes

    Psi4 stopped on: Sunday, 10 August 2025 06:37PM
    Psi4 wall time for execution: 0:00:02.25

*** Psi4 exiting successfully. Buy a developer a beer!
