                               Psi4 1.9.1 release

  ==> Input File <==

--------------------------------------------------------------------------
molecule {
1 2
O           0.000000           0.000000           0.000000
C           0.000000           0.000000           1.134909
}

set {
basis              cc-pvtz
reference          uks
maxiter            500
DAMPING_PERCENTAGE 1
E_CONVERGENCE      1.0E-8
D_CONVERGENCE      1.0E-8
DIIS_MAX_VECS      400
MBIS_MAXITER       8000
guess              read
}

E, wfn = energy('b3lyp', restart_file='last_wfn', return_wfn=True)
properties('b3lyp','MBIS_CHARGES', wfn=wfn)
wfn.to_file('last_wfn')
--------------------------------------------------------------------------

    Molecular point group: c2v
  Charge       = 1
  Multiplicity = 2
  Basis Set: CC-PVTZ
    Blend: CC-PVTZ
  Basis Set: (CC-PVTZ AUX)
    Blend: CC-PVTZ-JKFIT
  @DF-UKS Final Energy:  -112.83584320412751
    Total Energy =                       -112.8358432041275137
 Dipole X            :          0.0000000            0.0000000            0.0000000
 Dipole Y            :          0.0000000            0.0000000            0.0000000
 Dipole Z            :          1.0911308           -0.0023375            1.0887933
 Magnitude           :                                                    1.0887933
    Molecular point group: c2v

    Geometry (in Angstrom), charge = 1, multiplicity = 2:

       Center              X                  Y                   Z               Mass
    ------------   -----------------  -----------------  -----------------  -----------------
         O            0.000000000000     0.000000000000    -0.486477925904    15.994914619570
         C            0.000000000000     0.000000000000     0.648431074096    12.000000000000

  Charge       = 1
  Multiplicity = 2
  Basis Set: CC-PVTZ
    Blend: CC-PVTZ
  Basis Set: (CC-PVTZ AUX)
    Blend: CC-PVTZ-JKFIT

    Orbital Energies [Eh]
    ---------------------

    Alpha Occupied:

       1A1   -19.656558     2A1   -10.802445     3A1    -1.561996
       4A1    -0.971675     5A1    -0.863757     1B2    -0.858337
       1B1    -0.858337

    Alpha Virtual:

       2B2    -0.440769     2B1    -0.440769     6A1    -0.120782
       7A1    -0.021179     3B2    -0.009666     3B1    -0.009666
       8A1     0.180501     9A1     0.259770    10A1     0.279426
       1A2     0.279426     4B1     0.329396     4B2     0.329396
       5B2     0.481149     5B1     0.481149    11A1     0.783482
      12A1     0.923497     2A2     1.153886    13A1     1.153887
       6B2     1.464189     6B1     1.464189    14A1     1.521532
       7B2     1.615629     7B1     1.615629    15A1     2.009714
       8B2     2.219551     8B1     2.219551    16A1     2.399905
       3A2     2.399905    17A1     2.464247     4A2     2.464248
       9B2     2.481884     9B1     2.481884    18A1     2.657761
      10B2     2.815566    10B1     2.815566    19A1     2.907847
      11B1     3.660940    11B2     3.660940    20A1     3.986315
      12B2     4.711190    12B1     4.711190     5A2     5.085985
      21A1     5.085986    22A1     5.684394    13B1     5.798231
      13B2     5.798231    23A1     5.845435     6A2     5.845448
      24A1     6.329488    14B2     6.346254    14B1     6.346254
      25A1     6.567212    26A1    11.679070

    Beta Occupied:

       1A1   -19.657077     2A1   -10.777731     3A1    -1.553844
       4A1    -0.934146     1B2    -0.854722     1B1    -0.854722

    Beta Virtual:

       5A1    -0.650445     2B2    -0.399294     2B1    -0.399294
       6A1    -0.104354     3B2     0.001062     3B1     0.001062
       7A1     0.018158     8A1     0.233291     9A1     0.262792
      10A1     0.300031     1A2     0.300031     4B1     0.326675
       4B2     0.326675     5B2     0.518255     5B1     0.518255
      11A1     0.798332    12A1     0.950983     2A2     1.153127
      13A1     1.153127     6B2     1.490125     6B1     1.490125
      14A1     1.577990     7B2     1.627938     7B1     1.627938
      15A1     2.054270     8B2     2.255213     8B1     2.255213
      16A1     2.421034     3A2     2.421034    17A1     2.538938
       4A2     2.538939     9B2     2.578961     9B1     2.578961
      18A1     2.738176    10B2     2.843579    10B1     2.843579
      19A1     2.973692    11B1     3.671386    11B2     3.671386
      20A1     4.012909    12B2     4.700502    12B1     4.700502
       5A2     5.087472    21A1     5.087473    22A1     5.705549
      13B1     5.812610    13B2     5.812610    23A1     5.831976
       6A2     5.831989    24A1     6.338334    14B2     6.354676
      14B1     6.354676    25A1     6.583792    26A1    11.699645

    Final Occupation by Irrep:
             A1    A2    B1    B2
    DOCC [     4,    0,    1,    1 ]
    SOCC [     1,    0,    0,    0 ]
    NA   [     5,    0,    1,    1 ]
    NB   [     4,    0,    1,    1 ]

  @DF-UKS Final Energy:  -112.83584320652098

   => Energetics <=

    Nuclear Repulsion Energy =             22.3810949707509543
    One-Electron Energy =                -192.3679562865873152
    Two-Electron Energy =                  68.0774891155491702
    DFT Exchange-Correlation Energy =     -10.9264710062337791
    Empirical Dispersion Energy =           0.0000000000000000
    VV10 Nonlocal Energy =                  0.0000000000000000
    Total Energy =                       -112.8358432065209769

  UHF NO Occupations:
  HONO-2 :    1 B2 1.9961960
  HONO-1 :    1 B1 1.9961960
  HONO-0 :    5 A1 1.0000000
  LUNO+0 :    2 B1 0.0038040
  LUNO+1 :    2 B2 0.0038040
  LUNO+2 :    6 A1 0.0003194
  LUNO+3 :    7 A1 0.0000229

Computation Completed

Properties will be evaluated at   0.000000,   0.000000,   0.000000 [a0]

Properties computed using the B3LYP density matrix

 Multipole Moments:

 ------------------------------------------------------------------------------------
     Multipole            Electronic (a.u.)      Nuclear  (a.u.)        Total (a.u.)
 ------------------------------------------------------------------------------------

 L = 1.  Multiply by 2.5417464519 to convert [e a0] to [Debye]
 Dipole X            :          0.0000000            0.0000000            0.0000000
 Dipole Y            :          0.0000000            0.0000000            0.0000000
 Dipole Z            :          1.0911308           -0.0023375            1.0887933
 Magnitude           :                                                    1.0887933

 L = 2.  Multiply by 1.3450342976 to convert [e a0^2] to [Debye ang]
 Quadrupole XX       :         -5.9630208            0.0000000           -5.9630208
 Quadrupole XY       :          0.0000000            0.0000000            0.0000000
 Quadrupole XZ       :          0.0000000            0.0000000            0.0000000
 Quadrupole YY       :         -5.9630208            0.0000000           -5.9630208
 Quadrupole YZ       :          0.0000000            0.0000000            0.0000000
 Quadrupole ZZ       :        -19.7264619           15.7700484           -3.9564135
 Traceless XX        :          4.5878137           -5.2566828           -0.6688691
 Traceless YY        :          4.5878137           -5.2566828           -0.6688691
 Traceless ZZ        :         -9.1756274           10.5133656            1.3377382

 ------------------------------------------------------------------------------------
  ==> Computing MBIS Charges <==

  Electron Count from Grid (Expected Number): 13.00000 (13.00000)
  Difference:  0.00000

  MBIS Charges: (a.u.)
   Center  Symbol  Z      Pop.       Charge
      1       O    8    8.008566   -0.008566
      2       C    6    4.991434    1.008566

  MBIS Dipoles: [e a0]
   Center  Symbol  Z        X           Y           Z
      1       O    8    0.000000    0.000000   -0.287365
      2       C    6    0.000000    0.000000    0.132431

  MBIS Quadrupoles: [e a0^2]
   Center  Symbol  Z      XX        XY        XZ        YY        YZ        ZZ
      1       O    8   -3.4354   -0.0000    0.0000   -3.4354    0.0000   -3.6085
      2       C    6   -2.5276   -0.0000    0.0000   -2.5276    0.0000   -2.7080

  MBIS Octupoles: [e a0^3]
   Center  Symbol  Z      XXX       XXY       XXZ       XYY       XYZ       XZZ       YYY       YYZ       YZZ       ZZZ
      1       O    8   -0.0000    0.0000   -0.2521   -0.0000    0.0000   -0.0000   -0.0000   -0.2521   -0.0000   -0.5834
      2       C    6    0.0000   -0.0000    0.1551    0.0000    0.0000    0.0000    0.0000    0.1551    0.0000    0.1891

  MBIS Radial Moments:
   Center  Symbol  Z      [a0^2]      [a0^3]      [a0^4]
      1       O    8   10.479345   18.604652   39.446023
      2       C    6    7.763137   15.990266   39.233797

  MBIS Valence Widths: [a0]
   Center  Symbol  Z     Width
      1       O    8    0.372432
      2       C    6    0.443411

*** tstop() called on Mac.lan at Sun Aug 10 18:36:04 2025
Module time:
	user time   =      17.12 seconds =       0.29 minutes
	system time =       2.67 seconds =       0.04 minutes
	total time  =          2 seconds =       0.03 minutes
Total time:
	user time   =      58.87 seconds =       0.98 minutes
	system time =       4.91 seconds =       0.08 minutes
	total time  =          7 seconds =       0.12 minutes

    Psi4 stopped on: Sunday, 10 August 2025 06:36PM
    Psi4 wall time for execution: 0:00:06.73

*** Psi4 exiting successfully. Buy a developer a beer!
