                               Psi4 1.9.1 release

  ==> Input File <==

--------------------------------------------------------------------------
molecule {
1 3
O           0.000000           0.000000           0.000000
H           0.000000           0.000000           0.718352
}

set {
basis              cc-pvtz
reference          uks
maxiter            500
DAMPING_PERCENTAGE 1
E_CONVERGENCE      1.0E-8
D_CONVERGENCE      1.0E-8
DIIS_MAX_VECS      400
MBIS_MAXITER       8000
guess              read
}

E, wfn = energy('b3lyp', restart_file='last_wfn', return_wfn=True)
properties('b3lyp','MBIS_CHARGES', wfn=wfn)
wfn.to_file('last_wfn')
--------------------------------------------------------------------------

    Molecular point group: c2v
  Charge       = 1
  Multiplicity = 3
  Basis Set: CC-PVTZ
    Blend: CC-PVTZ
  Basis Set: (CC-PVTZ AUX)
    Blend: CC-PVTZ-JKFIT
  @DF-UKS Final Energy:   -75.14083638065378
    Total Energy =                        -75.1408363806537665
 Dipole X            :          0.0000000            0.0000000            0.0000000
 Dipole Y            :          0.0000000            0.0000000            0.0000000
 Dipole Z            :          0.0110356            0.6333112            0.6443468
 Magnitude           :                                                    0.6443468
    Molecular point group: c2v

    Geometry (in Angstrom), charge = 1, multiplicity = 3:

       Center              X                  Y                   Z               Mass
    ------------   -----------------  -----------------  -----------------  -----------------
         O            0.000000000000     0.000000000000    -0.042579792573    15.994914619570
         H            0.000000000000     0.000000000000     0.675772207427     1.007825032230

  Charge       = 1
  Multiplicity = 3
  Basis Set: CC-PVTZ
    Blend: CC-PVTZ
  Basis Set: (CC-PVTZ AUX)
    Blend: CC-PVTZ-JKFIT

    Orbital Energies [Eh]
    ---------------------

    Alpha Occupied:

       1A1   -19.839503     2A1    -1.710808     3A1    -1.070179
       1B1    -0.996466     1B2    -0.996466

    Alpha Virtual:

       4A1    -0.237033     5A1     0.127141     2B1     0.129084
       2B2     0.129084     6A1     0.147964     3B1     0.344289
       3B2     0.344289     7A1     0.420273     8A1     0.892589
       1A2     0.892589     9A1     1.154229     4B1     1.362330
       4B2     1.362330    10A1     1.453544    11A1     2.183880
       2A2     2.835966    12A1     2.835966     5B1     2.873219
       5B2     2.873219     6B2     3.096206     6B1     3.096206
      13A1     3.436421     7B1     3.846740     7B2     3.846740
      14A1     4.030414     8B2     4.459802     8B1     4.459802
      15A1     5.019321     3A2     5.169768    16A1     5.169768
      17A1     5.470434     4A2     5.470434     9B1     5.642598
       9B2     5.642598    18A1     6.740491    19A1     6.995366
      10B1     7.227801    10B2     7.227801    20A1    12.657371

    Beta Occupied:

       1A1   -19.783582     2A1    -1.572060     3A1    -1.002207

    Beta Virtual:

       1B2    -0.690256     1B1    -0.690256     4A1    -0.225717
       5A1     0.139260     6A1     0.166388     2B1     0.194366
       2B2     0.194366     3B1     0.367284     3B2     0.367284
       7A1     0.459549     1A2     1.005248     8A1     1.005248
       9A1     1.191149     4B1     1.412769     4B2     1.412769
      10A1     1.494300    11A1     2.200132    12A1     2.867137
       2A2     2.867137     5B1     2.939631     5B2     2.939631
       6B2     3.191725     6B1     3.191725    13A1     3.461978
       7B1     3.883032     7B2     3.883032    14A1     4.092219
       8B2     4.612400     8B1     4.612400    15A1     5.096664
      16A1     5.263962     3A2     5.263962     4A2     5.682814
      17A1     5.682815     9B1     5.727635     9B2     5.727635
      18A1     6.789826    19A1     7.028079    10B1     7.303399
      10B2     7.303399    20A1    12.717619

    Final Occupation by Irrep:
             A1    A2    B1    B2
    DOCC [     3,    0,    0,    0 ]
    SOCC [     0,    0,    1,    1 ]
    NA   [     3,    0,    1,    1 ]
    NB   [     3,    0,    0,    0 ]

  @DF-UKS Final Energy:   -75.14083638101421

   => Energetics <=

    Nuclear Repulsion Energy =              5.8932357470432333
    One-Electron Energy =                -110.0711794070853102
    Two-Electron Energy =                  36.0330638753017283
    DFT Exchange-Correlation Energy =      -6.9959565962738655
    Empirical Dispersion Energy =           0.0000000000000000
    VV10 Nonlocal Energy =                  0.0000000000000000
    Total Energy =                        -75.1408363810142106

  UHF NO Occupations:
  HONO-2 :    3 A1 1.9987301
  HONO-1 :    1 B1 1.0000000
  HONO-0 :    1 B2 1.0000000
  LUNO+0 :    4 A1 0.0012699
  LUNO+1 :    5 A1 0.0002812
  LUNO+2 :    6 A1 0.0000015
  LUNO+3 :    7 A1 0.0000000

Computation Completed

Properties will be evaluated at   0.000000,   0.000000,   0.000000 [a0]

Properties computed using the B3LYP density matrix

 Multipole Moments:

 ------------------------------------------------------------------------------------
     Multipole            Electronic (a.u.)      Nuclear  (a.u.)        Total (a.u.)
 ------------------------------------------------------------------------------------

 L = 1.  Multiply by 2.5417464519 to convert [e a0] to [Debye]
 Dipole X            :          0.0000000            0.0000000            0.0000000
 Dipole Y            :          0.0000000            0.0000000            0.0000000
 Dipole Z            :          0.0110356            0.6333112            0.6443468
 Magnitude           :                                                    0.6443468

 L = 2.  Multiply by 1.3450342976 to convert [e a0^2] to [Debye ang]
 Quadrupole XX       :         -2.8421570            0.0000000           -2.8421570
 Quadrupole XY       :          0.0000000            0.0000000            0.0000000
 Quadrupole XZ       :          0.0000000            0.0000000            0.0000000
 Quadrupole YY       :         -2.8421570            0.0000000           -2.8421570
 Quadrupole YZ       :          0.0000000            0.0000000            0.0000000
 Quadrupole ZZ       :         -4.0839072            1.6825871           -2.4013200
 Traceless XX        :          0.4139167           -0.5608624           -0.1469456
 Traceless YY        :          0.4139167           -0.5608624           -0.1469456
 Traceless ZZ        :         -0.8278335            1.1217248            0.2938913

 ------------------------------------------------------------------------------------
  ==> Computing MBIS Charges <==

  Electron Count from Grid (Expected Number):  8.00000 ( 8.00000)
  Difference:  0.00000

  MBIS Charges: (a.u.)
   Center  Symbol  Z      Pop.       Charge
      1       O    8    7.441348    0.558652
      2       H    1    0.558652    0.441348

  MBIS Dipoles: [e a0]
   Center  Symbol  Z        X           Y           Z
      1       O    8    0.000000   -0.000000    0.095009
      2       H    1    0.000000   -0.000000    0.030678

  MBIS Quadrupoles: [e a0^2]
   Center  Symbol  Z      XX        XY        XZ        YY        YZ        ZZ
      1       O    8   -2.6940    0.0000    0.0000   -2.6940   -0.0000   -3.0413
      2       H    1   -0.1481    0.0000    0.0000   -0.1481   -0.0000   -0.1464

  MBIS Octupoles: [e a0^3]
   Center  Symbol  Z      XXX       XXY       XXZ       XYY       XYZ       XZZ       YYY       YYZ       YZZ       ZZZ
      1       O    8   -0.0000   -0.0000    0.0916   -0.0000    0.0000    0.0000   -0.0000    0.0916   -0.0000    0.1975
      2       H    1    0.0000    0.0000    0.0036   -0.0000    0.0000    0.0000   -0.0000    0.0036   -0.0000    0.0082

  MBIS Radial Moments:
   Center  Symbol  Z      [a0^2]      [a0^3]      [a0^4]
      1       O    8    8.429394   14.049918   28.117080
      2       H    1    0.442665    0.559546    0.850559

  MBIS Valence Widths: [a0]
   Center  Symbol  Z     Width
      1       O    8    0.348690
      2       H    1    0.259861

*** tstop() called on Mac.lan at Sun Aug 10 18:29:02 2025
Module time:
	user time   =       3.20 seconds =       0.05 minutes
	system time =       2.65 seconds =       0.04 minutes
	total time  =          1 seconds =       0.02 minutes
Total time:
	user time   =      22.38 seconds =       0.37 minutes
	system time =       6.03 seconds =       0.10 minutes
	total time  =          3 seconds =       0.05 minutes

    Psi4 stopped on: Sunday, 10 August 2025 06:29PM
    Psi4 wall time for execution: 0:00:03.12

*** Psi4 exiting successfully. Buy a developer a beer!
