                               Psi4 1.9.1 release

  ==> Input File <==

--------------------------------------------------------------------------
molecule {
1 1
O           0.000000           0.000000           0.000000
N           0.000000           0.000000           0.867384
}

set {
basis              cc-pvtz
reference          uks
maxiter            500
DAMPING_PERCENTAGE 1
E_CONVERGENCE      1.0E-8
D_CONVERGENCE      1.0E-8
DIIS_MAX_VECS      400
MBIS_MAXITER       8000
guess              read
}

E, wfn = energy('b3lyp', restart_file='last_wfn', return_wfn=True)
properties('b3lyp','MBIS_CHARGES', wfn=wfn)
wfn.to_file('last_wfn')
--------------------------------------------------------------------------

    Molecular point group: c2v
  Charge       = 1
  Multiplicity = 1
  Basis Set: CC-PVTZ
    Blend: CC-PVTZ
  Basis Set: (CC-PVTZ AUX)
    Blend: CC-PVTZ-JKFIT
  @DF-UKS Final Energy:  -129.39823802894711
    Total Energy =                       -129.3982380289471052
 Dipole X            :          0.0000000            0.0000000            0.0000000
 Dipole Y            :          0.0000000            0.0000000            0.0000000
 Dipole Z            :         -0.0057818           -0.0032888           -0.0090706
 Magnitude           :                                                    0.0090706
    Molecular point group: c2v

    Geometry (in Angstrom), charge = 1, multiplicity = 1:

       Center              X                  Y                   Z               Mass
    ------------   -----------------  -----------------  -----------------  -----------------
         O            0.000000000000     0.000000000000    -0.404895224627    15.994914619570
         N            0.000000000000     0.000000000000     0.462488775373    14.003074004430

  Charge       = 1
  Multiplicity = 1
  Basis Set: CC-PVTZ
    Blend: CC-PVTZ
  Basis Set: (CC-PVTZ AUX)
    Blend: CC-PVTZ-JKFIT

    Orbital Energies [Eh]
    ---------------------

    Alpha Occupied:

       1A1   -19.756034     2A1   -14.902480     3A1    -1.962331
       1B2    -1.113436     1B1    -1.113436     4A1    -1.081912
       5A1    -0.923173

    Alpha Virtual:

       2B2    -0.376833     2B1    -0.376833     6A1    -0.061817
       3B1     0.049926     3B2     0.049926     7A1     0.112176
       8A1     0.197140     4B2     0.297213     4B1     0.297213
       9A1     0.503762     1A2     0.503762    10A1     0.676129
      11A1     0.855042     5B2     0.910453     5B1     0.910453
      12A1     1.230971     2A2     1.230971    13A1     1.582983
       6B2     1.706163     6B1     1.706163    14A1     2.123322
       7B1     2.298515     7B2     2.298515    15A1     2.789315
      16A1     3.277020     8B2     3.287009     8B1     3.287009
       9B2     3.414873     9B1     3.414873    17A1     3.457168
       3A2     3.457168    10B1     3.747722    10B2     3.747722
      18A1     3.935114     4A2     3.935115    19A1     4.229568
      11B1     4.450069    11B2     4.450069    12B2     4.720994
      12B1     4.720994    20A1     5.347616     5A2     5.682266
      21A1     5.682268    22A1     5.834277     6A2     5.834278
      13B1     6.132828    13B2     6.132828    23A1     6.425657
      24A1     7.040860    14B1     7.702751    14B2     7.702751
      25A1     8.818504    26A1    21.519418

    Beta Occupied:

       1A1   -19.756034     2A1   -14.902480     3A1    -1.962331
       1B2    -1.113436     1B1    -1.113436     4A1    -1.081912
       5A1    -0.923173

    Beta Virtual:

       2B2    -0.376833     2B1    -0.376833     6A1    -0.061817
       3B1     0.049926     3B2     0.049926     7A1     0.112176
       8A1     0.197140     4B2     0.297213     4B1     0.297213
       9A1     0.503762     1A2     0.503762    10A1     0.676129
      11A1     0.855042     5B2     0.910453     5B1     0.910453
      12A1     1.230971     2A2     1.230971    13A1     1.582983
       6B2     1.706163     6B1     1.706163    14A1     2.123322
       7B1     2.298515     7B2     2.298515    15A1     2.789315
      16A1     3.277020     8B2     3.287009     8B1     3.287009
       9B2     3.414873     9B1     3.414873    17A1     3.457168
       3A2     3.457168    10B2     3.747722    10B1     3.747722
      18A1     3.935114     4A2     3.935115    19A1     4.229568
      11B1     4.450069    11B2     4.450069    12B2     4.720994
      12B1     4.720994    20A1     5.347616     5A2     5.682266
      21A1     5.682268    22A1     5.834277     6A2     5.834278
      13B1     6.132828    13B2     6.132828    23A1     6.425657
      24A1     7.040860    14B1     7.702751    14B2     7.702751
      25A1     8.818504    26A1    21.519418

    Final Occupation by Irrep:
             A1    A2    B1    B2
    DOCC [     5,    0,    1,    1 ]
    SOCC [     0,    0,    0,    0 ]
    NA   [     5,    0,    1,    1 ]
    NB   [     5,    0,    1,    1 ]

  @DF-UKS Final Energy:  -129.39823802582214

   => Energetics <=

    Nuclear Repulsion Energy =             34.1647111285428409
    One-Electron Energy =                -236.5169350450599097
    Two-Electron Energy =                  85.3511500276905508
    DFT Exchange-Correlation Energy =     -12.3971641369956362
    Empirical Dispersion Energy =           0.0000000000000000
    VV10 Nonlocal Energy =                  0.0000000000000000
    Total Energy =                       -129.3982380258221383

  UHF NO Occupations:
  HONO-2 :    4 A1 2.0000000
  HONO-1 :    1 B1 2.0000000
  HONO-0 :    5 A1 2.0000000
  LUNO+0 :    6 A1 0.0000000
  LUNO+1 :    7 A1 0.0000000
  LUNO+2 :    8 A1 0.0000000
  LUNO+3 :    9 A1 0.0000000

Computation Completed

Properties will be evaluated at   0.000000,   0.000000,   0.000000 [a0]

Properties computed using the B3LYP density matrix

 Multipole Moments:

 ------------------------------------------------------------------------------------
     Multipole            Electronic (a.u.)      Nuclear  (a.u.)        Total (a.u.)
 ------------------------------------------------------------------------------------

 L = 1.  Multiply by 2.5417464519 to convert [e a0] to [Debye]
 Dipole X            :          0.0000000            0.0000000            0.0000000
 Dipole Y            :          0.0000000            0.0000000            0.0000000
 Dipole Z            :         -0.0057818           -0.0032888           -0.0090706
 Magnitude           :                                                    0.0090706

 L = 2.  Multiply by 1.3450342976 to convert [e a0^2] to [Debye ang]
 Quadrupole XX       :         -5.4273823            0.0000000           -5.4273823
 Quadrupole XY       :          0.0000000            0.0000000            0.0000000
 Quadrupole XZ       :          0.0000000            0.0000000            0.0000000
 Quadrupole YY       :         -5.4273823            0.0000000           -5.4273823
 Quadrupole YZ       :          0.0000000            0.0000000            0.0000000
 Quadrupole ZZ       :        -15.6802018           10.0303791           -5.6498227
 Traceless XX        :          3.4176065           -3.3434597            0.0741468
 Traceless YY        :          3.4176065           -3.3434597            0.0741468
 Traceless ZZ        :         -6.8352130            6.6869194           -0.1482936

 ------------------------------------------------------------------------------------
  ==> Computing MBIS Charges <==

  Electron Count from Grid (Expected Number): 14.00000 (14.00000)
  Difference: -0.00000

  MBIS Charges: (a.u.)
   Center  Symbol  Z      Pop.       Charge
      1       O    8    7.550656    0.449344
      2       N    7    6.449344    0.550656

  MBIS Dipoles: [e a0]
   Center  Symbol  Z        X           Y           Z
      1       O    8   -0.000000    0.000000   -0.036972
      2       N    7    0.000000   -0.000000   -0.109548

  MBIS Quadrupoles: [e a0^2]
   Center  Symbol  Z      XX        XY        XZ        YY        YZ        ZZ
      1       O    8   -2.6875   -0.0000   -0.0000   -2.6875   -0.0000   -2.9789
      2       N    7   -2.7399   -0.0000    0.0000   -2.7399    0.0000   -3.2197

  MBIS Octupoles: [e a0^3]
   Center  Symbol  Z      XXX       XXY       XXZ       XYY       XYZ       XZZ       YYY       YYZ       YZZ       ZZZ
      1       O    8    0.0000    0.0000    0.0034    0.0000   -0.0000    0.0000   -0.0000    0.0034    0.0000    0.0222
      2       N    7    0.0000    0.0000   -0.0950    0.0000    0.0000    0.0000   -0.0000   -0.0950   -0.0000   -0.3171

  MBIS Radial Moments:
   Center  Symbol  Z      [a0^2]      [a0^3]      [a0^4]
      1       O    8    8.353811   13.690210   26.899032
      2       N    7    8.699545   16.066288   35.469593

  MBIS Valence Widths: [a0]
   Center  Symbol  Z     Width
      1       O    8    0.343345
      2       N    7    0.388992

*** tstop() called on Mac.lan at Sun Aug 10 18:40:43 2025
Module time:
	user time   =       3.35 seconds =       0.06 minutes
	system time =       2.60 seconds =       0.04 minutes
	total time  =          0 seconds =       0.00 minutes
Total time:
	user time   =      14.10 seconds =       0.23 minutes
	system time =       4.83 seconds =       0.08 minutes
	total time  =          2 seconds =       0.03 minutes

    Psi4 stopped on: Sunday, 10 August 2025 06:40PM
    Psi4 wall time for execution: 0:00:01.84

*** Psi4 exiting successfully. Buy a developer a beer!
