                               Psi4 1.9.1 release

  ==> Input File <==

--------------------------------------------------------------------------
molecule {
1 3
O           0.000000           0.000000           0.000000
H           0.000000           0.000000           0.661138
}

set {
basis              cc-pvtz
reference          uks
maxiter            500
DAMPING_PERCENTAGE 1
E_CONVERGENCE      1.0E-8
D_CONVERGENCE      1.0E-8
DIIS_MAX_VECS      400
MBIS_MAXITER       8000
guess              read
}

E, wfn = energy('b3lyp', restart_file='last_wfn', return_wfn=True)
properties('b3lyp','MBIS_CHARGES', wfn=wfn)
wfn.to_file('last_wfn')
--------------------------------------------------------------------------

    Molecular point group: c2v
  Charge       = 1
  Multiplicity = 3
  Basis Set: CC-PVTZ
    Blend: CC-PVTZ
  Basis Set: (CC-PVTZ AUX)
    Blend: CC-PVTZ-JKFIT
  @DF-UKS Final Energy:   -75.04822122573094
    Total Energy =                        -75.0482212257309413
 Dipole X            :          0.0000000            0.0000000            0.0000000
 Dipole Y            :          0.0000000            0.0000000            0.0000000
 Dipole Z            :          0.0249540            0.5828704            0.6078244
 Magnitude           :                                                    0.6078244
    Molecular point group: c2v

    Geometry (in Angstrom), charge = 1, multiplicity = 3:

       Center              X                  Y                   Z               Mass
    ------------   -----------------  -----------------  -----------------  -----------------
         O            0.000000000000     0.000000000000    -0.039188474317    15.994914619570
         H            0.000000000000     0.000000000000     0.621949525683     1.007825032230

  Charge       = 1
  Multiplicity = 3
  Basis Set: CC-PVTZ
    Blend: CC-PVTZ
  Basis Set: (CC-PVTZ AUX)
    Blend: CC-PVTZ-JKFIT

    Orbital Energies [Eh]
    ---------------------

    Alpha Occupied:

       1A1   -19.842551     2A1    -1.748556     3A1    -1.085978
       1B1    -1.006190     1B2    -1.006190

    Alpha Virtual:

       4A1    -0.231244     5A1     0.121828     2B1     0.124252
       2B2     0.124252     6A1     0.187366     3B2     0.353979
       3B1     0.353979     7A1     0.415068     8A1     0.888166
       1A2     0.888166     9A1     1.211628     4B2     1.369923
       4B1     1.369923    10A1     1.519825    11A1     2.260692
       5B2     2.841142     5B1     2.841142     2A2     2.864197
      12A1     2.864197     6B1     3.097502     6B2     3.097502
      13A1     3.446656     7B2     3.942087     7B1     3.942087
      14A1     4.089801     8B2     4.452448     8B1     4.452448
      15A1     5.260726    16A1     5.283463     3A2     5.283463
      17A1     5.451958     4A2     5.451958     9B1     5.586339
       9B2     5.586339    18A1     7.040669    19A1     7.220033
      10B1     7.568912    10B2     7.568912    20A1    13.679533

    Beta Occupied:

       1A1   -19.786517     2A1    -1.612116     3A1    -1.014756

    Beta Virtual:

       1B1    -0.698804     1B2    -0.698804     4A1    -0.220565
       5A1     0.132784     2B1     0.186611     2B2     0.186611
       6A1     0.207487     3B2     0.380117     3B1     0.380117
       7A1     0.452393     1A2     1.001010     8A1     1.001010
       9A1     1.251883     4B2     1.419173     4B1     1.419173
      10A1     1.564768    11A1     2.276915    12A1     2.899868
       2A2     2.899868     5B2     2.907963     5B1     2.907963
       6B2     3.194955     6B1     3.194955    13A1     3.479739
       7B2     3.984474     7B1     3.984474    14A1     4.151117
       8B2     4.605022     8B1     4.605022    15A1     5.342403
      16A1     5.372372     3A2     5.372372     9B1     5.665608
       9B2     5.665608     4A2     5.669077    17A1     5.669078
      18A1     7.088740    19A1     7.249162    10B1     7.648782
      10B2     7.648782    20A1    13.738647

    Final Occupation by Irrep:
             A1    A2    B1    B2
    DOCC [     3,    0,    0,    0 ]
    SOCC [     0,    0,    1,    1 ]
    NA   [     3,    0,    1,    1 ]
    NB   [     3,    0,    0,    0 ]

  @DF-UKS Final Energy:   -75.04822122592300

   => Energetics <=

    Nuclear Repulsion Energy =              6.4032285020071464
    One-Electron Energy =                -110.7491702709752133
    Two-Electron Energy =                  36.3296102524536622
    DFT Exchange-Correlation Energy =      -7.0318897094086088
    Empirical Dispersion Energy =           0.0000000000000000
    VV10 Nonlocal Energy =                  0.0000000000000000
    Total Energy =                        -75.0482212259230010

  UHF NO Occupations:
  HONO-2 :    3 A1 1.9987805
  HONO-1 :    1 B2 1.0000000
  HONO-0 :    1 B1 1.0000000
  LUNO+0 :    4 A1 0.0012195
  LUNO+1 :    5 A1 0.0002424
  LUNO+2 :    6 A1 0.0000015
  LUNO+3 :    7 A1 0.0000000

Computation Completed

Properties will be evaluated at   0.000000,   0.000000,   0.000000 [a0]

Properties computed using the B3LYP density matrix

 Multipole Moments:

 ------------------------------------------------------------------------------------
     Multipole            Electronic (a.u.)      Nuclear  (a.u.)        Total (a.u.)
 ------------------------------------------------------------------------------------

 L = 1.  Multiply by 2.5417464519 to convert [e a0] to [Debye]
 Dipole X            :          0.0000000            0.0000000            0.0000000
 Dipole Y            :          0.0000000            0.0000000            0.0000000
 Dipole Z            :          0.0249540            0.5828704            0.6078244
 Magnitude           :                                                    0.6078244

 L = 2.  Multiply by 1.3450342976 to convert [e a0^2] to [Debye ang]
 Quadrupole XX       :         -2.8003767            0.0000000           -2.8003767
 Quadrupole XY       :          0.0000000            0.0000000            0.0000000
 Quadrupole XZ       :          0.0000000            0.0000000            0.0000000
 Quadrupole YY       :         -2.8003767            0.0000000           -2.8003767
 Quadrupole YZ       :          0.0000000            0.0000000            0.0000000
 Quadrupole ZZ       :         -3.9209695            1.4252373           -2.4957321
 Traceless XX        :          0.3735309           -0.4750791           -0.1015482
 Traceless YY        :          0.3735309           -0.4750791           -0.1015482
 Traceless ZZ        :         -0.7470619            0.9501582            0.2030964

 ------------------------------------------------------------------------------------
  ==> Computing MBIS Charges <==

  Electron Count from Grid (Expected Number):  8.00000 ( 8.00000)
  Difference:  0.00000

  MBIS Charges: (a.u.)
   Center  Symbol  Z      Pop.       Charge
      1       O    8    7.422961    0.577039
      2       H    1    0.577039    0.422961

  MBIS Dipoles: [e a0]
   Center  Symbol  Z        X           Y           Z
      1       O    8   -0.000000    0.000000    0.126296
      2       H    1   -0.000000    0.000000    0.027149

  MBIS Quadrupoles: [e a0^2]
   Center  Symbol  Z      XX        XY        XZ        YY        YZ        ZZ
      1       O    8   -2.6626    0.0000    0.0000   -2.6626   -0.0000   -2.9927
      2       H    1   -0.1378   -0.0000    0.0000   -0.1378   -0.0000   -0.1355

  MBIS Octupoles: [e a0^3]
   Center  Symbol  Z      XXX       XXY       XXZ       XYY       XYZ       XZZ       YYY       YYZ       YZZ       ZZZ
      1       O    8   -0.0000   -0.0000    0.1157   -0.0000    0.0000    0.0000   -0.0000    0.1157   -0.0000    0.2642
      2       H    1    0.0000   -0.0000    0.0035    0.0000   -0.0000    0.0000   -0.0000    0.0035   -0.0000    0.0069

  MBIS Radial Moments:
   Center  Symbol  Z      [a0^2]      [a0^3]      [a0^4]
      1       O    8    8.317858   13.801681   27.499920
      2       H    1    0.411166    0.492342    0.708873

  MBIS Valence Widths: [a0]
   Center  Symbol  Z     Width
      1       O    8    0.346699
      2       H    1    0.246515

*** tstop() called on Mac.lan at Sun Aug 10 18:29:09 2025
Module time:
	user time   =       3.04 seconds =       0.05 minutes
	system time =       2.12 seconds =       0.04 minutes
	total time  =          1 seconds =       0.02 minutes
Total time:
	user time   =      13.16 seconds =       0.22 minutes
	system time =       4.05 seconds =       0.07 minutes
	total time  =          2 seconds =       0.03 minutes

    Psi4 stopped on: Sunday, 10 August 2025 06:29PM
    Psi4 wall time for execution: 0:00:01.72

*** Psi4 exiting successfully. Buy a developer a beer!
