                               Psi4 1.9.1 release

  ==> Input File <==

--------------------------------------------------------------------------
molecule {
1 1
C           0.000000           0.000000           0.000000
H           0.000000           0.000000           0.995206
}

set {
basis              cc-pvtz
reference          uks
maxiter            500
DAMPING_PERCENTAGE 1
E_CONVERGENCE      1.0E-8
D_CONVERGENCE      1.0E-8
DIIS_MAX_VECS      400
MBIS_MAXITER       8000
guess              read
}

E, wfn = energy('b3lyp', restart_file='last_wfn', return_wfn=True)
properties('b3lyp','MBIS_CHARGES', wfn=wfn)
wfn.to_file('last_wfn')
--------------------------------------------------------------------------

    Molecular point group: c2v
  Charge       = 1
  Multiplicity = 1
  Basis Set: CC-PVTZ
    Blend: CC-PVTZ
  Basis Set: (CC-PVTZ AUX)
    Blend: CC-PVTZ-JKFIT
  @DF-UKS Final Energy:   -38.07922425851437
    Total Energy =                        -38.0792242585143725
 Dipole X            :          0.0000000            0.0000000            0.0000000
 Dipole Y            :          0.0000000            0.0000000            0.0000000
 Dipole Z            :         -0.1521533            0.8606899            0.7085366
 Magnitude           :                                                    0.7085366
    Molecular point group: c2v

    Geometry (in Angstrom), charge = 1, multiplicity = 1:

       Center              X                  Y                   Z               Mass
    ------------   -----------------  -----------------  -----------------  -----------------
         C            0.000000000000     0.000000000000    -0.077106934983    12.000000000000
         H            0.000000000000     0.000000000000     0.918099065017     1.007825032230

  Charge       = 1
  Multiplicity = 1
  Basis Set: CC-PVTZ
    Blend: CC-PVTZ
  Basis Set: (CC-PVTZ AUX)
    Blend: CC-PVTZ-JKFIT

    Orbital Energies [Eh]
    ---------------------

    Alpha Occupied:

       1A1   -10.796507     2A1    -1.098339     3A1    -0.732291

    Alpha Virtual:

       1B1    -0.552287     1B2    -0.552287     4A1    -0.193344
       5A1     0.003078     2B1     0.006833     2B2     0.006833
       6A1     0.029488     7A1     0.189343     3B1     0.237740
       3B2     0.237740     1A2     0.313351     8A1     0.313351
       9A1     0.649092     4B2     0.733078     4B1     0.733078
      10A1     1.196352     5B1     1.539576     5B2     1.539576
      11A1     1.581815    12A1     1.750833    13A1     2.123467
       2A2     2.123467     6B1     2.230238     6B2     2.230238
       7B1     2.242934     7B2     2.242934     3A2     2.486004
      14A1     2.486004    15A1     2.563542     8B2     2.646650
       8B1     2.646650    16A1     3.058049    17A1     3.307109
       4A2     3.307110     9B2     3.493048     9B1     3.493048
      18A1     4.451198    10B2     4.596944    10B1     4.596944
      19A1     4.694750    20A1     9.125351

    Beta Occupied:

       1A1   -10.796507     2A1    -1.098339     3A1    -0.732291

    Beta Virtual:

       1B1    -0.552287     1B2    -0.552287     4A1    -0.193344
       5A1     0.003078     2B1     0.006833     2B2     0.006833
       6A1     0.029488     7A1     0.189343     3B1     0.237740
       3B2     0.237740     1A2     0.313351     8A1     0.313351
       9A1     0.649092     4B2     0.733078     4B1     0.733078
      10A1     1.196352     5B1     1.539576     5B2     1.539576
      11A1     1.581815    12A1     1.750833    13A1     2.123467
       2A2     2.123467     6B1     2.230238     6B2     2.230238
       7B1     2.242934     7B2     2.242934     3A2     2.486004
      14A1     2.486004    15A1     2.563542     8B2     2.646650
       8B1     2.646650    16A1     3.058049    17A1     3.307109
       4A2     3.307110     9B2     3.493048     9B1     3.493048
      18A1     4.451198    10B2     4.596944    10B1     4.596944
      19A1     4.694750    20A1     9.125351

    Final Occupation by Irrep:
             A1    A2    B1    B2
    DOCC [     3,    0,    0,    0 ]
    SOCC [     0,    0,    0,    0 ]
    NA   [     3,    0,    0,    0 ]
    NB   [     3,    0,    0,    0 ]

  @DF-UKS Final Energy:   -38.07922425845420

   => Energetics <=

    Nuclear Repulsion Energy =              3.1903578395025756
    One-Electron Energy =                 -54.1703460299150379
    Two-Electron Energy =                  17.2097328226401629
    DFT Exchange-Correlation Energy =      -4.3089688906819026
    Empirical Dispersion Energy =           0.0000000000000000
    VV10 Nonlocal Energy =                  0.0000000000000000
    Total Energy =                        -38.0792242584542038

  UHF NO Occupations:
  HONO-2 :    1 A1 2.0000000
  HONO-1 :    2 A1 2.0000000
  HONO-0 :    3 A1 2.0000000
  LUNO+0 :    4 A1 0.0000000
  LUNO+1 :    5 A1 0.0000000
  LUNO+2 :    6 A1 0.0000000
  LUNO+3 :    7 A1 0.0000000

Computation Completed

Properties will be evaluated at   0.000000,   0.000000,   0.000000 [a0]

Properties computed using the B3LYP density matrix

 Multipole Moments:

 ------------------------------------------------------------------------------------
     Multipole            Electronic (a.u.)      Nuclear  (a.u.)        Total (a.u.)
 ------------------------------------------------------------------------------------

 L = 1.  Multiply by 2.5417464519 to convert [e a0] to [Debye]
 Dipole X            :          0.0000000            0.0000000            0.0000000
 Dipole Y            :          0.0000000            0.0000000            0.0000000
 Dipole Z            :         -0.1521533            0.8606899            0.7085366
 Magnitude           :                                                    0.7085366

 L = 2.  Multiply by 1.3450342976 to convert [e a0^2] to [Debye ang]
 Quadrupole XX       :         -2.8190952            0.0000000           -2.8190952
 Quadrupole XY       :          0.0000000            0.0000000            0.0000000
 Quadrupole XZ       :          0.0000000            0.0000000            0.0000000
 Quadrupole YY       :         -2.8190952            0.0000000           -2.8190952
 Quadrupole YZ       :          0.0000000            0.0000000            0.0000000
 Quadrupole ZZ       :         -6.4839299            3.1374617           -3.3464681
 Traceless XX        :          1.2216116           -1.0458206            0.1757910
 Traceless YY        :          1.2216116           -1.0458206            0.1757910
 Traceless ZZ        :         -2.4432231            2.0916412           -0.3515819

 ------------------------------------------------------------------------------------
  ==> Computing MBIS Charges <==

  Electron Count from Grid (Expected Number):  6.00000 ( 6.00000)
  Difference: -0.00000

  MBIS Charges: (a.u.)
   Center  Symbol  Z      Pop.       Charge
      1       C    6    5.173656    0.826344
      2       H    1    0.826344    0.173656

  MBIS Dipoles: [e a0]
   Center  Symbol  Z        X           Y           Z
      1       C    6   -0.000000    0.000000    0.448258
      2       H    1   -0.000000    0.000000    0.079400

  MBIS Quadrupoles: [e a0^2]
   Center  Symbol  Z      XX        XY        XZ        YY        YZ        ZZ
      1       C    6   -2.4848   -0.0000    0.0000   -2.4848   -0.0000   -3.6895
      2       H    1   -0.3343   -0.0000   -0.0000   -0.3343    0.0000   -0.3421

  MBIS Octupoles: [e a0^3]
   Center  Symbol  Z      XXX       XXY       XXZ       XYY       XYZ       XZZ       YYY       YYZ       YZZ       ZZZ
      1       C    6   -0.0000    0.0000    0.5207   -0.0000   -0.0000    0.0000    0.0000    0.5207    0.0000    1.3339
      2       H    1    0.0000   -0.0000    0.0067    0.0000   -0.0000    0.0000    0.0000    0.0067    0.0000    0.0330

  MBIS Radial Moments:
   Center  Symbol  Z      [a0^2]      [a0^3]      [a0^4]
      1       C    6    8.658993   18.354118   46.444152
      2       H    1    1.010807    1.550491    2.847088

  MBIS Valence Widths: [a0]
   Center  Symbol  Z     Width
      1       C    6    0.457035
      2       H    1    0.326180

*** tstop() called on Mac.lan at Sun Aug 10 18:26:38 2025
Module time:
	user time   =       2.69 seconds =       0.04 minutes
	system time =       2.28 seconds =       0.04 minutes
	total time  =          0 seconds =       0.00 minutes
Total time:
	user time   =      11.24 seconds =       0.19 minutes
	system time =       4.35 seconds =       0.07 minutes
	total time  =          1 seconds =       0.02 minutes

    Psi4 stopped on: Sunday, 10 August 2025 06:26PM
    Psi4 wall time for execution: 0:00:01.53

*** Psi4 exiting successfully. Buy a developer a beer!
