                               Psi4 1.9.1 release

  ==> Input File <==

--------------------------------------------------------------------------
molecule {
1 2
O           0.000000           0.000000           0.000000
O           0.000000           0.000000           1.639150
}

set {
basis              cc-pvtz
reference          uks
maxiter            500
DAMPING_PERCENTAGE 1
E_CONVERGENCE      1.0E-8
D_CONVERGENCE      1.0E-8
DIIS_MAX_VECS      400
MBIS_MAXITER       8000
guess              read
}

E, wfn = energy('b3lyp', restart_file='last_wfn', return_wfn=True)
properties('b3lyp','MBIS_CHARGES', wfn=wfn)
wfn.to_file('last_wfn')
--------------------------------------------------------------------------

    Molecular point group: d2h
  Charge       = 1
  Multiplicity = 2
  Basis Set: CC-PVTZ
    Blend: CC-PVTZ
  Basis Set: (CC-PVTZ AUX)
    Blend: CC-PVTZ-JKFIT
  @DF-UKS Final Energy:  -149.71485037835978
    Total Energy =                       -149.7148503783597846
 Dipole X            :          0.0000000            0.0000000            0.0000000
 Dipole Y            :          0.0000000            0.0000000            0.0000000
 Dipole Z            :          0.0000000            0.0000000            0.0000000
 Magnitude           :                                                    0.0000000
    Molecular point group: d2h

    Geometry (in Angstrom), charge = 1, multiplicity = 2:

       Center              X                  Y                   Z               Mass
    ------------   -----------------  -----------------  -----------------  -----------------
         O            0.000000000000     0.000000000000    -0.819575000000    15.994914619570
         O            0.000000000000     0.000000000000     0.819575000000    15.994914619570

  Charge       = 1
  Multiplicity = 2
  Basis Set: CC-PVTZ
    Blend: CC-PVTZ
  Basis Set: (CC-PVTZ AUX)
    Blend: CC-PVTZ-JKFIT

    Orbital Energies [Eh]
    ---------------------

    Alpha Occupied:

       1Ag   -19.814029     1B1u  -19.813961     2Ag    -1.520123
       2B1u   -1.357002     3Ag    -0.912105     1B3u   -0.900632
       1B2u   -0.850214     1B2g   -0.821166

    Alpha Virtual:

       1B3g   -0.705176     3B1u   -0.577907     2B3u    0.160610
       2B2u    0.167711     4B1u    0.179941     4Ag     0.272966
       2B2g    0.287985     2B3g    0.294235     5Ag     0.329354
       5B1u    0.738201     3B2u    0.798710     3B3u    0.800837
       1B1g    0.934883     6Ag     0.936177     7Ag     1.082412
       1Au     1.093506     6B1u    1.094960     3B2g    1.446412
       3B3g    1.447647     7B1u    1.903674     8Ag     2.920633
       4B3u    2.989000     4B2u    3.005442     4B2g    3.102999
       4B3g    3.119058     8B1u    3.493590     5B2u    4.317253
       5B3u    4.319246     9Ag     4.355756     2B1g    4.492657
      10Ag     4.494126     6B3u    4.588989     6B2u    4.589248
       5B2g    4.608279     5B3g    4.608547     2Au     4.691472
       9B1u    4.692984     6B2g    4.946043     6B3g    4.946521
      10B1u    5.199340     3B1g    5.553374    11Ag     5.557174
       7B3u    5.565176     7B2u    5.576100     3Au     5.664459
      11B1u    5.668252    12Ag     5.849862     7B2g    6.068741
       7B3g    6.077185    13Ag     6.743002    12B1u    6.785441
      13B1u    7.420270

    Beta Occupied:

       1Ag   -19.798351     1B1u  -19.798256     2Ag    -1.483387
       2B1u   -1.310669     3Ag    -0.896874     1B2u   -0.836020
       1B3u   -0.793047

    Beta Virtual:

       1B3g   -0.688822     1B2g   -0.642125     3B1u   -0.559392
       2B2u    0.172614     4B1u    0.185855     2B3u    0.194037
       4Ag     0.280603     2B3g    0.298767     2B2g    0.317037
       5Ag     0.338872     5B1u    0.752518     3B2u    0.800360
       3B3u    0.821982     6Ag     0.959285     1B1g    0.960212
       7Ag     1.096980     1Au     1.122861     6B1u    1.123071
       3B3g    1.451407     3B2g    1.476863     7B1u    1.915918
       8Ag     2.929668     4B2u    3.016214     4B3u    3.053237
       4B3g    3.130506     4B2g    3.169016     8B1u    3.508619
       5B2u    4.321288     5B3u    4.351574     9Ag     4.371066
       2B1g    4.518178    10Ag     4.520725     6B2u    4.626886
       6B3u    4.626941     5B3g    4.645812     5B2g    4.645851
       9B1u    4.717686     2Au     4.717976     6B3g    4.951629
       6B2g    4.982306    10B1u    5.215902     7B2u    5.583462
      11Ag     5.610242     3B1g    5.611212     7B3u    5.621315
       3Au     5.721586    11B1u    5.721610    12Ag     5.864496
       7B3g    6.083428     7B2g    6.119622    13Ag     6.775774
      12B1u    6.798170    13B1u    7.449623

    Final Occupation by Irrep:
             Ag   B1g   B2g   B3g    Au   B1u   B2u   B3u
    DOCC [     3,    0,    0,    0,    0,    2,    1,    1 ]
    SOCC [     0,    0,    1,    0,    0,    0,    0,    0 ]
    NA   [     3,    0,    1,    0,    0,    2,    1,    1 ]
    NB   [     3,    0,    0,    0,    0,    2,    1,    1 ]

  @DF-UKS Final Energy:  -149.71485037873171

   => Energetics <=

    Nuclear Repulsion Energy =             20.6615266954702150
    One-Electron Energy =                -240.3634851498987928
    Two-Electron Energy =                  83.1664237487309066
    DFT Exchange-Correlation Energy =     -13.1793156730340488
    Empirical Dispersion Energy =           0.0000000000000000
    VV10 Nonlocal Energy =                  0.0000000000000000
    Total Energy =                       -149.7148503787317111

  UHF NO Occupations:
  HONO-2 :    2B1u 1.9997967
  HONO-1 :    1B3u 1.9985137
  HONO-0 :    1B2g 1.0000000
  LUNO+0 :    2B3u 0.0014863
  LUNO+1 :    3B1u 0.0002033
  LUNO+2 :    4 Ag 0.0001529
  LUNO+3 :    2B2u 0.0000425

Computation Completed

Properties will be evaluated at   0.000000,   0.000000,   0.000000 [a0]

Properties computed using the B3LYP density matrix

 Multipole Moments:

 ------------------------------------------------------------------------------------
     Multipole            Electronic (a.u.)      Nuclear  (a.u.)        Total (a.u.)
 ------------------------------------------------------------------------------------

 L = 1.  Multiply by 2.5417464519 to convert [e a0] to [Debye]
 Dipole X            :          0.0000000            0.0000000            0.0000000
 Dipole Y            :          0.0000000            0.0000000            0.0000000
 Dipole Z            :          0.0000000            0.0000000            0.0000000
 Magnitude           :                                                    0.0000000

 L = 2.  Multiply by 1.3450342976 to convert [e a0^2] to [Debye ang]
 Quadrupole XX       :         -6.6430046            0.0000000           -6.6430046
 Quadrupole XY       :          0.0000000            0.0000000            0.0000000
 Quadrupole XZ       :          0.0000000            0.0000000            0.0000000
 Quadrupole YY       :         -6.0796351            0.0000000           -6.0796351
 Quadrupole YZ       :          0.0000000            0.0000000            0.0000000
 Quadrupole ZZ       :        -41.4406253           38.3791297           -3.0614957
 Traceless XX        :         11.4114171          -12.7930432           -1.3816261
 Traceless YY        :         11.9747866          -12.7930432           -0.8182566
 Traceless ZZ        :        -23.3862036           25.5860864            2.1998828

 ------------------------------------------------------------------------------------
  ==> Computing MBIS Charges <==

  Electron Count from Grid (Expected Number): 15.00000 (15.00000)
  Difference: -0.00000

  MBIS Charges: (a.u.)
   Center  Symbol  Z      Pop.       Charge
      1       O    8    7.499999    0.500001
      2       O    8    7.499999    0.500001

  MBIS Dipoles: [e a0]
   Center  Symbol  Z        X           Y           Z
      1       O    8   -0.000000   -0.000000   -0.136734
      2       O    8   -0.000000    0.000000    0.136734

  MBIS Quadrupoles: [e a0^2]
   Center  Symbol  Z      XX        XY        XZ        YY        YZ        ZZ
      1       O    8   -3.3215    0.0000    0.0000   -3.0398   -0.0000   -3.1536
      2       O    8   -3.3215   -0.0000   -0.0000   -3.0398    0.0000   -3.1536

  MBIS Octupoles: [e a0^3]
   Center  Symbol  Z      XXX       XXY       XXZ       XYY       XYZ       XZZ       YYY       YYZ       YZZ       ZZZ
      1       O    8   -0.0000   -0.0000   -0.1468    0.0000   -0.0000    0.0000   -0.0000   -0.1912   -0.0000   -0.5327
      2       O    8   -0.0000   -0.0000    0.1468    0.0000    0.0000    0.0000   -0.0000    0.1912   -0.0000    0.5327

  MBIS Radial Moments:
   Center  Symbol  Z      [a0^2]      [a0^3]      [a0^4]
      1       O    8    9.514956   16.978052   36.400775
      2       O    8    9.514956   16.978052   36.400775

  MBIS Valence Widths: [a0]
   Center  Symbol  Z     Width
      1       O    8    0.369201
      2       O    8    0.369201

*** tstop() called on Mac.lan at Sun Aug 10 18:14:24 2025
Module time:
	user time   =       4.02 seconds =       0.07 minutes
	system time =       2.47 seconds =       0.04 minutes
	total time  =          1 seconds =       0.02 minutes
Total time:
	user time   =      16.76 seconds =       0.28 minutes
	system time =       5.04 seconds =       0.08 minutes
	total time  =          3 seconds =       0.05 minutes

    Psi4 stopped on: Sunday, 10 August 2025 06:14PM
    Psi4 wall time for execution: 0:00:02.19

*** Psi4 exiting successfully. Buy a developer a beer!
