                               Psi4 1.9.1 release

  ==> Input File <==

--------------------------------------------------------------------------
molecule {
1 1
C           0.000000           0.000000           0.000000
H           0.000000           0.000000           0.828178
}

set {
basis              cc-pvtz
reference          uks
maxiter            500
DAMPING_PERCENTAGE 1
E_CONVERGENCE      1.0E-8
D_CONVERGENCE      1.0E-8
DIIS_MAX_VECS      400
MBIS_MAXITER       8000
guess              read
}

E, wfn = energy('b3lyp', restart_file='last_wfn', return_wfn=True)
properties('b3lyp','MBIS_CHARGES', wfn=wfn)
wfn.to_file('last_wfn')
--------------------------------------------------------------------------

    Molecular point group: c2v
  Charge       = 1
  Multiplicity = 1
  Basis Set: CC-PVTZ
    Blend: CC-PVTZ
  Basis Set: (CC-PVTZ AUX)
    Blend: CC-PVTZ-JKFIT
  @DF-UKS Final Energy:   -38.00228170284633
    Total Energy =                        -38.0022817028463322
 Dipole X            :          0.0000000            0.0000000            0.0000000
 Dipole Y            :          0.0000000            0.0000000            0.0000000
 Dipole Z            :         -0.0117132            0.7162380            0.7045248
 Magnitude           :                                                    0.7045248
    Molecular point group: c2v

    Geometry (in Angstrom), charge = 1, multiplicity = 1:

       Center              X                  Y                   Z               Mass
    ------------   -----------------  -----------------  -----------------  -----------------
         C            0.000000000000     0.000000000000    -0.064165878421    12.000000000000
         H            0.000000000000     0.000000000000     0.764012121579     1.007825032230

  Charge       = 1
  Multiplicity = 1
  Basis Set: CC-PVTZ
    Blend: CC-PVTZ
  Basis Set: (CC-PVTZ AUX)
    Blend: CC-PVTZ-JKFIT

    Orbital Energies [Eh]
    ---------------------

    Alpha Occupied:

       1A1   -10.790278     2A1    -1.166517     3A1    -0.742024

    Alpha Virtual:

       1B1    -0.561323     1B2    -0.561323     4A1    -0.177016
       2B2     0.004366     2B1     0.004366     5A1     0.007271
       6A1     0.050463     3B1     0.256909     3B2     0.256909
       7A1     0.258458     1A2     0.308400     8A1     0.308400
       9A1     0.677253     4B2     0.760022     4B1     0.760022
      10A1     1.435817    11A1     1.504816     5B1     1.524919
       5B2     1.524919    12A1     1.772797     2A2     2.147438
      13A1     2.147438     6B1     2.236337     6B2     2.236337
       7B1     2.268259     7B2     2.268259     3A2     2.467094
      14A1     2.467095    15A1     2.622785     8B1     2.625370
       8B2     2.625370    16A1     3.352675     4A2     3.506431
      17A1     3.506432     9B1     3.600635     9B2     3.600635
      10B1     5.033918    10B2     5.033918    18A1     5.056051
      19A1     5.307465    20A1    11.749549

    Beta Occupied:

       1A1   -10.790278     2A1    -1.166517     3A1    -0.742024

    Beta Virtual:

       1B1    -0.561323     1B2    -0.561323     4A1    -0.177016
       2B2     0.004366     2B1     0.004366     5A1     0.007271
       6A1     0.050463     3B1     0.256909     3B2     0.256909
       7A1     0.258458     1A2     0.308400     8A1     0.308400
       9A1     0.677253     4B2     0.760022     4B1     0.760022
      10A1     1.435817    11A1     1.504816     5B1     1.524919
       5B2     1.524919    12A1     1.772797     2A2     2.147438
      13A1     2.147438     6B1     2.236337     6B2     2.236337
       7B1     2.268259     7B2     2.268259     3A2     2.467094
      14A1     2.467095    15A1     2.622785     8B1     2.625370
       8B2     2.625370    16A1     3.352675     4A2     3.506431
      17A1     3.506432     9B1     3.600635     9B2     3.600635
      10B1     5.033918    10B2     5.033918    18A1     5.056051
      19A1     5.307465    20A1    11.749549

    Final Occupation by Irrep:
             A1    A2    B1    B2
    DOCC [     3,    0,    0,    0 ]
    SOCC [     0,    0,    0,    0 ]
    NA   [     3,    0,    0,    0 ]
    NB   [     3,    0,    0,    0 ]

  @DF-UKS Final Energy:   -38.00228170279874

   => Energetics <=

    Nuclear Repulsion Energy =              3.8337932956683227
    One-Electron Energy =                 -55.1147306105639885
    Two-Electron Energy =                  17.6511723550549497
    DFT Exchange-Correlation Energy =      -4.3725167429580258
    Empirical Dispersion Energy =           0.0000000000000000
    VV10 Nonlocal Energy =                  0.0000000000000000
    Total Energy =                        -38.0022817027987401

  UHF NO Occupations:
  HONO-2 :    1 A1 2.0000000
  HONO-1 :    2 A1 2.0000000
  HONO-0 :    3 A1 2.0000000
  LUNO+0 :    4 A1 0.0000000
  LUNO+1 :    5 A1 0.0000000
  LUNO+2 :    6 A1 0.0000000
  LUNO+3 :    7 A1 0.0000000

Computation Completed

Properties will be evaluated at   0.000000,   0.000000,   0.000000 [a0]

Properties computed using the B3LYP density matrix

 Multipole Moments:

 ------------------------------------------------------------------------------------
     Multipole            Electronic (a.u.)      Nuclear  (a.u.)        Total (a.u.)
 ------------------------------------------------------------------------------------

 L = 1.  Multiply by 2.5417464519 to convert [e a0] to [Debye]
 Dipole X            :          0.0000000            0.0000000            0.0000000
 Dipole Y            :          0.0000000            0.0000000            0.0000000
 Dipole Z            :         -0.0117132            0.7162380            0.7045248
 Magnitude           :                                                    0.7045248

 L = 2.  Multiply by 1.3450342976 to convert [e a0^2] to [Debye ang]
 Quadrupole XX       :         -2.7083774            0.0000000           -2.7083774
 Quadrupole XY       :          0.0000000            0.0000000            0.0000000
 Quadrupole XZ       :          0.0000000            0.0000000            0.0000000
 Quadrupole YY       :         -2.7083774            0.0000000           -2.7083774
 Quadrupole YZ       :          0.0000000            0.0000000            0.0000000
 Quadrupole ZZ       :         -5.6981883            2.1727004           -3.5254879
 Traceless XX        :          0.9966036           -0.7242335            0.2723702
 Traceless YY        :          0.9966036           -0.7242335            0.2723702
 Traceless ZZ        :         -1.9932073            1.4484669           -0.5447403

 ------------------------------------------------------------------------------------
  ==> Computing MBIS Charges <==

  Electron Count from Grid (Expected Number):  6.00000 ( 6.00000)
  Difference: -0.00000

  MBIS Charges: (a.u.)
   Center  Symbol  Z      Pop.       Charge
      1       C    6    5.144715    0.855285
      2       H    1    0.855285    0.144715

  MBIS Dipoles: [e a0]
   Center  Symbol  Z        X           Y           Z
      1       C    6   -0.000000    0.000000    0.547758
      2       H    1   -0.000000    0.000000    0.051539

  MBIS Quadrupoles: [e a0^2]
   Center  Symbol  Z      XX        XY        XZ        YY        YZ        ZZ
      1       C    6   -2.4326   -0.0000    0.0000   -2.4326   -0.0000   -3.5758
      2       H    1   -0.2758   -0.0000    0.0000   -0.2758    0.0000   -0.2799

  MBIS Octupoles: [e a0^3]
   Center  Symbol  Z      XXX       XXY       XXZ       XYY       XYZ       XZZ       YYY       YYZ       YZZ       ZZZ
      1       C    6   -0.0000    0.0000    0.6383   -0.0000   -0.0000   -0.0000    0.0000    0.6383    0.0000    1.6137
      2       H    1   -0.0000   -0.0000    0.0019   -0.0000    0.0000   -0.0000    0.0000    0.0019    0.0000    0.0121

  MBIS Radial Moments:
   Center  Symbol  Z      [a0^2]      [a0^3]      [a0^4]
      1       C    6    8.440949   17.777966   44.636724
      2       H    1    0.831509    1.137170    1.859310

  MBIS Valence Widths: [a0]
   Center  Symbol  Z     Width
      1       C    6    0.452543
      2       H    1    0.290766

*** tstop() called on Mac.lan at Sun Aug 10 18:26:54 2025
Module time:
	user time   =       2.98 seconds =       0.05 minutes
	system time =       1.46 seconds =       0.02 minutes
	total time  =          0 seconds =       0.00 minutes
Total time:
	user time   =      13.74 seconds =       0.23 minutes
	system time =       3.85 seconds =       0.06 minutes
	total time  =          2 seconds =       0.03 minutes

    Psi4 stopped on: Sunday, 10 August 2025 06:26PM
    Psi4 wall time for execution: 0:00:01.76

*** Psi4 exiting successfully. Buy a developer a beer!
