                               Psi4 1.9.1 release

  ==> Input File <==

--------------------------------------------------------------------------
molecule {
1 3
O           0.000000           0.000000           0.000000
H           0.000000           0.000000           0.966279
}

set {
basis              cc-pvtz
reference          uks
maxiter            500
DAMPING_PERCENTAGE 1
E_CONVERGENCE      1.0E-8
D_CONVERGENCE      1.0E-8
DIIS_MAX_VECS      400
MBIS_MAXITER       8000
guess              read
}

E, wfn = energy('b3lyp', restart_file='last_wfn', return_wfn=True)
properties('b3lyp','MBIS_CHARGES', wfn=wfn)
wfn.to_file('last_wfn')
--------------------------------------------------------------------------

    Molecular point group: c2v
  Charge       = 1
  Multiplicity = 3
  Basis Set: CC-PVTZ
    Blend: CC-PVTZ
  Basis Set: (CC-PVTZ AUX)
    Blend: CC-PVTZ-JKFIT
  @DF-UKS Final Energy:   -75.27753248821423
    Total Energy =                        -75.2775324882142343
 Dipole X            :          0.0000000            0.0000000            0.0000000
 Dipole Y            :          0.0000000            0.0000000            0.0000000
 Dipole Z            :         -0.0153308            0.8518878            0.8365571
 Magnitude           :                                                    0.8365571
    Molecular point group: c2v

    Geometry (in Angstrom), charge = 1, multiplicity = 3:

       Center              X                  Y                   Z               Mass
    ------------   -----------------  -----------------  -----------------  -----------------
         O            0.000000000000     0.000000000000    -0.057275485261    15.994914619570
         H            0.000000000000     0.000000000000     0.909003514739     1.007825032230

  Charge       = 1
  Multiplicity = 3
  Basis Set: CC-PVTZ
    Blend: CC-PVTZ
  Basis Set: (CC-PVTZ AUX)
    Blend: CC-PVTZ-JKFIT

    Orbital Energies [Eh]
    ---------------------

    Alpha Occupied:

       1A1   -19.823879     2A1    -1.588088     3A1    -0.998686
       1B1    -0.957338     1B2    -0.957338

    Alpha Virtual:

       4A1    -0.298260     5A1     0.010662     2B1     0.134921
       2B2     0.134921     6A1     0.162424     3B1     0.323086
       3B2     0.323086     7A1     0.465019     8A1     0.867603
       9A1     0.916298     1A2     0.916298     4B1     1.288854
       4B2     1.288854    10A1     1.452005    11A1     1.988438
      12A1     2.754885     2A2     2.754885     5B1     2.814950
       5B2     2.814950     6B1     3.149812     6B2     3.149812
      13A1     3.237303     7B2     3.595161     7B1     3.595161
      14A1     3.831612    15A1     4.168006     8B1     4.493862
       8B2     4.493862    16A1     4.802456     3A2     4.802456
       4A2     5.523254    17A1     5.523254     9B1     5.721975
       9B2     5.721975    18A1     5.841755    10B1     6.075596
      10B2     6.075596    19A1     6.443593    20A1     9.670449

    Beta Occupied:

       1A1   -19.767776     2A1    -1.437482     3A1    -0.942801

    Beta Virtual:

       1B2    -0.654082     1B1    -0.654082     4A1    -0.281808
       5A1     0.020152     6A1     0.175441     2B1     0.203527
       2B2     0.203527     3B1     0.337613     3B2     0.337613
       7A1     0.515958     8A1     0.887618     9A1     1.028115
       1A2     1.028115     4B1     1.342415     4B2     1.342415
      10A1     1.480249    11A1     2.000300    12A1     2.766677
       2A2     2.766677     5B1     2.895939     5B2     2.895939
       6B1     3.196202     6B2     3.196202    13A1     3.247392
       7B2     3.636762     7B1     3.636762    14A1     3.877192
      15A1     4.227194     8B1     4.646131     8B2     4.646131
      16A1     4.899320     3A2     4.899320     4A2     5.735414
      17A1     5.735415     9B1     5.832656     9B2     5.832656
      18A1     5.892891    10B1     6.135138    10B2     6.135138
      19A1     6.502170    20A1     9.743009

    Final Occupation by Irrep:
             A1    A2    B1    B2
    DOCC [     3,    0,    0,    0 ]
    SOCC [     0,    0,    1,    1 ]
    NA   [     3,    0,    1,    1 ]
    NB   [     3,    0,    0,    0 ]

  @DF-UKS Final Energy:   -75.27753248818746

   => Energetics <=

    Nuclear Repulsion Energy =              4.3811545996135699
    One-Electron Energy =                -107.8945371315359409
    Two-Electron Energy =                  35.1225616467598059
    DFT Exchange-Correlation Energy =      -6.8867116030249038
    Empirical Dispersion Energy =           0.0000000000000000
    VV10 Nonlocal Energy =                  0.0000000000000000
    Total Energy =                        -75.2775324881874752

  UHF NO Occupations:
  HONO-2 :    3 A1 1.9983755
  HONO-1 :    1 B2 1.0000000
  HONO-0 :    1 B1 1.0000000
  LUNO+0 :    4 A1 0.0016245
  LUNO+1 :    5 A1 0.0005606
  LUNO+2 :    6 A1 0.0000015
  LUNO+3 :    7 A1 0.0000000

Computation Completed

Properties will be evaluated at   0.000000,   0.000000,   0.000000 [a0]

Properties computed using the B3LYP density matrix

 Multipole Moments:

 ------------------------------------------------------------------------------------
     Multipole            Electronic (a.u.)      Nuclear  (a.u.)        Total (a.u.)
 ------------------------------------------------------------------------------------

 L = 1.  Multiply by 2.5417464519 to convert [e a0] to [Debye]
 Dipole X            :          0.0000000            0.0000000            0.0000000
 Dipole Y            :          0.0000000            0.0000000            0.0000000
 Dipole Z            :         -0.0153308            0.8518878            0.8365571
 Magnitude           :                                                    0.8365571

 L = 2.  Multiply by 1.3450342976 to convert [e a0^2] to [Debye ang]
 Quadrupole XX       :         -3.0041268            0.0000000           -3.0041268
 Quadrupole XY       :          0.0000000            0.0000000            0.0000000
 Quadrupole XZ       :          0.0000000            0.0000000            0.0000000
 Quadrupole YY       :         -3.0041268            0.0000000           -3.0041268
 Quadrupole YZ       :          0.0000000            0.0000000            0.0000000
 Quadrupole ZZ       :         -4.8047549            3.0444443           -1.7603106
 Traceless XX        :          0.6002094           -1.0148148           -0.4146054
 Traceless YY        :          0.6002094           -1.0148148           -0.4146054
 Traceless ZZ        :         -1.2004187            2.0296296            0.8292108

 ------------------------------------------------------------------------------------
  ==> Computing MBIS Charges <==

  Electron Count from Grid (Expected Number):  8.00000 ( 8.00000)
  Difference: -0.00000

  MBIS Charges: (a.u.)
   Center  Symbol  Z      Pop.       Charge
      1       O    8    7.505318    0.494682
      2       H    1    0.494682    0.505318

  MBIS Dipoles: [e a0]
   Center  Symbol  Z        X           Y           Z
      1       O    8    0.000000   -0.000000   -0.024957
      2       H    1    0.000000    0.000000    0.047037

  MBIS Quadrupoles: [e a0^2]
   Center  Symbol  Z      XX        XY        XZ        YY        YZ        ZZ
      1       O    8   -2.8100   -0.0000    0.0000   -2.8100   -0.0000   -3.2377
      2       H    1   -0.1942    0.0000    0.0000   -0.1942    0.0000   -0.1864

  MBIS Octupoles: [e a0^3]
   Center  Symbol  Z      XXX       XXY       XXZ       XYY       XYZ       XZZ       YYY       YYZ       YZZ       ZZZ
      1       O    8   -0.0000   -0.0000   -0.0061    0.0000   -0.0000   -0.0000   -0.0000   -0.0061    0.0000   -0.0736
      2       H    1    0.0000    0.0000    0.0069   -0.0000    0.0000    0.0000    0.0000    0.0069    0.0000    0.0313

  MBIS Radial Moments:
   Center  Symbol  Z      [a0^2]      [a0^3]      [a0^4]
      1       O    8    8.857652   15.017694   30.493024
      2       H    1    0.574762    0.875434    1.595708

  MBIS Valence Widths: [a0]
   Center  Symbol  Z     Width
      1       O    8    0.356383
      2       H    1    0.314996

*** tstop() called on Mac.lan at Sun Aug 10 18:28:33 2025
Module time:
	user time   =      20.25 seconds =       0.34 minutes
	system time =       1.48 seconds =       0.02 minutes
	total time  =          3 seconds =       0.05 minutes
Total time:
	user time   =      38.51 seconds =       0.64 minutes
	system time =       4.28 seconds =       0.07 minutes
	total time  =          5 seconds =       0.08 minutes

    Psi4 stopped on: Sunday, 10 August 2025 06:28PM
    Psi4 wall time for execution: 0:00:04.63

*** Psi4 exiting successfully. Buy a developer a beer!
