                               Psi4 1.9.1 release

  ==> Input File <==

--------------------------------------------------------------------------
molecule {
1 3
O           0.000000           0.000000           0.000000
H           0.000000           0.000000           0.870922
}

set {
basis              cc-pvtz
reference          uks
maxiter            500
DAMPING_PERCENTAGE 1
E_CONVERGENCE      1.0E-8
D_CONVERGENCE      1.0E-8
DIIS_MAX_VECS      400
MBIS_MAXITER       8000
guess              read
}

E, wfn = energy('b3lyp', restart_file='last_wfn', return_wfn=True)
properties('b3lyp','MBIS_CHARGES', wfn=wfn)
wfn.to_file('last_wfn')
--------------------------------------------------------------------------

    Molecular point group: c2v
  Charge       = 1
  Multiplicity = 3
  Basis Set: CC-PVTZ
    Blend: CC-PVTZ
  Basis Set: (CC-PVTZ AUX)
    Blend: CC-PVTZ-JKFIT
  @DF-UKS Final Energy:   -75.25617435591286
    Total Energy =                        -75.2561743559128615
 Dipole X            :          0.0000000            0.0000000            0.0000000
 Dipole Y            :          0.0000000            0.0000000            0.0000000
 Dipole Z            :         -0.0122137            0.7678195            0.7556058
 Magnitude           :                                                    0.7556058
    Molecular point group: c2v

    Geometry (in Angstrom), charge = 1, multiplicity = 3:

       Center              X                  Y                   Z               Mass
    ------------   -----------------  -----------------  -----------------  -----------------
         O            0.000000000000     0.000000000000    -0.051623268408    15.994914619570
         H            0.000000000000     0.000000000000     0.819298731592     1.007825032230

  Charge       = 1
  Multiplicity = 3
  Basis Set: CC-PVTZ
    Blend: CC-PVTZ
  Basis Set: (CC-PVTZ AUX)
    Blend: CC-PVTZ-JKFIT

    Orbital Energies [Eh]
    ---------------------

    Alpha Occupied:

       1A1   -19.831074     2A1    -1.627877     3A1    -1.026530
       1B1    -0.971911     1B2    -0.971911

    Alpha Virtual:

       4A1    -0.267444     5A1     0.049094     2B2     0.134966
       2B1     0.134966     6A1     0.150470     3B2     0.327236
       3B1     0.327236     7A1     0.441881     8A1     0.906192
       1A2     0.906192     9A1     0.971441     4B2     1.325405
       4B1     1.325405    10A1     1.403491    11A1     2.051000
       2A2     2.775235    12A1     2.775235     5B1     2.853266
       5B2     2.853266     6B2     3.121132     6B1     3.121132
      13A1     3.336341     7B1     3.690433     7B2     3.690433
      14A1     3.956494    15A1     4.335351     8B1     4.480633
       8B2     4.480633    16A1     4.919050     3A2     4.919050
       4A2     5.509618    17A1     5.509619     9B1     5.766373
       9B2     5.766373    18A1     6.112346    10B1     6.402982
      10B2     6.402982    19A1     6.625931    20A1    10.600856

    Beta Occupied:

       1A1   -19.775138     2A1    -1.481891     3A1    -0.966583

    Beta Virtual:

       1B1    -0.667823     1B2    -0.667823     4A1    -0.252777
       5A1     0.063495     6A1     0.162357     2B2     0.204608
       2B1     0.204608     3B2     0.343280     3B1     0.343280
       7A1     0.487569     8A1     0.998183     9A1     1.018219
       1A2     1.018219     4B2     1.378259     4B1     1.378259
      10A1     1.434866    11A1     2.066760     2A2     2.794456
      12A1     2.794456     5B2     2.936207     5B1     2.936207
       6B1     3.179519     6B2     3.179519    13A1     3.348477
       7B1     3.728494     7B2     3.728494    14A1     4.015887
      15A1     4.395555     8B1     4.633087     8B2     4.633087
      16A1     5.015896     3A2     5.015896    17A1     5.720720
       4A2     5.720720     9B1     5.870641     9B2     5.870641
      18A1     6.162273    10B1     6.465343    10B2     6.465343
      19A1     6.675071    20A1    10.669419

    Final Occupation by Irrep:
             A1    A2    B1    B2
    DOCC [     3,    0,    0,    0 ]
    SOCC [     0,    0,    1,    1 ]
    NA   [     3,    0,    1,    1 ]
    NB   [     3,    0,    0,    0 ]

  @DF-UKS Final Energy:   -75.25617435599187

   => Energetics <=

    Nuclear Repulsion Energy =              4.8608459602122807
    One-Electron Energy =                -108.6076989406664381
    Two-Electron Energy =                  35.4118311323734929
    DFT Exchange-Correlation Energy =      -6.9211525079112306
    Empirical Dispersion Energy =           0.0000000000000000
    VV10 Nonlocal Energy =                  0.0000000000000000
    Total Energy =                        -75.2561743559918881

  UHF NO Occupations:
  HONO-2 :    3 A1 1.9985586
  HONO-1 :    1 B1 1.0000000
  HONO-0 :    1 B2 1.0000000
  LUNO+0 :    4 A1 0.0014414
  LUNO+1 :    5 A1 0.0004308
  LUNO+2 :    6 A1 0.0000015
  LUNO+3 :    7 A1 0.0000000

Computation Completed

Properties will be evaluated at   0.000000,   0.000000,   0.000000 [a0]

Properties computed using the B3LYP density matrix

 Multipole Moments:

 ------------------------------------------------------------------------------------
     Multipole            Electronic (a.u.)      Nuclear  (a.u.)        Total (a.u.)
 ------------------------------------------------------------------------------------

 L = 1.  Multiply by 2.5417464519 to convert [e a0] to [Debye]
 Dipole X            :          0.0000000            0.0000000            0.0000000
 Dipole Y            :          0.0000000            0.0000000            0.0000000
 Dipole Z            :         -0.0122137            0.7678195            0.7556058
 Magnitude           :                                                    0.7556058

 L = 2.  Multiply by 1.3450342976 to convert [e a0^2] to [Debye ang]
 Quadrupole XX       :         -2.9457022            0.0000000           -2.9457022
 Quadrupole XY       :          0.0000000            0.0000000            0.0000000
 Quadrupole XZ       :          0.0000000            0.0000000            0.0000000
 Quadrupole YY       :         -2.9457022            0.0000000           -2.9457022
 Quadrupole YZ       :          0.0000000            0.0000000            0.0000000
 Quadrupole ZZ       :         -4.5247712            2.4732127           -2.0515585
 Traceless XX        :          0.5263563           -0.8244042           -0.2980479
 Traceless YY        :          0.5263563           -0.8244042           -0.2980479
 Traceless ZZ        :         -1.0527127            1.6488085            0.5960958

 ------------------------------------------------------------------------------------
  ==> Computing MBIS Charges <==

  Electron Count from Grid (Expected Number):  8.00000 ( 8.00000)
  Difference: -0.00000

  MBIS Charges: (a.u.)
   Center  Symbol  Z      Pop.       Charge
      1       O    8    7.482943    0.517057
      2       H    1    0.517057    0.482943

  MBIS Dipoles: [e a0]
   Center  Symbol  Z        X           Y           Z
      1       O    8   -0.000000    0.000000    0.017940
      2       H    1    0.000000    0.000000    0.040391

  MBIS Quadrupoles: [e a0^2]
   Center  Symbol  Z      XX        XY        XZ        YY        YZ        ZZ
      1       O    8   -2.7687    0.0000    0.0000   -2.7687    0.0000   -3.1625
      2       H    1   -0.1770   -0.0000    0.0000   -0.1770    0.0000   -0.1732

  MBIS Octupoles: [e a0^3]
   Center  Symbol  Z      XXX       XXY       XXZ       XYY       XYZ       XZZ       YYY       YYZ       YZZ       ZZZ
      1       O    8   -0.0000   -0.0000    0.0298   -0.0000    0.0000   -0.0000   -0.0000    0.0298    0.0000    0.0308
      2       H    1    0.0000    0.0000    0.0046   -0.0000    0.0000    0.0000    0.0000    0.0046   -0.0000    0.0188

  MBIS Radial Moments:
   Center  Symbol  Z      [a0^2]      [a0^3]      [a0^4]
      1       O    8    8.699994   14.653407   29.591245
      2       H    1    0.527112    0.754774    1.296550

  MBIS Valence Widths: [a0]
   Center  Symbol  Z     Width
      1       O    8    0.353593
      2       H    1    0.294760

*** tstop() called on Mac.lan at Sun Aug 10 18:28:44 2025
Module time:
	user time   =       3.17 seconds =       0.05 minutes
	system time =       2.43 seconds =       0.04 minutes
	total time  =          0 seconds =       0.00 minutes
Total time:
	user time   =      10.99 seconds =       0.18 minutes
	system time =       4.52 seconds =       0.08 minutes
	total time  =          1 seconds =       0.02 minutes

    Psi4 stopped on: Sunday, 10 August 2025 06:28PM
    Psi4 wall time for execution: 0:00:01.51

*** Psi4 exiting successfully. Buy a developer a beer!
