                               Psi4 1.9.1 release

  ==> Input File <==

--------------------------------------------------------------------------
molecule {
1 1
O           0.000000           0.000000           0.000000
N           0.000000           0.000000           1.566470
}

set {
basis              cc-pvtz
reference          uks
maxiter            500
DAMPING_PERCENTAGE 1
E_CONVERGENCE      1.0E-8
D_CONVERGENCE      1.0E-8
DIIS_MAX_VECS      400
MBIS_MAXITER       8000
guess              read
}

E, wfn = energy('b3lyp', restart_file='last_wfn', return_wfn=True)
properties('b3lyp','MBIS_CHARGES', wfn=wfn)
wfn.to_file('last_wfn')
--------------------------------------------------------------------------

    Molecular point group: c2v
  Charge       = 1
  Multiplicity = 1
  Basis Set: CC-PVTZ
    Blend: CC-PVTZ
  Basis Set: (CC-PVTZ AUX)
    Blend: CC-PVTZ-JKFIT
  @DF-UKS Final Energy:  -129.32275881521997
    Total Energy =                       -129.3227588152199701
 Dipole X            :          0.0000000            0.0000000            0.0000000
 Dipole Y            :          0.0000000            0.0000000            0.0000000
 Dipole Z            :          0.5670486           -0.0059395            0.5611091
 Magnitude           :                                                    0.5611091
    Molecular point group: c2v

    Geometry (in Angstrom), charge = 1, multiplicity = 1:

       Center              X                  Y                   Z               Mass
    ------------   -----------------  -----------------  -----------------  -----------------
         O            0.000000000000     0.000000000000    -0.731228870397    15.994914619570
         N            0.000000000000     0.000000000000     0.835241129603    14.003074004430

  Charge       = 1
  Multiplicity = 1
  Basis Set: CC-PVTZ
    Blend: CC-PVTZ
  Basis Set: (CC-PVTZ AUX)
    Blend: CC-PVTZ-JKFIT

    Orbital Energies [Eh]
    ---------------------

    Alpha Occupied:

       1A1   -19.743476     2A1   -15.022427     3A1    -1.441934
       4A1    -1.163917     5A1    -0.854711     1B1    -0.805246
       1B2    -0.805246

    Alpha Virtual:

       2B2    -0.620183     2B1    -0.620183     6A1    -0.444829
       7A1     0.101647     3B2     0.112616     3B1     0.112616
       8A1     0.167412     9A1     0.264397     4B2     0.284075
       4B1     0.284075     1A2     0.601358    10A1     0.601358
       5B2     0.608896     5B1     0.608896    11A1     0.732564
      12A1     1.059173    13A1     1.086584     2A2     1.086584
       6B1     1.388188     6B2     1.388188    14A1     1.620611
       7B2     2.327201     7B1     2.327201    15A1     2.572246
       8B2     3.058911     8B1     3.058911    16A1     3.134630
      17A1     3.376189     3A2     3.376190     9B1     3.391469
       9B2     3.391469    10B2     3.491116    10B1     3.491116
      18A1     3.779243    19A1     3.889624     4A2     3.889629
      11B2     4.033831    11B1     4.033831    20A1     4.536767
      12B1     4.658229    12B2     4.658229    21A1     4.700294
      22A1     4.707166     5A2     4.707167    13B1     5.039406
      13B2     5.039406    23A1     5.530333     6A2     5.698296
      24A1     5.698339    14B1     6.005509    14B2     6.005509
      25A1     6.795733    26A1     7.555471

    Beta Occupied:

       1A1   -19.743476     2A1   -15.022427     3A1    -1.441934
       4A1    -1.163917     5A1    -0.854711     1B2    -0.805246
       1B1    -0.805246

    Beta Virtual:

       2B1    -0.620183     2B2    -0.620183     6A1    -0.444829
       7A1     0.101647     3B1     0.112616     3B2     0.112616
       8A1     0.167412     9A1     0.264397     4B2     0.284075
       4B1     0.284075     1A2     0.601358    10A1     0.601358
       5B1     0.608896     5B2     0.608896    11A1     0.732564
      12A1     1.059173    13A1     1.086584     2A2     1.086584
       6B1     1.388188     6B2     1.388188    14A1     1.620611
       7B1     2.327201     7B2     2.327201    15A1     2.572246
       8B2     3.058911     8B1     3.058911    16A1     3.134630
      17A1     3.376189     3A2     3.376190     9B1     3.391469
       9B2     3.391469    10B1     3.491116    10B2     3.491116
      18A1     3.779243    19A1     3.889624     4A2     3.889629
      11B1     4.033831    11B2     4.033831    20A1     4.536767
      12B1     4.658229    12B2     4.658229    21A1     4.700294
      22A1     4.707166     5A2     4.707167    13B2     5.039406
      13B1     5.039406    23A1     5.530333     6A2     5.698296
      24A1     5.698339    14B2     6.005509    14B1     6.005509
      25A1     6.795733    26A1     7.555471

    Final Occupation by Irrep:
             A1    A2    B1    B2
    DOCC [     5,    0,    1,    1 ]
    SOCC [     0,    0,    0,    0 ]
    NA   [     5,    0,    1,    1 ]
    NB   [     5,    0,    1,    1 ]

  @DF-UKS Final Energy:  -129.32275880921313

   => Energetics <=

    Nuclear Repulsion Energy =             18.9176452772922588
    One-Electron Energy =                -208.2917931932624924
    Two-Electron Energy =                  71.8760320170443237
    DFT Exchange-Correlation Energy =     -11.8246429102872099
    Empirical Dispersion Energy =           0.0000000000000000
    VV10 Nonlocal Energy =                  0.0000000000000000
    Total Energy =                       -129.3227588092131271

  UHF NO Occupations:
  HONO-2 :    1 B2 2.0000000
  HONO-1 :    4 A1 2.0000000
  HONO-0 :    5 A1 2.0000000
  LUNO+0 :    2 B1 0.0000000
  LUNO+1 :    2 B2 0.0000000
  LUNO+2 :    6 A1 0.0000000
  LUNO+3 :    7 A1 0.0000000

Computation Completed

Properties will be evaluated at   0.000000,   0.000000,   0.000000 [a0]

Properties computed using the B3LYP density matrix

 Multipole Moments:

 ------------------------------------------------------------------------------------
     Multipole            Electronic (a.u.)      Nuclear  (a.u.)        Total (a.u.)
 ------------------------------------------------------------------------------------

 L = 1.  Multiply by 2.5417464519 to convert [e a0] to [Debye]
 Dipole X            :          0.0000000            0.0000000            0.0000000
 Dipole Y            :          0.0000000            0.0000000            0.0000000
 Dipole Z            :          0.5670515           -0.0059395            0.5611120
 Magnitude           :                                                    0.5611120

 L = 2.  Multiply by 1.3450342976 to convert [e a0^2] to [Debye ang]
 Quadrupole XX       :         -6.4178819            0.0000000           -6.4178819
 Quadrupole XY       :          0.0000000            0.0000000            0.0000000
 Quadrupole XZ       :          0.0000000            0.0000000            0.0000000
 Quadrupole YY       :         -6.4178819            0.0000000           -6.4178819
 Quadrupole YZ       :          0.0000000            0.0000000            0.0000000
 Quadrupole ZZ       :        -36.3864026           32.7143803           -3.6720223
 Traceless XX        :          9.9895069          -10.9047934           -0.9152865
 Traceless YY        :          9.9895069          -10.9047934           -0.9152865
 Traceless ZZ        :        -19.9790138           21.8095868            1.8305730

 ------------------------------------------------------------------------------------
  ==> Computing MBIS Charges <==

  Electron Count from Grid (Expected Number): 14.00000 (14.00000)
  Difference: -0.00000

  MBIS Charges: (a.u.)
   Center  Symbol  Z      Pop.       Charge
      1       O    8    7.703368    0.296632
      2       N    7    6.296630    0.703370

  MBIS Dipoles: [e a0]
   Center  Symbol  Z        X           Y           Z
      1       O    8    0.000000    0.000000   -0.205643
      2       N    7   -0.000000    0.000000    0.066464

  MBIS Quadrupoles: [e a0^2]
   Center  Symbol  Z      XX        XY        XZ        YY        YZ        ZZ
      1       O    8   -3.3689   -0.0000    0.0000   -3.3689    0.0000   -3.4327
      2       N    7   -3.0490   -0.0000    0.0000   -3.0490   -0.0000   -3.3361

  MBIS Octupoles: [e a0^3]
   Center  Symbol  Z      XXX       XXY       XXZ       XYY       XYZ       XZZ       YYY       YYZ       YZZ       ZZZ
      1       O    8   -0.0000    0.0000   -0.2173   -0.0000   -0.0000   -0.0000    0.0000   -0.2173    0.0000   -0.6509
      2       N    7    0.0000   -0.0000    0.2091   -0.0000    0.0000    0.0000   -0.0000    0.2091   -0.0000    0.4734

  MBIS Radial Moments:
   Center  Symbol  Z      [a0^2]      [a0^3]      [a0^4]
      1       O    8   10.170541   18.403565   39.876721
      2       N    7    9.434059   18.474292   43.211545

  MBIS Valence Widths: [a0]
   Center  Symbol  Z     Width
      1       O    8    0.375722
      2       N    7    0.414664

*** tstop() called on Mac.lan at Sun Aug 10 18:43:00 2025
Module time:
	user time   =       4.40 seconds =       0.07 minutes
	system time =       2.23 seconds =       0.04 minutes
	total time  =          1 seconds =       0.02 minutes
Total time:
	user time   =      18.90 seconds =       0.32 minutes
	system time =       4.25 seconds =       0.07 minutes
	total time  =          2 seconds =       0.03 minutes

    Psi4 stopped on: Sunday, 10 August 2025 06:43PM
    Psi4 wall time for execution: 0:00:02.25

*** Psi4 exiting successfully. Buy a developer a beer!
