                               Psi4 1.9.1 release

  ==> Input File <==

--------------------------------------------------------------------------
molecule {
1 2
N           0.000000           0.000000           0.000000
N           0.000000           0.000000           1.433951
}

set {
basis              cc-pvtz
reference          uks
maxiter            500
DAMPING_PERCENTAGE 1
E_CONVERGENCE      1.0E-8
D_CONVERGENCE      1.0E-8
DIIS_MAX_VECS      400
MBIS_MAXITER       8000
guess              read
}

E, wfn = energy('b3lyp', restart_file='last_wfn', return_wfn=True)
properties('b3lyp','MBIS_CHARGES', wfn=wfn)
wfn.to_file('last_wfn')
--------------------------------------------------------------------------

    Molecular point group: d2h
  Charge       = 1
  Multiplicity = 2
  Basis Set: CC-PVTZ
    Blend: CC-PVTZ
  Basis Set: (CC-PVTZ AUX)
    Blend: CC-PVTZ-JKFIT
  @DF-UKS Final Energy:  -108.85660941408605
    Total Energy =                       -108.8566094140860514
 Dipole X            :          0.0000000            0.0000000            0.0000000
 Dipole Y            :          0.0000000            0.0000000            0.0000000
 Dipole Z            :          0.0000000            0.0000000            0.0000000
 Magnitude           :                                                    0.0000000
    Molecular point group: d2h

    Geometry (in Angstrom), charge = 1, multiplicity = 2:

       Center              X                  Y                   Z               Mass
    ------------   -----------------  -----------------  -----------------  -----------------
         N            0.000000000000     0.000000000000    -0.716975500000    14.003074004430
         N            0.000000000000     0.000000000000     0.716975500000    14.003074004430

  Charge       = 1
  Multiplicity = 2
  Basis Set: CC-PVTZ
    Blend: CC-PVTZ
  Basis Set: (CC-PVTZ AUX)
    Blend: CC-PVTZ-JKFIT

    Orbital Energies [Eh]
    ---------------------

    Alpha Occupied:

       1Ag   -14.952151     1B1u  -14.951892     2Ag    -1.376406
       2B1u   -1.069981     3Ag    -0.869679     1B3u   -0.783200
       1B2u   -0.783200

    Alpha Virtual:

       1B2g   -0.544861     1B3g   -0.544861     3B1u   -0.278864
       4B1u    0.085663     2B3u    0.108680     2B2u    0.108680
       4Ag     0.128840     5Ag     0.156624     2B3g    0.208349
       2B2g    0.208349     1B1g    0.524988     6Ag     0.524988
       3B3u    0.544722     3B2u    0.544722     5B1u    0.551022
       1Au     0.808624     6B1u    0.808624     7Ag     1.140666
       3B3g    1.200608     3B2g    1.200608     7B1u    1.265743
       4B3u    2.279673     4B2u    2.279673     8Ag     2.356577
       4B2g    2.484144     4B3g    2.484144     5B3u    3.086264
       5B2u    3.086264     9Ag     3.096557     2B1g    3.096557
       8B1u    3.135486    10Ag     3.161963     6B2u    3.364411
       6B3u    3.364411     5B3g    3.512225     5B2g    3.512225
       9B1u    3.819220     2Au     3.819222    11Ag     3.912082
       3B1g    3.912094    10B1u    3.984670     6B2g    4.079413
       6B3g    4.079413    11B1u    4.093876     3Au     4.093887
       7B3u    4.132568     7B2u    4.132568    12B1u    4.408821
      12Ag     4.636182     7B3g    4.891939     7B2g    4.891939
      13Ag     5.164915    13B1u    7.973763

    Beta Occupied:

       1Ag   -14.939909     1B1u  -14.939758     2Ag    -1.344147
       2B1u   -0.996892     1B3u   -0.771204     1B2u   -0.771204

    Beta Virtual:

       3Ag    -0.689845     1B2g   -0.527610     1B3g   -0.527610
       3B1u   -0.220638     2B3u    0.112563     2B2u    0.112563
       4B1u    0.121779     4Ag     0.159201     5Ag     0.168929
       2B3g    0.212437     2B2g    0.212437     6Ag     0.527701
       1B1g    0.527701     5B1u    0.561544     3B3u    0.575338
       3B2u    0.575338     6B1u    0.814035     1Au     0.814035
       7Ag     1.181030     3B3g    1.229587     3B2g    1.229587
       7B1u    1.308622     4B3u    2.294053     4B2u    2.294053
       8Ag     2.413843     4B2g    2.491427     4B3g    2.491427
       5B3u    3.117662     5B2u    3.117662     9Ag     3.124048
       2B1g    3.124048     8B1u    3.179917    10Ag     3.209320
       6B2u    3.367401     6B3u    3.367401     5B3g    3.515127
       5B2g    3.515127     9B1u    3.825052     2Au     3.825055
      11Ag     3.917671     3B1g    3.917682    10B1u    4.046544
      11B1u    4.118496     3Au     4.118506     6B2g    4.123424
       6B3g    4.123424     7B3u    4.186745     7B2u    4.186745
      12B1u    4.466745    12Ag     4.690140     7B3g    4.938066
       7B2g    4.938066    13Ag     5.205875    13B1u    7.999235

    Final Occupation by Irrep:
             Ag   B1g   B2g   B3g    Au   B1u   B2u   B3u
    DOCC [     2,    0,    0,    0,    0,    2,    1,    1 ]
    SOCC [     1,    0,    0,    0,    0,    0,    0,    0 ]
    NA   [     3,    0,    0,    0,    0,    2,    1,    1 ]
    NB   [     2,    0,    0,    0,    0,    2,    1,    1 ]

  @DF-UKS Final Energy:  -108.85660941412846

   => Energetics <=

    Nuclear Repulsion Energy =             18.0826843614809718
    One-Electron Energy =                -177.7453058014494331
    Two-Electron Energy =                  61.3286981684843724
    DFT Exchange-Correlation Energy =     -10.5226861426443659
    Empirical Dispersion Energy =           0.0000000000000000
    VV10 Nonlocal Energy =                  0.0000000000000000
    Total Energy =                       -108.8566094141284424

  UHF NO Occupations:
  HONO-2 :    2 Ag 1.9998080
  HONO-1 :    2B1u 1.9961091
  HONO-0 :    3 Ag 1.0000000
  LUNO+0 :    3B1u 0.0038909
  LUNO+1 :    4 Ag 0.0001920
  LUNO+2 :    2B2u 0.0001059
  LUNO+3 :    2B3u 0.0001059

Computation Completed

Properties will be evaluated at   0.000000,   0.000000,   0.000000 [a0]

Properties computed using the B3LYP density matrix

 Multipole Moments:

 ------------------------------------------------------------------------------------
     Multipole            Electronic (a.u.)      Nuclear  (a.u.)        Total (a.u.)
 ------------------------------------------------------------------------------------

 L = 1.  Multiply by 2.5417464519 to convert [e a0] to [Debye]
 Dipole X            :          0.0000000            0.0000000            0.0000000
 Dipole Y            :          0.0000000            0.0000000            0.0000000
 Dipole Z            :          0.0000000            0.0000000            0.0000000
 Magnitude           :                                                    0.0000000

 L = 2.  Multiply by 1.3450342976 to convert [e a0^2] to [Debye ang]
 Quadrupole XX       :         -6.7458594            0.0000000           -6.7458594
 Quadrupole XY       :          0.0000000            0.0000000            0.0000000
 Quadrupole XZ       :          0.0000000            0.0000000            0.0000000
 Quadrupole YY       :         -6.7458594            0.0000000           -6.7458594
 Quadrupole YZ       :          0.0000000            0.0000000            0.0000000
 Quadrupole ZZ       :        -28.9390859           25.7000756           -3.2390103
 Traceless XX        :          7.3977422           -8.5666919           -1.1689497
 Traceless YY        :          7.3977422           -8.5666919           -1.1689497
 Traceless ZZ        :        -14.7954843           17.1333837            2.3378994

 ------------------------------------------------------------------------------------
  ==> Computing MBIS Charges <==

  Electron Count from Grid (Expected Number): 13.00000 (13.00000)
  Difference:  0.00000

  MBIS Charges: (a.u.)
   Center  Symbol  Z      Pop.       Charge
      1       N    7    6.500000    0.500000
      2       N    7    6.500000    0.500000

  MBIS Dipoles: [e a0]
   Center  Symbol  Z        X           Y           Z
      1       N    7   -0.000000    0.000000   -0.289755
      2       N    7   -0.000000    0.000000    0.289755

  MBIS Quadrupoles: [e a0^2]
   Center  Symbol  Z      XX        XY        XZ        YY        YZ        ZZ
      1       N    7   -3.3729   -0.0000   -0.0000   -3.3729   -0.0000   -3.3225
      2       N    7   -3.3729   -0.0000    0.0000   -3.3729    0.0000   -3.3225

  MBIS Octupoles: [e a0^3]
   Center  Symbol  Z      XXX       XXY       XXZ       XYY       XYZ       XZZ       YYY       YYZ       YZZ       ZZZ
      1       N    7   -0.0000    0.0000   -0.3645    0.0000    0.0000    0.0000   -0.0000   -0.3645    0.0000   -0.9448
      2       N    7   -0.0000    0.0000    0.3645   -0.0000    0.0000   -0.0000   -0.0000    0.3645    0.0000    0.9448

  MBIS Radial Moments:
   Center  Symbol  Z      [a0^2]      [a0^3]      [a0^4]
      1       N    7   10.068395   19.934841   47.055969
      2       N    7   10.068395   19.934841   47.055969

  MBIS Valence Widths: [a0]
   Center  Symbol  Z     Width
      1       N    7    0.419407
      2       N    7    0.419407

*** tstop() called on Mac.lan at Sun Aug 10 18:25:37 2025
Module time:
	user time   =       3.53 seconds =       0.06 minutes
	system time =       2.27 seconds =       0.04 minutes
	total time  =          0 seconds =       0.00 minutes
Total time:
	user time   =      15.04 seconds =       0.25 minutes
	system time =       4.25 seconds =       0.07 minutes
	total time  =          1 seconds =       0.02 minutes

    Psi4 stopped on: Sunday, 10 August 2025 06:25PM
    Psi4 wall time for execution: 0:00:01.88

*** Psi4 exiting successfully. Buy a developer a beer!
