                               Psi4 1.9.1 release

  ==> Input File <==

--------------------------------------------------------------------------
molecule {
1 2
O           0.000000           0.000000           0.000000
O           0.000000           0.000000           0.785708
}

set {
basis              cc-pvtz
reference          uks
maxiter            500
DAMPING_PERCENTAGE 1
E_CONVERGENCE      1.0E-8
D_CONVERGENCE      1.0E-8
DIIS_MAX_VECS      400
MBIS_MAXITER       8000
guess              read
}

E, wfn = energy('b3lyp', restart_file='last_wfn', return_wfn=True)
properties('b3lyp','MBIS_CHARGES', wfn=wfn)
wfn.to_file('last_wfn')
--------------------------------------------------------------------------

    Molecular point group: d2h
  Charge       = 1
  Multiplicity = 2
  Basis Set: CC-PVTZ
    Blend: CC-PVTZ
  Basis Set: (CC-PVTZ AUX)
    Blend: CC-PVTZ-JKFIT
  @DF-UKS Final Energy:  -149.32486197365793
    Total Energy =                       -149.3248619736579599
 Dipole X            :          0.0000000            0.0000000            0.0000000
 Dipole Y            :          0.0000000            0.0000000            0.0000000
 Dipole Z            :          0.0000000            0.0000000            0.0000000
 Magnitude           :                                                    0.0000000
    Molecular point group: d2h

    Geometry (in Angstrom), charge = 1, multiplicity = 2:

       Center              X                  Y                   Z               Mass
    ------------   -----------------  -----------------  -----------------  -----------------
         O            0.000000000000     0.000000000000    -0.392854000000    15.994914619570
         O            0.000000000000     0.000000000000     0.392854000000    15.994914619570

  Charge       = 1
  Multiplicity = 2
  Basis Set: CC-PVTZ
    Blend: CC-PVTZ
  Basis Set: (CC-PVTZ AUX)
    Blend: CC-PVTZ-JKFIT

    Orbital Energies [Eh]
    ---------------------

    Alpha Occupied:

       1Ag   -19.800387     1B1u  -19.786051     2Ag    -2.274667
       1B3u   -1.312712     1B2u   -1.289742     2B1u   -1.163804
       3Ag    -1.107799     1B2g   -0.535122

    Alpha Virtual:

       1B3g   -0.408983     3B1u    0.045797     2B2u    0.063799
       2B3u    0.066647     4Ag     0.149553     5Ag     0.255452
       2B2g    0.313707     2B3g    0.327433     1B1g    0.671402
       6Ag     0.672740     4B1u    0.745460     5B1u    1.014957
       3B3u    1.202867     3B2u    1.206819     1Au     1.385653
       6B1u    1.387664     7Ag     1.653337     3B2g    1.857194
       3B3g    1.865454     7B1u    2.623320     4B3u    2.834348
       4B2u    2.840162     8Ag     3.533594     4B2g    3.629526
       4B3g    3.639358     8B1u    3.995257     5B3u    4.059347
       5B2u    4.059534     2B1g    4.160771     9Ag     4.162065
       6B3u    4.633349     6B2u    4.633638     5B2g    5.052459
       5B3g    5.052734    10Ag     5.113710     6B2g    5.303916
       6B3g    5.308279     3B1g    5.510604    11Ag     5.514012
       2Au     5.601224     9B1u    5.604657    12Ag     5.794071
      10B1u    6.222094     7B2u    6.567251     7B3u    6.569059
       3Au     6.624915    11B1u    6.626916    12B1u    8.133301
       7B2g    9.141273     7B3g    9.143439    13Ag    10.086392
      13B1u   30.281961

    Beta Occupied:

       1Ag   -19.785352     1B1u  -19.770798     2Ag    -2.257122
       1B2u   -1.277560     1B3u   -1.231031     2B1u   -1.117959
       3Ag    -1.078182

    Beta Virtual:

       1B3g   -0.391813     1B2g   -0.345908     3B1u    0.052115
       2B2u    0.066540     2B3u    0.085661     4Ag     0.152047
       5Ag     0.269204     2B3g    0.333570     2B2g    0.354623
       1B1g    0.692055     6Ag     0.692329     4B1u    0.762779
       5B1u    1.038588     3B2u    1.211487     3B3u    1.244070
       1Au     1.422710     6B1u    1.423071     7Ag     1.662283
       3B3g    1.871103     3B2g    1.896325     7B1u    2.640980
       4B2u    2.849566     4B3u    2.887718     8Ag     3.546261
       4B3g    3.651021     4B2g    3.691299     8B1u    4.023243
       5B2u    4.088405     5B3u    4.088425     2B1g    4.178635
       9Ag     4.179163     6B2u    4.639281     6B3u    4.676750
       5B3g    5.093278     5B2g    5.093313    10Ag     5.129716
       6B3g    5.313006     6B2g    5.346882    11Ag     5.563119
       3B1g    5.563444     9B1u    5.653611     2Au     5.654142
      12Ag     5.813400    10B1u    6.241746     7B2u    6.572030
       7B3u    6.609068     3Au     6.658566    11B1u    6.658988
      12B1u    8.150546     7B3g    9.150830     7B2g    9.190589
      13Ag    10.111155    13B1u   30.300198

    Final Occupation by Irrep:
             Ag   B1g   B2g   B3g    Au   B1u   B2u   B3u
    DOCC [     3,    0,    0,    0,    0,    2,    1,    1 ]
    SOCC [     0,    0,    1,    0,    0,    0,    0,    0 ]
    NA   [     3,    0,    1,    0,    0,    2,    1,    1 ]
    NB   [     3,    0,    0,    0,    0,    2,    1,    1 ]

  @DF-UKS Final Energy:  -149.32486197504554

   => Energetics <=

    Nuclear Repulsion Energy =             43.1042339939010475
    One-Electron Energy =                -281.0836260816985259
    Two-Electron Energy =                 102.5806348890457258
    DFT Exchange-Correlation Energy =     -13.9261047762938119
    Empirical Dispersion Energy =           0.0000000000000000
    VV10 Nonlocal Energy =                  0.0000000000000000
    Total Energy =                       -149.3248619750455646

  UHF NO Occupations:
  HONO-2 :    2B1u 1.9997994
  HONO-1 :    1B3u 1.9997234
  HONO-0 :    1B2g 1.0000000
  LUNO+0 :    2B3u 0.0002766
  LUNO+1 :    3B1u 0.0002006
  LUNO+2 :    4 Ag 0.0001312
  LUNO+3 :    2B2u 0.0000142

Computation Completed

Properties will be evaluated at   0.000000,   0.000000,   0.000000 [a0]

Properties computed using the B3LYP density matrix

 Multipole Moments:

 ------------------------------------------------------------------------------------
     Multipole            Electronic (a.u.)      Nuclear  (a.u.)        Total (a.u.)
 ------------------------------------------------------------------------------------

 L = 1.  Multiply by 2.5417464519 to convert [e a0] to [Debye]
 Dipole X            :          0.0000000            0.0000000            0.0000000
 Dipole Y            :          0.0000000            0.0000000            0.0000000
 Dipole Z            :          0.0000000            0.0000000            0.0000000
 Magnitude           :                                                    0.0000000

 L = 2.  Multiply by 1.3450342976 to convert [e a0^2] to [Debye ang]
 Quadrupole XX       :         -5.6425882            0.0000000           -5.6425882
 Quadrupole XY       :          0.0000000            0.0000000            0.0000000
 Quadrupole XZ       :          0.0000000            0.0000000            0.0000000
 Quadrupole YY       :         -4.9947649            0.0000000           -4.9947649
 Quadrupole YZ       :          0.0000000            0.0000000            0.0000000
 Quadrupole ZZ       :        -14.4830022            8.8182027           -5.6647995
 Traceless XX        :          2.7308636           -2.9394009           -0.2085373
 Traceless YY        :          3.3786869           -2.9394009            0.4392860
 Traceless ZZ        :         -6.1095504            5.8788018           -0.2307487

 ------------------------------------------------------------------------------------
  ==> Computing MBIS Charges <==

  Electron Count from Grid (Expected Number): 15.00000 (15.00000)
  Difference: -0.00000

  MBIS Charges: (a.u.)
   Center  Symbol  Z      Pop.       Charge
      1       O    8    7.500000    0.500000
      2       O    8    7.500000    0.500000

  MBIS Dipoles: [e a0]
   Center  Symbol  Z        X           Y           Z
      1       O    8   -0.000000    0.000000    0.100686
      2       O    8    0.000000    0.000000   -0.100686

  MBIS Quadrupoles: [e a0^2]
   Center  Symbol  Z      XX        XY        XZ        YY        YZ        ZZ
      1       O    8   -2.8213    0.0000   -0.0000   -2.4974   -0.0000   -2.9585
      2       O    8   -2.8213   -0.0000   -0.0000   -2.4974    0.0000   -2.9585

  MBIS Octupoles: [e a0^3]
   Center  Symbol  Z      XXX       XXY       XXZ       XYY       XYZ       XZZ       YYY       YYZ       YZZ       ZZZ
      1       O    8   -0.0000   -0.0000    0.2263   -0.0000   -0.0000   -0.0000    0.0000    0.0910    0.0000    0.1326
      2       O    8   -0.0000   -0.0000   -0.2263    0.0000    0.0000   -0.0000    0.0000   -0.0910    0.0000   -0.1326

  MBIS Radial Moments:
   Center  Symbol  Z      [a0^2]      [a0^3]      [a0^4]
      1       O    8    8.277149   13.732731   27.508025
      2       O    8    8.277149   13.732731   27.508025

  MBIS Valence Widths: [a0]
   Center  Symbol  Z     Width
      1       O    8    0.342186
      2       O    8    0.342186

*** tstop() called on Mac.lan at Sun Aug 10 18:13:07 2025
Module time:
	user time   =       3.97 seconds =       0.07 minutes
	system time =       2.26 seconds =       0.04 minutes
	total time  =          1 seconds =       0.02 minutes
Total time:
	user time   =      14.25 seconds =       0.24 minutes
	system time =       4.33 seconds =       0.07 minutes
	total time  =          2 seconds =       0.03 minutes

    Psi4 stopped on: Sunday, 10 August 2025 06:13PM
    Psi4 wall time for execution: 0:00:01.81

*** Psi4 exiting successfully. Buy a developer a beer!
