                               Psi4 1.9.1 release

  ==> Input File <==

--------------------------------------------------------------------------
molecule {
1 2
O           0.000000           0.000000           0.000000
C           0.000000           0.000000           0.951421
}

set {
basis              cc-pvtz
reference          uks
maxiter            500
DAMPING_PERCENTAGE 1
E_CONVERGENCE      1.0E-8
D_CONVERGENCE      1.0E-8
DIIS_MAX_VECS      400
MBIS_MAXITER       8000
guess              read
}

E, wfn = energy('b3lyp', restart_file='last_wfn', return_wfn=True)
properties('b3lyp','MBIS_CHARGES', wfn=wfn)
wfn.to_file('last_wfn')
--------------------------------------------------------------------------

    Molecular point group: c2v
  Charge       = 1
  Multiplicity = 2
  Basis Set: CC-PVTZ
    Blend: CC-PVTZ
  Basis Set: (CC-PVTZ AUX)
    Blend: CC-PVTZ-JKFIT
  @DF-UKS Final Energy:  -112.74562099332040
    Total Energy =                       -112.7456209933204008
 Dipole X            :          0.0000000            0.0000000            0.0000000
 Dipole Y            :          0.0000000            0.0000000            0.0000000
 Dipole Z            :          0.9666327           -0.0019596            0.9646731
 Magnitude           :                                                    0.9646731
    Molecular point group: c2v

    Geometry (in Angstrom), charge = 1, multiplicity = 2:

       Center              X                  Y                   Z               Mass
    ------------   -----------------  -----------------  -----------------  -----------------
         O            0.000000000000     0.000000000000    -0.407825926785    15.994914619570
         C            0.000000000000     0.000000000000     0.543595073215    12.000000000000

  Charge       = 1
  Multiplicity = 2
  Basis Set: CC-PVTZ
    Blend: CC-PVTZ
  Basis Set: (CC-PVTZ AUX)
    Blend: CC-PVTZ-JKFIT

    Orbital Energies [Eh]
    ---------------------

    Alpha Occupied:

       1A1   -19.630615     2A1   -10.750582     3A1    -1.670188
       4A1    -0.944344     1B2    -0.940729     1B1    -0.940729
       5A1    -0.874793

    Alpha Virtual:

       2B2    -0.356865     2B1    -0.356865     6A1    -0.107750
       7A1    -0.024190     3B1    -0.018929     3B2    -0.018929
       8A1     0.238145     9A1     0.270881     1A2     0.270881
       4B1     0.327728     4B2     0.327728    10A1     0.404634
       5B1     0.554511     5B2     0.554511    11A1     0.851575
      12A1     1.189492     2A2     1.199348    13A1     1.199348
       6B1     1.466424     6B2     1.466424    14A1     1.497484
       7B1     1.651175     7B2     1.651175     8B1     2.210496
       8B2     2.210496    15A1     2.230213    16A1     2.433582
       3A2     2.433583     9B2     2.508636     9B1     2.508636
      17A1     2.543775     4A2     2.543775    18A1     2.633248
      10B1     3.030191    10B2     3.030191    19A1     3.210515
      11B1     3.834487    11B2     3.834487    20A1     4.682609
      12B2     4.745141    12B1     4.745141     5A2     5.391124
      21A1     5.391124    22A1     5.831634     6A2     5.883819
      23A1     5.883825    13B2     6.188978    13B1     6.188978
      14B1     6.459270    14B2     6.459270    24A1     6.547140
      25A1     7.792772    26A1    14.309228

    Beta Occupied:

       1A1   -19.631452     2A1   -10.725235     3A1    -1.663197
       4A1    -0.933640     1B2    -0.933150     1B1    -0.933150

    Beta Virtual:

       5A1    -0.636164     2B2    -0.313041     2B1    -0.313041
       6A1    -0.094138     3B1    -0.007764     3B2    -0.007764
       7A1     0.017686     8A1     0.256850     1A2     0.290979
       9A1     0.290979     4B1     0.327778     4B2     0.327778
      10A1     0.450974     5B1     0.589999     5B2     0.589999
      11A1     0.853358     2A2     1.201167    12A1     1.201168
      13A1     1.243179     6B1     1.488532     6B2     1.488532
      14A1     1.545087     7B2     1.669025     7B1     1.669025
       8B1     2.245627     8B2     2.245627    15A1     2.279435
      16A1     2.479172     3A2     2.479172     4A2     2.600126
      17A1     2.600129     9B2     2.618081     9B1     2.618081
      18A1     2.718123    10B1     3.050784    10B2     3.050784
      19A1     3.275789    11B1     3.851261    11B2     3.851261
      20A1     4.704427    12B2     4.738983    12B1     4.738983
       5A2     5.393803    21A1     5.393803    22A1     5.849360
       6A2     5.875359    23A1     5.875366    13B2     6.189244
      13B1     6.189244    14B1     6.481669    14B2     6.481669
      24A1     6.555358    25A1     7.804649    26A1    14.339218

    Final Occupation by Irrep:
             A1    A2    B1    B2
    DOCC [     4,    0,    1,    1 ]
    SOCC [     1,    0,    0,    0 ]
    NA   [     5,    0,    1,    1 ]
    NB   [     4,    0,    1,    1 ]

  @DF-UKS Final Energy:  -112.74562099288450

   => Energetics <=

    Nuclear Repulsion Energy =             26.6974411035283055
    One-Electron Energy =                -200.3118136719177755
    Two-Electron Energy =                  72.0019792877684495
    DFT Exchange-Correlation Energy =     -11.1332277122634853
    Empirical Dispersion Energy =           0.0000000000000000
    VV10 Nonlocal Energy =                  0.0000000000000000
    Total Energy =                       -112.7456209928844970

  UHF NO Occupations:
  HONO-2 :    1 B1 1.9981816
  HONO-1 :    1 B2 1.9981816
  HONO-0 :    5 A1 1.0000000
  LUNO+0 :    2 B2 0.0018184
  LUNO+1 :    2 B1 0.0018184
  LUNO+2 :    6 A1 0.0000473
  LUNO+3 :    7 A1 0.0000116

Computation Completed

Properties will be evaluated at   0.000000,   0.000000,   0.000000 [a0]

Properties computed using the B3LYP density matrix

 Multipole Moments:

 ------------------------------------------------------------------------------------
     Multipole            Electronic (a.u.)      Nuclear  (a.u.)        Total (a.u.)
 ------------------------------------------------------------------------------------

 L = 1.  Multiply by 2.5417464519 to convert [e a0] to [Debye]
 Dipole X            :          0.0000000            0.0000000            0.0000000
 Dipole Y            :          0.0000000            0.0000000            0.0000000
 Dipole Z            :          0.9666327           -0.0019596            0.9646731
 Magnitude           :                                                    0.9646731

 L = 2.  Multiply by 1.3450342976 to convert [e a0^2] to [Debye ang]
 Quadrupole XX       :         -5.5684609            0.0000000           -5.5684609
 Quadrupole XY       :          0.0000000            0.0000000            0.0000000
 Quadrupole XZ       :          0.0000000            0.0000000            0.0000000
 Quadrupole YY       :         -5.5684609            0.0000000           -5.5684609
 Quadrupole YZ       :          0.0000000            0.0000000            0.0000000
 Quadrupole ZZ       :        -15.4964339           11.0829765           -4.4134574
 Traceless XX        :          3.3093243           -3.6943255           -0.3850012
 Traceless YY        :          3.3093243           -3.6943255           -0.3850012
 Traceless ZZ        :         -6.6186487            7.3886510            0.7700024

 ------------------------------------------------------------------------------------
  ==> Computing MBIS Charges <==

  Electron Count from Grid (Expected Number): 13.00000 (13.00000)
  Difference: -0.00000

  MBIS Charges: (a.u.)
   Center  Symbol  Z      Pop.       Charge
      1       O    8    8.049308   -0.049308
      2       C    6    4.950692    1.049308

  MBIS Dipoles: [e a0]
   Center  Symbol  Z        X           Y           Z
      1       O    8    0.000000   -0.000000   -0.240783
      2       C    6    0.000000    0.000000    0.089557

  MBIS Quadrupoles: [e a0^2]
   Center  Symbol  Z      XX        XY        XZ        YY        YZ        ZZ
      1       O    8   -3.2595    0.0000   -0.0000   -3.2595   -0.0000   -3.5188
      2       C    6   -2.3090    0.0000   -0.0000   -2.3090    0.0000   -2.5278

  MBIS Octupoles: [e a0^3]
   Center  Symbol  Z      XXX       XXY       XXZ       XYY       XYZ       XZZ       YYY       YYZ       YZZ       ZZZ
      1       O    8   -0.0000    0.0000   -0.1732   -0.0000    0.0000   -0.0000   -0.0000   -0.1732    0.0000   -0.2957
      2       C    6   -0.0000   -0.0000    0.0424   -0.0000   -0.0000   -0.0000    0.0000    0.0424    0.0000   -0.0855

  MBIS Radial Moments:
   Center  Symbol  Z      [a0^2]      [a0^3]      [a0^4]
      1       O    8   10.037695   17.351894   35.865463
      2       C    6    7.145791   14.260536   34.011242

  MBIS Valence Widths: [a0]
   Center  Symbol  Z     Width
      1       O    8    0.362626
      2       C    6    0.425622

*** tstop() called on Mac.lan at Sun Aug 10 18:36:43 2025
Module time:
	user time   =       7.48 seconds =       0.12 minutes
	system time =       2.88 seconds =       0.05 minutes
	total time  =          1 seconds =       0.02 minutes
Total time:
	user time   =      20.71 seconds =       0.35 minutes
	system time =       5.46 seconds =       0.09 minutes
	total time  =          3 seconds =       0.05 minutes

    Psi4 stopped on: Sunday, 10 August 2025 06:36PM
    Psi4 wall time for execution: 0:00:02.60

*** Psi4 exiting successfully. Buy a developer a beer!
