                               Psi4 1.9.1 release

  ==> Input File <==

--------------------------------------------------------------------------
molecule {
1 1
O           0.000000           0.000000           0.000000
N           0.000000           0.000000           0.731451
}

set {
basis              cc-pvtz
reference          uks
maxiter            500
DAMPING_PERCENTAGE 1
E_CONVERGENCE      1.0E-8
D_CONVERGENCE      1.0E-8
DIIS_MAX_VECS      400
MBIS_MAXITER       8000
guess              read
}

E, wfn = energy('b3lyp', restart_file='last_wfn', return_wfn=True)
properties('b3lyp','MBIS_CHARGES', wfn=wfn)
wfn.to_file('last_wfn')
--------------------------------------------------------------------------

    Molecular point group: c2v
  Charge       = 1
  Multiplicity = 1
  Basis Set: CC-PVTZ
    Blend: CC-PVTZ
  Basis Set: (CC-PVTZ AUX)
    Blend: CC-PVTZ-JKFIT
  @DF-UKS Final Energy:  -128.74739049621664
    Total Energy =                       -128.7473904962166387
 Dipole X            :          0.0000000            0.0000000            0.0000000
 Dipole Y            :          0.0000000            0.0000000            0.0000000
 Dipole Z            :         -0.1030165           -0.0027734           -0.1057899
 Magnitude           :                                                    0.1057899
    Molecular point group: c2v

    Geometry (in Angstrom), charge = 1, multiplicity = 1:

       Center              X                  Y                   Z               Mass
    ------------   -----------------  -----------------  -----------------  -----------------
         O            0.000000000000     0.000000000000    -0.341441641705    15.994914619570
         N            0.000000000000     0.000000000000     0.390009358295    14.003074004430

  Charge       = 1
  Multiplicity = 1
  Basis Set: CC-PVTZ
    Blend: CC-PVTZ
  Basis Set: (CC-PVTZ AUX)
    Blend: CC-PVTZ-JKFIT

    Orbital Energies [Eh]
    ---------------------

    Alpha Occupied:

       1A1   -19.752935     2A1   -14.880122     3A1    -2.049116
       1B1    -1.235948     1B2    -1.235948     4A1    -1.082406
       5A1    -0.913955

    Alpha Virtual:

       2B2    -0.264599     2B1    -0.264599     6A1    -0.065706
       3B2     0.021389     3B1     0.021389     7A1     0.096157
       8A1     0.206076     4B2     0.324933     4B1     0.324933
       9A1     0.493467     1A2     0.493467    10A1     0.852283
      11A1     0.967250     5B1     1.002924     5B2     1.002924
      12A1     1.289419     2A2     1.289419    13A1     1.629874
       6B1     1.675080     6B2     1.675080     7B2     2.224195
       7B1     2.224195    14A1     2.643661    15A1     2.861011
       8B2     3.253008     8B1     3.253008    16A1     3.496909
      17A1     3.531274     3A2     3.531274     9B1     3.595898
       9B2     3.595898    10B2     3.898899    10B1     3.898899
       4A2     3.932710    18A1     3.932710    19A1     4.292522
      11B1     4.682217    11B2     4.682217    12B1     4.843689
      12B2     4.843689    20A1     5.632785     5A2     5.632786
      21A1     5.738930    13B1     6.280053    13B2     6.280053
      22A1     6.408438     6A2     6.408439    23A1     6.729000
      24A1     7.950940    14B1     8.311788    14B2     8.311788
      25A1    10.143577    26A1    25.337677

    Beta Occupied:

       1A1   -19.752935     2A1   -14.880122     3A1    -2.049116
       1B1    -1.235948     1B2    -1.235948     4A1    -1.082406
       5A1    -0.913955

    Beta Virtual:

       2B2    -0.264599     2B1    -0.264599     6A1    -0.065706
       3B2     0.021389     3B1     0.021389     7A1     0.096157
       8A1     0.206076     4B2     0.324933     4B1     0.324933
       9A1     0.493467     1A2     0.493467    10A1     0.852283
      11A1     0.967250     5B1     1.002924     5B2     1.002924
      12A1     1.289419     2A2     1.289419    13A1     1.629874
       6B1     1.675080     6B2     1.675080     7B2     2.224195
       7B1     2.224195    14A1     2.643661    15A1     2.861011
       8B2     3.253008     8B1     3.253008    16A1     3.496909
      17A1     3.531274     3A2     3.531274     9B1     3.595898
       9B2     3.595898    10B2     3.898899    10B1     3.898899
       4A2     3.932710    18A1     3.932710    19A1     4.292522
      11B1     4.682217    11B2     4.682217    12B1     4.843689
      12B2     4.843689    20A1     5.632785     5A2     5.632786
      21A1     5.738930    13B1     6.280053    13B2     6.280053
      22A1     6.408438     6A2     6.408439    23A1     6.729000
      24A1     7.950940    14B1     8.311788    14B2     8.311788
      25A1    10.143577    26A1    25.337677

    Final Occupation by Irrep:
             A1    A2    B1    B2
    DOCC [     5,    0,    1,    1 ]
    SOCC [     0,    0,    0,    0 ]
    NA   [     5,    0,    1,    1 ]
    NB   [     5,    0,    1,    1 ]

  @DF-UKS Final Energy:  -128.74739049610506

   => Energetics <=

    Nuclear Repulsion Energy =             40.5138878715320701
    One-Electron Energy =                -247.1162305309940734
    Two-Electron Energy =                  90.5461556935794647
    DFT Exchange-Correlation Energy =     -12.6912035302224968
    Empirical Dispersion Energy =           0.0000000000000000
    VV10 Nonlocal Energy =                  0.0000000000000000
    Total Energy =                       -128.7473904961050550

  UHF NO Occupations:
  HONO-2 :    4 A1 2.0000000
  HONO-1 :    1 B1 2.0000000
  HONO-0 :    5 A1 2.0000000
  LUNO+0 :    6 A1 0.0000000
  LUNO+1 :    7 A1 0.0000000
  LUNO+2 :    8 A1 0.0000000
  LUNO+3 :    9 A1 0.0000000

Computation Completed

Properties will be evaluated at   0.000000,   0.000000,   0.000000 [a0]

Properties computed using the B3LYP density matrix

 Multipole Moments:

 ------------------------------------------------------------------------------------
     Multipole            Electronic (a.u.)      Nuclear  (a.u.)        Total (a.u.)
 ------------------------------------------------------------------------------------

 L = 1.  Multiply by 2.5417464519 to convert [e a0] to [Debye]
 Dipole X            :          0.0000000            0.0000000            0.0000000
 Dipole Y            :          0.0000000            0.0000000            0.0000000
 Dipole Z            :         -0.1030165           -0.0027734           -0.1057899
 Magnitude           :                                                    0.1057899

 L = 2.  Multiply by 1.3450342976 to convert [e a0^2] to [Debye ang]
 Quadrupole XX       :         -5.0902721            0.0000000           -5.0902721
 Quadrupole XY       :          0.0000000            0.0000000            0.0000000
 Quadrupole XZ       :          0.0000000            0.0000000            0.0000000
 Quadrupole YY       :         -5.0902721            0.0000000           -5.0902721
 Quadrupole YZ       :          0.0000000            0.0000000            0.0000000
 Quadrupole ZZ       :        -12.8187020            7.1328815           -5.6858205
 Traceless XX        :          2.5761433           -2.3776272            0.1985161
 Traceless YY        :          2.5761433           -2.3776272            0.1985161
 Traceless ZZ        :         -5.1522866            4.7552543           -0.3970322

 ------------------------------------------------------------------------------------
  ==> Computing MBIS Charges <==

  Electron Count from Grid (Expected Number): 14.00000 (14.00000)
  Difference:  0.00000

  MBIS Charges: (a.u.)
   Center  Symbol  Z      Pop.       Charge
      1       O    8    7.486038    0.513962
      2       N    7    6.513964    0.486036

  MBIS Dipoles: [e a0]
   Center  Symbol  Z        X           Y           Z
      1       O    8    0.000000    0.000000   -0.000584
      2       N    7   -0.000000    0.000000   -0.131794

  MBIS Quadrupoles: [e a0^2]
   Center  Symbol  Z      XX        XY        XZ        YY        YZ        ZZ
      1       O    8   -2.4630    0.0000    0.0000   -2.4630   -0.0000   -2.8155
      2       N    7   -2.6273   -0.0000    0.0000   -2.6273    0.0000   -3.1548

  MBIS Octupoles: [e a0^3]
   Center  Symbol  Z      XXX       XXY       XXZ       XYY       XYZ       XZZ       YYY       YYZ       YZZ       ZZZ
      1       O    8    0.0000    0.0000    0.0389    0.0000   -0.0000   -0.0000   -0.0000    0.0389    0.0000    0.1645
      2       N    7   -0.0000    0.0000   -0.1619   -0.0000   -0.0000    0.0000    0.0000   -0.1619    0.0000   -0.4812

  MBIS Radial Moments:
   Center  Symbol  Z      [a0^2]      [a0^3]      [a0^4]
      1       O    8    7.741517   12.306706   23.498422
      2       N    7    8.409316   15.277064   33.287389

  MBIS Valence Widths: [a0]
   Center  Symbol  Z     Width
      1       O    8    0.331020
      2       N    7    0.378177

*** tstop() called on Mac.lan at Sun Aug 10 18:41:38 2025
Module time:
	user time   =       5.16 seconds =       0.09 minutes
	system time =       2.58 seconds =       0.04 minutes
	total time  =          0 seconds =       0.00 minutes
Total time:
	user time   =      29.14 seconds =       0.49 minutes
	system time =       4.77 seconds =       0.08 minutes
	total time  =          3 seconds =       0.05 minutes

    Psi4 stopped on: Sunday, 10 August 2025 06:41PM
    Psi4 wall time for execution: 0:00:03.44

*** Psi4 exiting successfully. Buy a developer a beer!
