                               Psi4 1.9.1 release

  ==> Input File <==

--------------------------------------------------------------------------
molecule {
1 2
H           0.000000           0.000000           0.000000
H           0.000000           0.000000           1.281973
}

set {
basis              cc-pvtz
reference          uks
maxiter            500
DAMPING_PERCENTAGE 1
E_CONVERGENCE      1.0E-8
D_CONVERGENCE      1.0E-8
DIIS_MAX_VECS      400
MBIS_MAXITER       8000
guess              read
}

E, wfn = energy('b3lyp', restart_file='last_wfn', return_wfn=True)
properties('b3lyp','MBIS_CHARGES', wfn=wfn)
wfn.to_file('last_wfn')
--------------------------------------------------------------------------

    Molecular point group: d2h
  Charge       = 1
  Multiplicity = 2
  Basis Set: CC-PVTZ
    Blend: CC-PVTZ
  Basis Set: (CC-PVTZ AUX)
    Blend: CC-PVTZ-JKFIT
  @DF-UKS Final Energy:    -0.60730732515098
    Total Energy =                         -0.6073073251509808
 Dipole X            :          0.0000000            0.0000000            0.0000000
 Dipole Y            :          0.0000000            0.0000000            0.0000000
 Dipole Z            :          0.0000000            0.0000000            0.0000000
 Magnitude           :                                                    0.0000000
    Molecular point group: d2h

    Geometry (in Angstrom), charge = 1, multiplicity = 2:

       Center              X                  Y                   Z               Mass
    ------------   -----------------  -----------------  -----------------  -----------------
         H            0.000000000000     0.000000000000    -0.640986500000     1.007825032230
         H            0.000000000000     0.000000000000     0.640986500000     1.007825032230

  Charge       = 1
  Multiplicity = 2
  Basis Set: CC-PVTZ
    Blend: CC-PVTZ
  Basis Set: (CC-PVTZ AUX)
    Blend: CC-PVTZ-JKFIT

    Orbital Energies [Eh]
    ---------------------

    Alpha Occupied:

       1Ag    -0.846970

    Alpha Virtual:

       1B1u   -0.475519     2Ag    -0.071794     2B1u    0.020674
       1B2u    0.081006     1B3u    0.081006     3Ag     0.298496
       1B2g    0.420872     1B3g    0.420872     3B1u    0.836241
       4Ag     1.764717     4B1u    1.912031     5Ag     2.340723
       2B2u    2.345927     2B3u    2.345927     6Ag     2.581195
       1B1g    2.581195     5B1u    2.872455     1Au     2.872455
       3B2u    3.071569     3B3u    3.071569     2B3g    3.116353
       2B2g    3.116353     6B1u    3.280374     3B2g    3.569832
       3B3g    3.569832     7Ag     3.701355     7B1u    4.776179

    Beta Occupied:

    Beta Virtual:

       1Ag    -0.523038     1B1u   -0.271528     2Ag     0.020795
       2B1u    0.131662     1B2u    0.218124     1B3u    0.218124
       3Ag     0.444235     1B3g    0.539935     1B2g    0.539935
       3B1u    0.962407     4Ag     2.071906     4B1u    2.202131
       2B2u    2.543039     2B3u    2.543039     5Ag     2.582058
       1B1g    2.765605     6Ag     2.765606     1Au     3.055938
       5B1u    3.055940     3B3u    3.322393     3B2u    3.322393
       2B2g    3.371975     2B3g    3.371975     6B1u    3.526141
       3B2g    3.760644     3B3g    3.760644     7Ag     3.933761
       7B1u    4.999783

    Final Occupation by Irrep:
             Ag   B1g   B2g   B3g    Au   B1u   B2u   B3u
    DOCC [     0,    0,    0,    0,    0,    0,    0,    0 ]
    SOCC [     1,    0,    0,    0,    0,    0,    0,    0 ]
    NA   [     1,    0,    0,    0,    0,    0,    0,    0 ]
    NB   [     0,    0,    0,    0,    0,    0,    0,    0 ]

  @DF-UKS Final Energy:    -0.60730732511604

   => Energetics <=

    Nuclear Repulsion Energy =              0.4127834288787672
    One-Electron Energy =                  -1.0069048086758174
    Two-Electron Energy =                   0.2406554118293235
    DFT Exchange-Correlation Energy =      -0.2538413571483126
    Empirical Dispersion Energy =           0.0000000000000000
    VV10 Nonlocal Energy =                  0.0000000000000000
    Total Energy =                         -0.6073073251160392

  UHF NO Occupations:
  HONO-0 :    1 Ag 1.0000000
  LUNO+0 :    2 Ag 0.0000000
  LUNO+1 :    3 Ag 0.0000000
  LUNO+2 :    3B3u 0.0000000
  LUNO+3 :    2B3u 0.0000000

Computation Completed

Properties will be evaluated at   0.000000,   0.000000,   0.000000 [a0]

Properties computed using the B3LYP density matrix

 Multipole Moments:

 ------------------------------------------------------------------------------------
     Multipole            Electronic (a.u.)      Nuclear  (a.u.)        Total (a.u.)
 ------------------------------------------------------------------------------------

 L = 1.  Multiply by 2.5417464519 to convert [e a0] to [Debye]
 Dipole X            :          0.0000000            0.0000000            0.0000000
 Dipole Y            :          0.0000000            0.0000000            0.0000000
 Dipole Z            :          0.0000000            0.0000000            0.0000000
 Magnitude           :                                                    0.0000000

 L = 2.  Multiply by 1.3450342976 to convert [e a0^2] to [Debye ang]
 Quadrupole XX       :         -0.6966439            0.0000000           -0.6966439
 Quadrupole XY       :          0.0000000            0.0000000            0.0000000
 Quadrupole XZ       :          0.0000000            0.0000000            0.0000000
 Quadrupole YY       :         -0.6966439            0.0000000           -0.6966439
 Quadrupole YZ       :          0.0000000            0.0000000            0.0000000
 Quadrupole ZZ       :         -1.5627255            2.9344418            1.3717163
 Traceless XX        :          0.2886939           -0.9781473           -0.6894534
 Traceless YY        :          0.2886939           -0.9781473           -0.6894534
 Traceless ZZ        :         -0.5773878            1.9562945            1.3789068

 ------------------------------------------------------------------------------------
  ==> Computing MBIS Charges <==

  Electron Count from Grid (Expected Number):  1.00000 ( 1.00000)
  Difference:  0.00000

  MBIS Charges: (a.u.)
   Center  Symbol  Z      Pop.       Charge
      1       H    1    0.500000    0.500000
      2       H    1    0.500000    0.500000

  MBIS Dipoles: [e a0]
   Center  Symbol  Z        X           Y           Z
      1       H    1    0.000000   -0.000000   -0.124830
      2       H    1    0.000000    0.000000    0.124830

  MBIS Quadrupoles: [e a0^2]
   Center  Symbol  Z      XX        XY        XZ        YY        YZ        ZZ
      1       H    1   -0.3483   -0.0000   -0.0000   -0.3483   -0.0000   -0.3502
      2       H    1   -0.3483   -0.0000    0.0000   -0.3483    0.0000   -0.3502

  MBIS Octupoles: [e a0^3]
   Center  Symbol  Z      XXX       XXY       XXZ       XYY       XYZ       XZZ       YYY       YYZ       YZZ       ZZZ
      1       H    1    0.0000   -0.0000   -0.0936    0.0000    0.0000    0.0000   -0.0000   -0.0936    0.0000   -0.2054
      2       H    1    0.0000   -0.0000    0.0936    0.0000   -0.0000    0.0000   -0.0000    0.0936    0.0000    0.2054

  MBIS Radial Moments:
   Center  Symbol  Z      [a0^2]      [a0^3]      [a0^4]
      1       H    1    1.046807    2.095852    4.976709
      2       H    1    1.046807    2.095852    4.976709

  MBIS Valence Widths: [a0]
   Center  Symbol  Z     Width
      1       H    1    0.425349
      2       H    1    0.425349

*** tstop() called on Mac.lan at Sun Aug 10 18:11:40 2025
Module time:
	user time   =       0.54 seconds =       0.01 minutes
	system time =       1.36 seconds =       0.02 minutes
	total time  =          0 seconds =       0.00 minutes
Total time:
	user time   =       1.12 seconds =       0.02 minutes
	system time =       3.60 seconds =       0.06 minutes
	total time  =          0 seconds =       0.00 minutes

    Psi4 stopped on: Sunday, 10 August 2025 06:11PM
    Psi4 wall time for execution: 0:00:00.62

*** Psi4 exiting successfully. Buy a developer a beer!
