                               Psi4 1.9.1 release

  ==> Input File <==

--------------------------------------------------------------------------
molecule {
1 1
C           0.000000           0.000000           0.000000
H           0.000000           0.000000           1.475410
}

set {
basis              cc-pvtz
reference          uks
maxiter            500
DAMPING_PERCENTAGE 1
E_CONVERGENCE      1.0E-8
D_CONVERGENCE      1.0E-8
DIIS_MAX_VECS      400
MBIS_MAXITER       8000
guess              read
}

E, wfn = energy('b3lyp', restart_file='last_wfn', return_wfn=True)
properties('b3lyp','MBIS_CHARGES', wfn=wfn)
wfn.to_file('last_wfn')
--------------------------------------------------------------------------

    Molecular point group: c2v
  Charge       = 1
  Multiplicity = 1
  Basis Set: CC-PVTZ
    Blend: CC-PVTZ
  Basis Set: (CC-PVTZ AUX)
    Blend: CC-PVTZ-JKFIT
  @DF-UKS Final Energy:   -38.06046781344676
    Total Energy =                        -38.0604678134467704
 Dipole X            :          0.0000000            0.0000000            0.0000000
 Dipole Y            :          0.0000000            0.0000000            0.0000000
 Dipole Z            :         -0.5088161            1.2759875            0.7671714
 Magnitude           :                                                    0.7671714
    Molecular point group: c2v

    Geometry (in Angstrom), charge = 1, multiplicity = 1:

       Center              X                  Y                   Z               Mass
    ------------   -----------------  -----------------  -----------------  -----------------
         C            0.000000000000     0.000000000000    -0.114312356379    12.000000000000
         H            0.000000000000     0.000000000000     1.361097643621     1.007825032230

  Charge       = 1
  Multiplicity = 1
  Basis Set: CC-PVTZ
    Blend: CC-PVTZ
  Basis Set: (CC-PVTZ AUX)
    Blend: CC-PVTZ-JKFIT

    Orbital Energies [Eh]
    ---------------------

    Alpha Occupied:

       1A1   -10.805423     2A1    -0.980407     3A1    -0.689146

    Alpha Virtual:

       1B2    -0.532631     1B1    -0.532631     4A1    -0.325750
       5A1    -0.012715     2B1     0.010515     2B2     0.010515
       6A1     0.036515     7A1     0.158957     3B2     0.217482
       3B1     0.217482     8A1     0.329841     1A2     0.329841
       9A1     0.534629     4B2     0.620708     4B1     0.620708
      10A1     0.886951     5B1     1.522874     5B2     1.522874
      11A1     1.716383    12A1     2.086744     6B1     2.168241
       6B2     2.168241     2A2     2.208648    13A1     2.208649
      14A1     2.244627     7B2     2.260164     7B1     2.260164
       3A2     2.493840    15A1     2.493840     8B2     2.585939
       8B1     2.585939    16A1     2.790051     4A2     2.957198
      17A1     2.957200    18A1     3.239323     9B2     3.290034
       9B1     3.290034    10B1     3.650697    10B2     3.650697
      19A1     3.826713    20A1     5.275181

    Beta Occupied:

       1A1   -10.805423     2A1    -0.980407     3A1    -0.689146

    Beta Virtual:

       1B2    -0.532631     1B1    -0.532631     4A1    -0.325750
       5A1    -0.012715     2B1     0.010515     2B2     0.010515
       6A1     0.036515     7A1     0.158957     3B2     0.217482
       3B1     0.217482     8A1     0.329841     1A2     0.329841
       9A1     0.534629     4B2     0.620708     4B1     0.620708
      10A1     0.886951     5B1     1.522874     5B2     1.522874
      11A1     1.716383    12A1     2.086744     6B1     2.168241
       6B2     2.168241     2A2     2.208648    13A1     2.208649
      14A1     2.244627     7B2     2.260164     7B1     2.260164
       3A2     2.493840    15A1     2.493840     8B2     2.585939
       8B1     2.585939    16A1     2.790051     4A2     2.957198
      17A1     2.957200    18A1     3.239323     9B2     3.290034
       9B1     3.290034    10B1     3.650697    10B2     3.650697
      19A1     3.826713    20A1     5.275181

    Final Occupation by Irrep:
             A1    A2    B1    B2
    DOCC [     3,    0,    0,    0 ]
    SOCC [     0,    0,    0,    0 ]
    NA   [     3,    0,    0,    0 ]
    NB   [     3,    0,    0,    0 ]

  @DF-UKS Final Energy:   -38.06046781351097

   => Energetics <=

    Nuclear Repulsion Energy =              2.1519870842816573
    One-Electron Energy =                 -52.4398773336003288
    Two-Electron Energy =                  16.4239198906984676
    DFT Exchange-Correlation Energy =      -4.1964974548907614
    Empirical Dispersion Energy =           0.0000000000000000
    VV10 Nonlocal Energy =                  0.0000000000000000
    Total Energy =                        -38.0604678135109680

  UHF NO Occupations:
  HONO-2 :    1 A1 2.0000000
  HONO-1 :    2 A1 2.0000000
  HONO-0 :    3 A1 2.0000000
  LUNO+0 :    4 A1 0.0000000
  LUNO+1 :    5 A1 0.0000000
  LUNO+2 :    6 A1 0.0000000
  LUNO+3 :    7 A1 0.0000000

Computation Completed

Properties will be evaluated at   0.000000,   0.000000,   0.000000 [a0]

Properties computed using the B3LYP density matrix

 Multipole Moments:

 ------------------------------------------------------------------------------------
     Multipole            Electronic (a.u.)      Nuclear  (a.u.)        Total (a.u.)
 ------------------------------------------------------------------------------------

 L = 1.  Multiply by 2.5417464519 to convert [e a0] to [Debye]
 Dipole X            :          0.0000000            0.0000000            0.0000000
 Dipole Y            :          0.0000000            0.0000000            0.0000000
 Dipole Z            :         -0.5088161            1.2759875            0.7671714
 Magnitude           :                                                    0.7671714

 L = 2.  Multiply by 1.3450342976 to convert [e a0^2] to [Debye ang]
 Quadrupole XX       :         -3.1165123            0.0000000           -3.1165123
 Quadrupole XY       :          0.0000000            0.0000000            0.0000000
 Quadrupole XZ       :          0.0000000            0.0000000            0.0000000
 Quadrupole YY       :         -3.1165123            0.0000000           -3.1165123
 Quadrupole YZ       :          0.0000000            0.0000000            0.0000000
 Quadrupole ZZ       :         -9.1204046            6.8956929           -2.2247116
 Traceless XX        :          2.0012974           -2.2985643           -0.2972669
 Traceless YY        :          2.0012974           -2.2985643           -0.2972669
 Traceless ZZ        :         -4.0025948            4.5971286            0.5945338

 ------------------------------------------------------------------------------------
  ==> Computing MBIS Charges <==

  Electron Count from Grid (Expected Number):  6.00000 ( 6.00000)
  Difference:  0.00000

  MBIS Charges: (a.u.)
   Center  Symbol  Z      Pop.       Charge
      1       C    6    5.238967    0.761033
      2       H    1    0.761033    0.238967

  MBIS Dipoles: [e a0]
   Center  Symbol  Z        X           Y           Z
      1       C    6   -0.000000   -0.000000    0.164480
      2       H    1   -0.000000    0.000000    0.152441

  MBIS Quadrupoles: [e a0^2]
   Center  Symbol  Z      XX        XY        XZ        YY        YZ        ZZ
      1       C    6   -2.6156   -0.0000   -0.0000   -2.6156    0.0000   -4.0402
      2       H    1   -0.5009   -0.0000   -0.0000   -0.5009    0.0000   -0.5140

  MBIS Octupoles: [e a0^3]
   Center  Symbol  Z      XXX       XXY       XXZ       XYY       XYZ       XZZ       YYY       YYZ       YZZ       ZZZ
      1       C    6    0.0000    0.0000    0.1762   -0.0000   -0.0000    0.0000    0.0000    0.1762    0.0000    0.4448
      2       H    1   -0.0000    0.0000    0.0525   -0.0000   -0.0000   -0.0000    0.0000    0.0525    0.0000    0.2004

  MBIS Radial Moments:
   Center  Symbol  Z      [a0^2]      [a0^3]      [a0^4]
      1       C    6    9.271390   20.047657   51.567757
      2       H    1    1.515923    2.948762    6.826967

  MBIS Valence Widths: [a0]
   Center  Symbol  Z     Width
      1       C    6    0.470641
      2       H    1    0.416393

*** tstop() called on Mac.lan at Sun Aug 10 18:27:38 2025
Module time:
	user time   =       2.82 seconds =       0.05 minutes
	system time =       1.57 seconds =       0.03 minutes
	total time  =          1 seconds =       0.02 minutes
Total time:
	user time   =      11.79 seconds =       0.20 minutes
	system time =       4.12 seconds =       0.07 minutes
	total time  =          2 seconds =       0.03 minutes

    Psi4 stopped on: Sunday, 10 August 2025 06:27PM
    Psi4 wall time for execution: 0:00:01.58

*** Psi4 exiting successfully. Buy a developer a beer!
