                               Psi4 1.9.1 release

  ==> Input File <==

--------------------------------------------------------------------------
molecule {
1 4
C           0.000000           0.000000           0.000000
C           0.000000           0.000000           1.819354
}

set {
basis              cc-pvtz
reference          uks
maxiter            500
DAMPING_PERCENTAGE 1
E_CONVERGENCE      1.0E-8
D_CONVERGENCE      1.0E-8
DIIS_MAX_VECS      400
MBIS_MAXITER       8000
guess              read
}

E, wfn = energy('b3lyp', restart_file='last_wfn', return_wfn=True)
properties('b3lyp','MBIS_CHARGES', wfn=wfn)
wfn.to_file('last_wfn')
--------------------------------------------------------------------------

    Molecular point group: d2h
  Charge       = 1
  Multiplicity = 4
  Basis Set: CC-PVTZ
    Blend: CC-PVTZ
  Basis Set: (CC-PVTZ AUX)
    Blend: CC-PVTZ-JKFIT
  @DF-UKS Final Energy:   -75.45051965958370
    Total Energy =                        -75.4505196595837049
 Dipole X            :          0.0000000            0.0000000            0.0000000
 Dipole Y            :          0.0000000            0.0000000            0.0000000
 Dipole Z            :          0.0000000           -0.0000000           -0.0000000
 Magnitude           :                                                    0.0000000
    Molecular point group: d2h

    Geometry (in Angstrom), charge = 1, multiplicity = 4:

       Center              X                  Y                   Z               Mass
    ------------   -----------------  -----------------  -----------------  -----------------
         C            0.000000000000     0.000000000000    -0.909677000000    12.000000000000
         C            0.000000000000     0.000000000000     0.909677000000    12.000000000000

  Charge       = 1
  Multiplicity = 4
  Basis Set: CC-PVTZ
    Blend: CC-PVTZ
  Basis Set: (CC-PVTZ AUX)
    Blend: CC-PVTZ-JKFIT

    Orbital Energies [Eh]
    ---------------------

    Alpha Occupied:

       1Ag   -10.724150     1B1u  -10.724000     2Ag    -1.050410
       2B1u   -0.863105     3Ag    -0.672631     1B3u   -0.631949
       1B2u   -0.631949

    Alpha Virtual:

       1B3g   -0.475787     1B2g   -0.475787     3B1u   -0.308880
       4B1u    0.017760     2B2u    0.021266     2B3u    0.021266
       4Ag     0.045997     5Ag     0.057634     2B3g    0.094065
       2B2g    0.094065     6Ag     0.272987     1B1g    0.272987
       3B3u    0.274654     3B2u    0.274654     5B1u    0.335650
       6B1u    0.450270     1Au     0.450270     7Ag     0.660641
       3B3g    0.721330     3B2g    0.721330     7B1u    0.828460
       4B3u    1.510170     4B2u    1.510170     8Ag     1.557648
       4B2g    1.635795     4B3g    1.635795     5B3u    2.058916
       5B2u    2.058916     8B1u    2.060855     9Ag     2.072610
      10Ag     2.102828     2B1g    2.102829     6B2u    2.259977
       6B3u    2.259977     5B3g    2.330880     5B2g    2.330880
       9B1u    2.475780     2Au     2.475783    11Ag     2.509509
       3B1g    2.509518     6B2g    2.617810     6B3g    2.617810
       7B3u    2.646158     7B2u    2.646158    10B1u    2.650556
       3Au     2.650563    11B1u    2.694660    12Ag     3.035549
      12B1u    3.079222     7B2g    3.191742     7B3g    3.191742
      13Ag     3.601815    13B1u    4.905858

    Beta Occupied:

       1Ag   -10.700066     1B1u  -10.700050     2Ag    -0.957429
       2B1u   -0.751910

    Beta Virtual:

       3Ag    -0.507677     1B3u   -0.485913     1B2u   -0.485913
       1B3g   -0.377617     1B2g   -0.377617     3B1u   -0.225017
       4B1u    0.048359     2B2u    0.050704     2B3u    0.050704
       4Ag     0.081422     5Ag     0.085418     2B3g    0.116811
       2B2g    0.116811     1B1g    0.320739     6Ag     0.320740
       3B3u    0.332604     3B2u    0.332604     5B1u    0.365068
       1Au     0.494824     6B1u    0.494824     7Ag     0.720423
       3B3g    0.768354     3B2g    0.768354     7B1u    0.871805
       4B3u    1.566322     4B2u    1.566322     8Ag     1.617098
       4B2g    1.690039     4B3g    1.690039     5B3u    2.119833
       5B2u    2.119833     8B1u    2.122079     9Ag     2.134193
      10Ag     2.169941     2B1g    2.169942     6B2u    2.323272
       6B3u    2.323272     5B3g    2.393775     5B2g    2.393775
       9B1u    2.540962     2Au     2.540966    11Ag     2.589473
       3B1g    2.589482     6B2g    2.692561     6B3g    2.692561
      10B1u    2.729736     3Au     2.729743     7B3u    2.730656
       7B2u    2.730656    11B1u    2.772206    12Ag     3.107259
      12B1u    3.136288     7B2g    3.261816     7B3g    3.261816
      13Ag     3.656590    13B1u    4.953329

    Final Occupation by Irrep:
             Ag   B1g   B2g   B3g    Au   B1u   B2u   B3u
    DOCC [     2,    0,    0,    0,    0,    2,    0,    0 ]
    SOCC [     1,    0,    0,    0,    0,    0,    1,    1 ]
    NA   [     3,    0,    0,    0,    0,    2,    1,    1 ]
    NB   [     2,    0,    0,    0,    0,    2,    0,    0 ]

  @DF-UKS Final Energy:   -75.45051966134450

   => Energetics <=

    Nuclear Repulsion Energy =             10.4709581445502096
    One-Electron Energy =                -117.5542360595459286
    Two-Electron Energy =                  39.7802028617639678
    DFT Exchange-Correlation Energy =      -8.1474446081127461
    Empirical Dispersion Energy =           0.0000000000000000
    VV10 Nonlocal Energy =                  0.0000000000000000
    Total Energy =                        -75.4505196613445008

  UHF NO Occupations:
  HONO-2 :    1B3u 1.0000000
  HONO-1 :    3 Ag 1.0000000
  HONO-0 :    1B2u 1.0000000
  LUNO+0 :    3B1u 0.0020135
  LUNO+1 :    4 Ag 0.0001755
  LUNO+2 :    4B1u 0.0000008
  LUNO+3 :    5 Ag 0.0000006

Computation Completed

Properties will be evaluated at   0.000000,   0.000000,   0.000000 [a0]

Properties computed using the B3LYP density matrix

 Multipole Moments:

 ------------------------------------------------------------------------------------
     Multipole            Electronic (a.u.)      Nuclear  (a.u.)        Total (a.u.)
 ------------------------------------------------------------------------------------

 L = 1.  Multiply by 2.5417464519 to convert [e a0] to [Debye]
 Dipole X            :          0.0000000            0.0000000            0.0000000
 Dipole Y            :          0.0000000            0.0000000            0.0000000
 Dipole Z            :          0.0000000           -0.0000000           -0.0000000
 Magnitude           :                                                    0.0000000

 L = 2.  Multiply by 1.3450342976 to convert [e a0^2] to [Debye ang]
 Quadrupole XX       :         -6.9005988            0.0000000           -6.9005988
 Quadrupole XY       :          0.0000000            0.0000000            0.0000000
 Quadrupole XZ       :          0.0000000            0.0000000            0.0000000
 Quadrupole YY       :         -6.9005988            0.0000000           -6.9005988
 Quadrupole YZ       :          0.0000000            0.0000000            0.0000000
 Quadrupole ZZ       :        -38.7844166           35.4611985           -3.3232181
 Traceless XX        :         10.6279393          -11.8203995           -1.1924602
 Traceless YY        :         10.6279393          -11.8203995           -1.1924602
 Traceless ZZ        :        -21.2558786           23.6407990            2.3849204

 ------------------------------------------------------------------------------------
  ==> Computing MBIS Charges <==

  Electron Count from Grid (Expected Number): 11.00000 (11.00000)
  Difference: -0.00000

  MBIS Charges: (a.u.)
   Center  Symbol  Z      Pop.       Charge
      1       C    6    5.500000    0.500000
      2       C    6    5.500000    0.500000

  MBIS Dipoles: [e a0]
   Center  Symbol  Z        X           Y           Z
      1       C    6   -0.000000    0.000000   -0.182711
      2       C    6   -0.000000    0.000000    0.182711

  MBIS Quadrupoles: [e a0^2]
   Center  Symbol  Z      XX        XY        XZ        YY        YZ        ZZ
      1       C    6   -3.4503    0.0000    0.0000   -3.4503   -0.0000   -3.7673
      2       C    6   -3.4503    0.0000   -0.0000   -3.4503    0.0000   -3.7673

  MBIS Octupoles: [e a0^3]
   Center  Symbol  Z      XXX       XXY       XXZ       XYY       XYZ       XZZ       YYY       YYZ       YZZ       ZZZ
      1       C    6   -0.0000    0.0000   -0.2844   -0.0000   -0.0000   -0.0000    0.0000   -0.2844    0.0000   -0.9246
      2       C    6   -0.0000    0.0000    0.2844   -0.0000    0.0000   -0.0000    0.0000    0.2844    0.0000    0.9246

  MBIS Radial Moments:
   Center  Symbol  Z      [a0^2]      [a0^3]      [a0^4]
      1       C    6   10.667935   24.117263   64.888737
      2       C    6   10.667935   24.117263   64.888737

  MBIS Valence Widths: [a0]
   Center  Symbol  Z     Width
      1       C    6    0.487318
      2       C    6    0.487318

*** tstop() called on Mac.lan at Sun Aug 10 18:23:16 2025
Module time:
	user time   =       4.10 seconds =       0.07 minutes
	system time =       2.21 seconds =       0.04 minutes
	total time  =          1 seconds =       0.02 minutes
Total time:
	user time   =      15.27 seconds =       0.25 minutes
	system time =       4.35 seconds =       0.07 minutes
	total time  =          2 seconds =       0.03 minutes

    Psi4 stopped on: Sunday, 10 August 2025 06:23PM
    Psi4 wall time for execution: 0:00:01.94

*** Psi4 exiting successfully. Buy a developer a beer!
