                               Psi4 1.9.1 release

  ==> Input File <==

--------------------------------------------------------------------------
molecule {
1 2
O           0.000000           0.000000           0.000000
C           0.000000           0.000000           1.399948
}

set {
basis              cc-pvtz
reference          uks
maxiter            500
DAMPING_PERCENTAGE 1
E_CONVERGENCE      1.0E-8
D_CONVERGENCE      1.0E-8
DIIS_MAX_VECS      400
MBIS_MAXITER       8000
guess              read
}

E, wfn = energy('b3lyp', restart_file='last_wfn', return_wfn=True)
properties('b3lyp','MBIS_CHARGES', wfn=wfn)
wfn.to_file('last_wfn')
--------------------------------------------------------------------------

    Molecular point group: c2v
  Charge       = 1
  Multiplicity = 2
  Basis Set: CC-PVTZ
    Blend: CC-PVTZ
  Basis Set: (CC-PVTZ AUX)
    Blend: CC-PVTZ-JKFIT
  @DF-UKS Final Energy:  -112.73328950378686
    Total Energy =                       -112.7332895037868639
 Dipole X            :          0.0000000            0.0000000            0.0000000
 Dipole Y            :          0.0000000            0.0000000            0.0000000
 Dipole Z            :          1.1825010           -0.0028834            1.1796176
 Magnitude           :                                                    1.1796176
    Molecular point group: c2v

    Geometry (in Angstrom), charge = 1, multiplicity = 2:

       Center              X                  Y                   Z               Mass
    ------------   -----------------  -----------------  -----------------  -----------------
         O            0.000000000000     0.000000000000    -0.600086702470    15.994914619570
         C            0.000000000000     0.000000000000     0.799861297530    12.000000000000

  Charge       = 1
  Multiplicity = 2
  Basis Set: CC-PVTZ
    Blend: CC-PVTZ
  Basis Set: (CC-PVTZ AUX)
    Blend: CC-PVTZ-JKFIT

    Orbital Energies [Eh]
    ---------------------

    Alpha Occupied:

       1A1   -19.670328     2A1   -10.851409     3A1    -1.432800
       4A1    -1.001031     5A1    -0.843276     1B1    -0.778944
       1B2    -0.778944

    Alpha Virtual:

       2B1    -0.513988     2B2    -0.513988     6A1    -0.236508
       7A1    -0.009177     8A1    -0.001718     3B1     0.002597
       3B2     0.002597     9A1     0.244631     1A2     0.294777
      10A1     0.294777     4B1     0.310951     4B2     0.310951
       5B1     0.423582     5B2     0.423582    11A1     0.680844
      12A1     0.870236    13A1     1.123983     2A2     1.123983
       6B1     1.324260     6B2     1.324260     7B2     1.598433
       7B1     1.598433    14A1     1.618640    15A1     1.745191
       8B1     2.230901     8B2     2.230901     3A2     2.288681
      16A1     2.288682     9B1     2.437559     9B2     2.437559
       4A2     2.465854    17A1     2.465856    18A1     2.558208
      10B1     2.694173    10B2     2.694173    19A1     2.746715
      20A1     3.370081    11B1     3.402215    11B2     3.402215
      12B2     4.716552    12B1     4.716552    21A1     4.829982
       5A2     4.829983    22A1     4.842457    13B1     5.211012
      13B2     5.211012    23A1     5.725299     6A2     5.801305
      24A1     5.801324    14B1     6.199239    14B2     6.199239
      25A1     6.791946    26A1     8.558136

    Beta Occupied:

       1A1   -19.666938     2A1   -10.831876     3A1    -1.417334
       4A1    -0.933587     1B1    -0.780204     1B2    -0.780204

    Beta Virtual:

       5A1    -0.660382     2B1    -0.480044     2B2    -0.480044
       6A1    -0.191117     7A1     0.002161     3B1     0.011984
       3B2     0.011984     8A1     0.042598     9A1     0.259680
       4B1     0.312770     4B2     0.312770     1A2     0.312775
      10A1     0.312776     5B1     0.452125     5B2     0.452125
      11A1     0.719990    12A1     0.878253    13A1     1.119648
       2A2     1.119648     6B1     1.349066     6B2     1.349066
       7B2     1.617658     7B1     1.617658    14A1     1.650019
      15A1     1.801758     8B1     2.259647     8B2     2.259647
       3A2     2.319880    16A1     2.319880     9B1     2.481087
       9B2     2.481087     4A2     2.512218    17A1     2.512220
      18A1     2.613715    10B1     2.756409    10B2     2.756409
      19A1     2.822340    11B1     3.403031    11B2     3.403031
      20A1     3.409495    12B2     4.702824    12B1     4.702824
      21A1     4.836723     5A2     4.836725    22A1     4.863554
      13B1     5.233178    13B2     5.233178    23A1     5.768595
       6A2     5.785134    24A1     5.785154    14B1     6.224151
      14B2     6.224151    25A1     6.822512    26A1     8.568948

    Final Occupation by Irrep:
             A1    A2    B1    B2
    DOCC [     4,    0,    1,    1 ]
    SOCC [     1,    0,    0,    0 ]
    NA   [     5,    0,    1,    1 ]
    NB   [     4,    0,    1,    1 ]

  @DF-UKS Final Energy:  -112.73328950358176

   => Energetics <=

    Nuclear Repulsion Energy =             18.1438925675525127
    One-Electron Energy =                -184.2429755060191496
    Two-Electron Energy =                  64.1207002847768308
    DFT Exchange-Correlation Energy =     -10.7549068498919489
    Empirical Dispersion Energy =           0.0000000000000000
    VV10 Nonlocal Energy =                  0.0000000000000000
    Total Energy =                       -112.7332895035817586

  UHF NO Occupations:
  HONO-2 :    1 B1 1.9932090
  HONO-1 :    1 B2 1.9932090
  HONO-0 :    5 A1 1.0000000
  LUNO+0 :    2 B2 0.0067910
  LUNO+1 :    2 B1 0.0067910
  LUNO+2 :    6 A1 0.0026266
  LUNO+3 :    7 A1 0.0000857

Computation Completed

Properties will be evaluated at   0.000000,   0.000000,   0.000000 [a0]

Properties computed using the B3LYP density matrix

 Multipole Moments:

 ------------------------------------------------------------------------------------
     Multipole            Electronic (a.u.)      Nuclear  (a.u.)        Total (a.u.)
 ------------------------------------------------------------------------------------

 L = 1.  Multiply by 2.5417464519 to convert [e a0] to [Debye]
 Dipole X            :          0.0000000            0.0000000            0.0000000
 Dipole Y            :          0.0000000            0.0000000            0.0000000
 Dipole Z            :          1.1825012           -0.0028834            1.1796178
 Magnitude           :                                                    1.1796178

 L = 2.  Multiply by 1.3450342976 to convert [e a0^2] to [Debye ang]
 Quadrupole XX       :         -6.4118350            0.0000000           -6.4118350
 Quadrupole XY       :          0.0000000            0.0000000            0.0000000
 Quadrupole XZ       :          0.0000000            0.0000000            0.0000000
 Quadrupole YY       :         -6.4118350            0.0000000           -6.4118350
 Quadrupole YZ       :          0.0000000            0.0000000            0.0000000
 Quadrupole ZZ       :        -27.0449852           23.9957736           -3.0492116
 Traceless XX        :          6.8777168           -7.9985912           -1.1208744
 Traceless YY        :          6.8777168           -7.9985912           -1.1208744
 Traceless ZZ        :        -13.7554335           15.9971824            2.2417489

 ------------------------------------------------------------------------------------
  ==> Computing MBIS Charges <==

  Electron Count from Grid (Expected Number): 13.00000 (13.00000)
  Difference: -0.00000

  MBIS Charges: (a.u.)
   Center  Symbol  Z      Pop.       Charge
      1       O    8    7.940995    0.059005
      2       C    6    5.059005    0.940995

  MBIS Dipoles: [e a0]
   Center  Symbol  Z        X           Y           Z
      1       O    8    0.000000   -0.000000   -0.338098
      2       C    6   -0.000000    0.000000    0.162295

  MBIS Quadrupoles: [e a0^2]
   Center  Symbol  Z      XX        XY        XZ        YY        YZ        ZZ
      1       O    8   -3.6150   -0.0000   -0.0000   -3.6150   -0.0000   -3.5764
      2       C    6   -2.7968   -0.0000    0.0000   -2.7968    0.0000   -2.9560

  MBIS Octupoles: [e a0^3]
   Center  Symbol  Z      XXX       XXY       XXZ       XYY       XYZ       XZZ       YYY       YYZ       YZZ       ZZZ
      1       O    8   -0.0000   -0.0000   -0.3216   -0.0000    0.0000    0.0000   -0.0000   -0.3216    0.0000   -0.9266
      2       C    6   -0.0000    0.0000    0.2983   -0.0000    0.0000    0.0000    0.0000    0.2983    0.0000    0.5472

  MBIS Radial Moments:
   Center  Symbol  Z      [a0^2]      [a0^3]      [a0^4]
      1       O    8   10.806421   19.714903   42.953985
      2       C    6    8.549649   18.306778   46.621589

  MBIS Valence Widths: [a0]
   Center  Symbol  Z     Width
      1       O    8    0.380286
      2       C    6    0.462843

*** tstop() called on Mac.lan at Sun Aug 10 18:38:22 2025
Module time:
	user time   =       3.71 seconds =       0.06 minutes
	system time =       2.28 seconds =       0.04 minutes
	total time  =          1 seconds =       0.02 minutes
Total time:
	user time   =      20.32 seconds =       0.34 minutes
	system time =       4.64 seconds =       0.08 minutes
	total time  =          3 seconds =       0.05 minutes

    Psi4 stopped on: Sunday, 10 August 2025 06:38PM
    Psi4 wall time for execution: 0:00:02.42

*** Psi4 exiting successfully. Buy a developer a beer!
