                               Psi4 1.9.1 release

  ==> Input File <==

--------------------------------------------------------------------------
molecule {
1 3
O           0.000000           0.000000           0.000000
H           0.000000           0.000000           0.680209
}

set {
basis              cc-pvtz
reference          uks
maxiter            500
DAMPING_PERCENTAGE 1
E_CONVERGENCE      1.0E-8
D_CONVERGENCE      1.0E-8
DIIS_MAX_VECS      400
MBIS_MAXITER       8000
guess              read
}

E, wfn = energy('b3lyp', restart_file='last_wfn', return_wfn=True)
properties('b3lyp','MBIS_CHARGES', wfn=wfn)
wfn.to_file('last_wfn')
--------------------------------------------------------------------------

    Molecular point group: c2v
  Charge       = 1
  Multiplicity = 3
  Basis Set: CC-PVTZ
    Blend: CC-PVTZ
  Basis Set: (CC-PVTZ AUX)
    Blend: CC-PVTZ-JKFIT
  @DF-UKS Final Energy:   -75.08348781893672
    Total Energy =                        -75.0834878189367032
 Dipole X            :          0.0000000            0.0000000            0.0000000
 Dipole Y            :          0.0000000            0.0000000            0.0000000
 Dipole Z            :          0.0200376            0.5996837            0.6197213
 Magnitude           :                                                    0.6197213
    Molecular point group: c2v

    Geometry (in Angstrom), charge = 1, multiplicity = 3:

       Center              X                  Y                   Z               Mass
    ------------   -----------------  -----------------  -----------------  -----------------
         O            0.000000000000     0.000000000000    -0.040318893978    15.994914619570
         H            0.000000000000     0.000000000000     0.639890106022     1.007825032230

  Charge       = 1
  Multiplicity = 3
  Basis Set: CC-PVTZ
    Blend: CC-PVTZ
  Basis Set: (CC-PVTZ AUX)
    Blend: CC-PVTZ-JKFIT

    Orbital Energies [Eh]
    ---------------------

    Alpha Occupied:

       1A1   -19.841462     2A1    -1.735585     3A1    -1.080749
       1B2    -1.002910     1B1    -1.002910

    Alpha Virtual:

       4A1    -0.232900     5A1     0.124341     2B1     0.126042
       2B2     0.126042     6A1     0.173357     3B1     0.350545
       3B2     0.350545     7A1     0.416763     8A1     0.889613
       1A2     0.889613     9A1     1.194082     4B2     1.367511
       4B1     1.367511    10A1     1.494314    11A1     2.232933
       5B2     2.854575     5B1     2.854575     2A2     2.854667
      12A1     2.854667     6B1     3.097023     6B2     3.097023
      13A1     3.445310     7B2     3.905794     7B1     3.905794
      14A1     4.067861     8B1     4.454852     8B2     4.454852
      15A1     5.185323    16A1     5.245117     3A2     5.245117
      17A1     5.457448     4A2     5.457448     9B2     5.603971
       9B1     5.603971    18A1     6.936627    19A1     7.134558
      10B2     7.456330    10B1     7.456330    20A1    13.324620

    Beta Occupied:

       1A1   -19.785475     2A1    -1.598415     3A1    -1.010614

    Beta Virtual:

       1B2    -0.695946     1B1    -0.695946     4A1    -0.222153
       5A1     0.135388     2B1     0.189418     2B2     0.189418
       6A1     0.193221     3B1     0.375647     3B2     0.375647
       7A1     0.454561     1A2     1.002407     8A1     1.002407
       9A1     1.233277     4B2     1.417148     4B1     1.417148
      10A1     1.537822    11A1     2.249123    12A1     2.888835
       2A2     2.888835     5B2     2.920398     5B1     2.920398
       6B2     3.195192     6B1     3.195192    13A1     3.475785
       7B2     3.945545     7B1     3.945545    14A1     4.129340
       8B1     4.607441     8B2     4.607441    15A1     5.265991
      16A1     5.336182     3A2     5.336182     4A2     5.672601
      17A1     5.672601     9B2     5.685078     9B1     5.685078
      18A1     6.985446    19A1     7.164196    10B2     7.534766
      10B1     7.534766    20A1    13.383922

    Final Occupation by Irrep:
             A1    A2    B1    B2
    DOCC [     3,    0,    0,    0 ]
    SOCC [     0,    0,    1,    1 ]
    NA   [     3,    0,    1,    1 ]
    NB   [     3,    0,    0,    0 ]

  @DF-UKS Final Energy:   -75.08348781918025

   => Energetics <=

    Nuclear Repulsion Energy =              6.2237013702553199
    One-Electron Energy =                -110.5141663577647648
    Two-Electron Energy =                  36.2263412604041548
    DFT Exchange-Correlation Energy =      -7.0193640920749587
    Empirical Dispersion Energy =           0.0000000000000000
    VV10 Nonlocal Energy =                  0.0000000000000000
    Total Energy =                        -75.0834878191802488

  UHF NO Occupations:
  HONO-2 :    3 A1 1.9987642
  HONO-1 :    1 B1 1.0000000
  HONO-0 :    1 B2 1.0000000
  LUNO+0 :    4 A1 0.0012358
  LUNO+1 :    5 A1 0.0002545
  LUNO+2 :    6 A1 0.0000015
  LUNO+3 :    7 A1 0.0000000

Computation Completed

Properties will be evaluated at   0.000000,   0.000000,   0.000000 [a0]

Properties computed using the B3LYP density matrix

 Multipole Moments:

 ------------------------------------------------------------------------------------
     Multipole            Electronic (a.u.)      Nuclear  (a.u.)        Total (a.u.)
 ------------------------------------------------------------------------------------

 L = 1.  Multiply by 2.5417464519 to convert [e a0] to [Debye]
 Dipole X            :          0.0000000            0.0000000            0.0000000
 Dipole Y            :          0.0000000            0.0000000            0.0000000
 Dipole Z            :          0.0200376            0.5996837            0.6197213
 Magnitude           :                                                    0.6197213

 L = 2.  Multiply by 1.3450342976 to convert [e a0^2] to [Debye ang]
 Quadrupole XX       :         -2.8144637            0.0000000           -2.8144637
 Quadrupole XY       :          0.0000000            0.0000000            0.0000000
 Quadrupole XZ       :          0.0000000            0.0000000            0.0000000
 Quadrupole YY       :         -2.8144637            0.0000000           -2.8144637
 Quadrupole YZ       :          0.0000000            0.0000000            0.0000000
 Quadrupole ZZ       :         -3.9751296            1.5086472           -2.4664824
 Traceless XX        :          0.3868887           -0.5028824           -0.1159938
 Traceless YY        :          0.3868887           -0.5028824           -0.1159938
 Traceless ZZ        :         -0.7737773            1.0057648            0.2319875

 ------------------------------------------------------------------------------------
  ==> Computing MBIS Charges <==

  Electron Count from Grid (Expected Number):  8.00000 ( 8.00000)
  Difference:  0.00000

  MBIS Charges: (a.u.)
   Center  Symbol  Z      Pop.       Charge
      1       O    8    7.429322    0.570678
      2       H    1    0.570678    0.429322

  MBIS Dipoles: [e a0]
   Center  Symbol  Z        X           Y           Z
      1       O    8    0.000000    0.000000    0.115723
      2       H    1    0.000000    0.000000    0.028335

  MBIS Quadrupoles: [e a0^2]
   Center  Symbol  Z      XX        XY        XZ        YY        YZ        ZZ
      1       O    8   -2.6733    0.0000    0.0000   -2.6733   -0.0000   -3.0093
      2       H    1   -0.1412   -0.0000    0.0000   -0.1412    0.0000   -0.1391

  MBIS Octupoles: [e a0^3]
   Center  Symbol  Z      XXX       XXY       XXZ       XYY       XYZ       XZZ       YYY       YYZ       YZZ       ZZZ
      1       O    8   -0.0000   -0.0000    0.1076   -0.0000    0.0000    0.0000   -0.0000    0.1076   -0.0000    0.2415
      2       H    1    0.0000    0.0000    0.0035    0.0000    0.0000    0.0000   -0.0000    0.0035    0.0000    0.0073

  MBIS Radial Moments:
   Center  Symbol  Z      [a0^2]      [a0^3]      [a0^4]
      1       O    8    8.355881   13.886460   27.711572
      2       H    1    0.421492    0.514049    0.753909

  MBIS Valence Widths: [a0]
   Center  Symbol  Z     Width
      1       O    8    0.347373
      2       H    1    0.250946

*** tstop() called on Mac.lan at Sun Aug 10 18:29:07 2025
Module time:
	user time   =       3.83 seconds =       0.06 minutes
	system time =       2.83 seconds =       0.05 minutes
	total time  =          1 seconds =       0.02 minutes
Total time:
	user time   =      14.87 seconds =       0.25 minutes
	system time =       5.46 seconds =       0.09 minutes
	total time  =          2 seconds =       0.03 minutes

    Psi4 stopped on: Sunday, 10 August 2025 06:29PM
    Psi4 wall time for execution: 0:00:02.04

*** Psi4 exiting successfully. Buy a developer a beer!
