                               Psi4 1.9.1 release

  ==> Input File <==

--------------------------------------------------------------------------
molecule {
1 2
H           0.000000           0.000000           0.000000
H           0.000000           0.000000           1.220602
}

set {
basis              cc-pvtz
reference          uks
maxiter            500
DAMPING_PERCENTAGE 1
E_CONVERGENCE      1.0E-8
D_CONVERGENCE      1.0E-8
DIIS_MAX_VECS      400
MBIS_MAXITER       8000
guess              read
}

E, wfn = energy('b3lyp', restart_file='last_wfn', return_wfn=True)
properties('b3lyp','MBIS_CHARGES', wfn=wfn)
wfn.to_file('last_wfn')
--------------------------------------------------------------------------

    Molecular point group: d2h
  Charge       = 1
  Multiplicity = 2
  Basis Set: CC-PVTZ
    Blend: CC-PVTZ
  Basis Set: (CC-PVTZ AUX)
    Blend: CC-PVTZ-JKFIT
  @DF-UKS Final Energy:    -0.60895083458950
    Total Energy =                         -0.6089508345894973
 Dipole X            :          0.0000000            0.0000000            0.0000000
 Dipole Y            :          0.0000000            0.0000000            0.0000000
 Dipole Z            :          0.0000000            0.0000000            0.0000000
 Magnitude           :                                                    0.0000000
    Molecular point group: d2h

    Geometry (in Angstrom), charge = 1, multiplicity = 2:

       Center              X                  Y                   Z               Mass
    ------------   -----------------  -----------------  -----------------  -----------------
         H            0.000000000000     0.000000000000    -0.610301000000     1.007825032230
         H            0.000000000000     0.000000000000     0.610301000000     1.007825032230

  Charge       = 1
  Multiplicity = 2
  Basis Set: CC-PVTZ
    Blend: CC-PVTZ
  Basis Set: (CC-PVTZ AUX)
    Blend: CC-PVTZ-JKFIT

    Orbital Energies [Eh]
    ---------------------

    Alpha Occupied:

       1Ag    -0.864716

    Alpha Virtual:

       1B1u   -0.462940     2Ag    -0.077409     2B1u    0.024048
       1B3u    0.074010     1B2u    0.074010     3Ag     0.321131
       1B3g    0.432884     1B2g    0.432884     3B1u    0.854220
       4Ag     1.757554     4B1u    1.905417     2B2u    2.336972
       2B3u    2.336972     5Ag     2.365022     6Ag     2.546148
       1B1g    2.546148     5B1u    2.901028     1Au     2.901029
       3B2u    3.071801     3B3u    3.071801     2B3g    3.136521
       2B2g    3.136521     6B1u    3.286728     3B3g    3.661675
       3B2g    3.661675     7Ag     3.783047     7B1u    4.910284

    Beta Occupied:

    Beta Virtual:

       1Ag    -0.533519     1B1u   -0.263720     2Ag     0.014688
       2B1u    0.137098     1B2u    0.212410     1B3u    0.212410
       3Ag     0.464336     1B3g    0.550510     1B2g    0.550510
       3B1u    0.978162     4Ag     2.059811     4B1u    2.195894
       2B2u    2.538649     2B3u    2.538649     5Ag     2.620085
       1B1g    2.731494     6Ag     2.731495     1Au     3.084824
       5B1u    3.084825     3B2u    3.320985     3B3u    3.320985
       2B3g    3.392512     2B2g    3.392512     6B1u    3.523357
       3B3g    3.853108     3B2g    3.853108     7Ag     4.011873
       7B1u    5.141574

    Final Occupation by Irrep:
             Ag   B1g   B2g   B3g    Au   B1u   B2u   B3u
    DOCC [     0,    0,    0,    0,    0,    0,    0,    0 ]
    SOCC [     1,    0,    0,    0,    0,    0,    0,    0 ]
    NA   [     1,    0,    0,    0,    0,    0,    0,    0 ]
    NB   [     0,    0,    0,    0,    0,    0,    0,    0 ]

  @DF-UKS Final Energy:    -0.60895083455165

   => Energetics <=

    Nuclear Repulsion Energy =              0.4335378859529970
    One-Electron Energy =                  -1.0306577968654045
    Two-Electron Energy =                   0.2467104089735019
    DFT Exchange-Correlation Energy =      -0.2585413326127403
    Empirical Dispersion Energy =           0.0000000000000000
    VV10 Nonlocal Energy =                  0.0000000000000000
    Total Energy =                         -0.6089508345516459

  UHF NO Occupations:
  HONO-0 :    1 Ag 1.0000000
  LUNO+0 :    2 Ag 0.0000000
  LUNO+1 :    3 Ag 0.0000000
  LUNO+2 :    3B3u 0.0000000
  LUNO+3 :    2B3u 0.0000000

Computation Completed

Properties will be evaluated at   0.000000,   0.000000,   0.000000 [a0]

Properties computed using the B3LYP density matrix

 Multipole Moments:

 ------------------------------------------------------------------------------------
     Multipole            Electronic (a.u.)      Nuclear  (a.u.)        Total (a.u.)
 ------------------------------------------------------------------------------------

 L = 1.  Multiply by 2.5417464519 to convert [e a0] to [Debye]
 Dipole X            :          0.0000000            0.0000000            0.0000000
 Dipole Y            :          0.0000000            0.0000000            0.0000000
 Dipole Z            :          0.0000000            0.0000000            0.0000000
 Magnitude           :                                                    0.0000000

 L = 2.  Multiply by 1.3450342976 to convert [e a0^2] to [Debye ang]
 Quadrupole XX       :         -0.6786990            0.0000000           -0.6786990
 Quadrupole XY       :          0.0000000            0.0000000            0.0000000
 Quadrupole XZ       :          0.0000000            0.0000000            0.0000000
 Quadrupole YY       :         -0.6786990            0.0000000           -0.6786990
 Quadrupole YZ       :          0.0000000            0.0000000            0.0000000
 Quadrupole ZZ       :         -1.4434687            2.6602098            1.2167412
 Traceless XX        :          0.2549232           -0.8867366           -0.6318134
 Traceless YY        :          0.2549232           -0.8867366           -0.6318134
 Traceless ZZ        :         -0.5098464            1.7734732            1.2636268

 ------------------------------------------------------------------------------------
  ==> Computing MBIS Charges <==

  Electron Count from Grid (Expected Number):  1.00000 ( 1.00000)
  Difference:  0.00000

  MBIS Charges: (a.u.)
   Center  Symbol  Z      Pop.       Charge
      1       H    1    0.500000    0.500000
      2       H    1    0.500000    0.500000

  MBIS Dipoles: [e a0]
   Center  Symbol  Z        X           Y           Z
      1       H    1    0.000000    0.000000   -0.120717
      2       H    1   -0.000000    0.000000    0.120717

  MBIS Quadrupoles: [e a0^2]
   Center  Symbol  Z      XX        XY        XZ        YY        YZ        ZZ
      1       H    1   -0.3393    0.0000   -0.0000   -0.3393   -0.0000   -0.3351
      2       H    1   -0.3393    0.0000    0.0000   -0.3393    0.0000   -0.3351

  MBIS Octupoles: [e a0^3]
   Center  Symbol  Z      XXX       XXY       XXZ       XYY       XYZ       XZZ       YYY       YYZ       YZZ       ZZZ
      1       H    1    0.0000    0.0000   -0.0879    0.0000   -0.0000    0.0000    0.0000   -0.0879    0.0000   -0.1875
      2       H    1    0.0000    0.0000    0.0879    0.0000    0.0000    0.0000    0.0000    0.0879    0.0000    0.1875

  MBIS Radial Moments:
   Center  Symbol  Z      [a0^2]      [a0^3]      [a0^4]
      1       H    1    1.013827    1.997672    4.669819
      2       H    1    1.013827    1.997672    4.669819

  MBIS Valence Widths: [a0]
   Center  Symbol  Z     Width
      1       H    1    0.418661
      2       H    1    0.418661

*** tstop() called on Mac.lan at Sun Aug 10 18:11:37 2025
Module time:
	user time   =       0.62 seconds =       0.01 minutes
	system time =       1.38 seconds =       0.02 minutes
	total time  =          0 seconds =       0.00 minutes
Total time:
	user time   =       1.33 seconds =       0.02 minutes
	system time =       3.50 seconds =       0.06 minutes
	total time  =          0 seconds =       0.00 minutes

    Psi4 stopped on: Sunday, 10 August 2025 06:11PM
    Psi4 wall time for execution: 0:00:00.63

*** Psi4 exiting successfully. Buy a developer a beer!
