                               Psi4 1.9.1 release

  ==> Input File <==

--------------------------------------------------------------------------
molecule {
1 2
H           0.000000           0.000000           0.000000
H           0.000000           0.000000           1.261516
}

set {
basis              cc-pvtz
reference          uks
maxiter            500
DAMPING_PERCENTAGE 1
E_CONVERGENCE      1.0E-8
D_CONVERGENCE      1.0E-8
DIIS_MAX_VECS      400
MBIS_MAXITER       8000
guess              read
}

E, wfn = energy('b3lyp', restart_file='last_wfn', return_wfn=True)
properties('b3lyp','MBIS_CHARGES', wfn=wfn)
wfn.to_file('last_wfn')
--------------------------------------------------------------------------

    Molecular point group: d2h
  Charge       = 1
  Multiplicity = 2
  Basis Set: CC-PVTZ
    Blend: CC-PVTZ
  Basis Set: (CC-PVTZ AUX)
    Blend: CC-PVTZ-JKFIT
  @DF-UKS Final Energy:    -0.60790996315351
    Total Energy =                         -0.6079099631535101
 Dipole X            :          0.0000000            0.0000000            0.0000000
 Dipole Y            :          0.0000000            0.0000000            0.0000000
 Dipole Z            :          0.0000000            0.0000000            0.0000000
 Magnitude           :                                                    0.0000000
    Molecular point group: d2h

    Geometry (in Angstrom), charge = 1, multiplicity = 2:

       Center              X                  Y                   Z               Mass
    ------------   -----------------  -----------------  -----------------  -----------------
         H            0.000000000000     0.000000000000    -0.630758000000     1.007825032230
         H            0.000000000000     0.000000000000     0.630758000000     1.007825032230

  Charge       = 1
  Multiplicity = 2
  Basis Set: CC-PVTZ
    Blend: CC-PVTZ
  Basis Set: (CC-PVTZ AUX)
    Blend: CC-PVTZ-JKFIT

    Orbital Energies [Eh]
    ---------------------

    Alpha Occupied:

       1Ag    -0.852746

    Alpha Virtual:

       1B1u   -0.471455     2Ag    -0.073659     2B1u    0.021726
       1B2u    0.078623     1B3u    0.078623     3Ag     0.305971
       1B3g    0.424835     1B2g    0.424835     3B1u    0.842276
       4Ag     1.763357     4B1u    1.910581     2B2u    2.341906
       2B3u    2.341906     5Ag     2.346908     6Ag     2.569808
       1B1g    2.569808     5B1u    2.881496     1Au     2.881496
       3B2u    3.071436     3B3u    3.071436     2B2g    3.123650
       2B3g    3.123650     6B1u    3.283255     3B3g    3.599111
       3B2g    3.599111     7Ag     3.727906     7B1u    4.821443

    Beta Occupied:

    Beta Virtual:

       1Ag    -0.526457     1B1u   -0.268984     2Ag     0.018767
       2B1u    0.133369     1B2u    0.216171     1B3u    0.216171
       3Ag     0.450895     1B3g    0.543432     1B2g    0.543432
       3B1u    0.967780     4Ag     2.068929     4B1u    2.200790
       2B2u    2.540398     2B3u    2.540398     5Ag     2.592859
       1B1g    2.754495     6Ag     2.754496     1Au     3.065074
       5B1u    3.065076     3B2u    3.321787     3B3u    3.321787
       2B3g    3.379675     2B2g    3.379675     6B1u    3.526154
       3B2g    3.789858     3B3g    3.789858     7Ag     3.959038
       7B1u    5.047431

    Final Occupation by Irrep:
             Ag   B1g   B2g   B3g    Au   B1u   B2u   B3u
    DOCC [     0,    0,    0,    0,    0,    0,    0,    0 ]
    SOCC [     1,    0,    0,    0,    0,    0,    0,    0 ]
    NA   [     1,    0,    0,    0,    0,    0,    0,    0 ]
    NB   [     0,    0,    0,    0,    0,    0,    0,    0 ]

  @DF-UKS Final Energy:    -0.60790996311759

   => Energetics <=

    Nuclear Repulsion Energy =              0.4194772089057926
    One-Electron Energy =                  -1.0146571820933861
    Two-Electron Energy =                   0.2426309368493360
    DFT Exchange-Correlation Energy =      -0.2553609267793353
    Empirical Dispersion Energy =           0.0000000000000000
    VV10 Nonlocal Energy =                  0.0000000000000000
    Total Energy =                         -0.6079099631175928

  UHF NO Occupations:
  HONO-0 :    1 Ag 1.0000000
  LUNO+0 :    2 Ag 0.0000000
  LUNO+1 :    3B3u 0.0000000
  LUNO+2 :    2B3u 0.0000000
  LUNO+3 :    1B3u 0.0000000

Computation Completed

Properties will be evaluated at   0.000000,   0.000000,   0.000000 [a0]

Properties computed using the B3LYP density matrix

 Multipole Moments:

 ------------------------------------------------------------------------------------
     Multipole            Electronic (a.u.)      Nuclear  (a.u.)        Total (a.u.)
 ------------------------------------------------------------------------------------

 L = 1.  Multiply by 2.5417464519 to convert [e a0] to [Debye]
 Dipole X            :          0.0000000            0.0000000            0.0000000
 Dipole Y            :          0.0000000            0.0000000            0.0000000
 Dipole Z            :          0.0000000            0.0000000            0.0000000
 Magnitude           :                                                    0.0000000

 L = 2.  Multiply by 1.3450342976 to convert [e a0^2] to [Debye ang]
 Quadrupole XX       :         -0.6907440            0.0000000           -0.6907440
 Quadrupole XY       :          0.0000000            0.0000000            0.0000000
 Quadrupole XZ       :          0.0000000            0.0000000            0.0000000
 Quadrupole YY       :         -0.6907440            0.0000000           -0.6907440
 Quadrupole YZ       :          0.0000000            0.0000000            0.0000000
 Quadrupole ZZ       :         -1.5221673            2.8415367            1.3193694
 Traceless XX        :          0.2771411           -0.9471789           -0.6700378
 Traceless YY        :          0.2771411           -0.9471789           -0.6700378
 Traceless ZZ        :         -0.5542821            1.8943578            1.3400756

 ------------------------------------------------------------------------------------
  ==> Computing MBIS Charges <==

  Electron Count from Grid (Expected Number):  1.00000 ( 1.00000)
  Difference:  0.00000

  MBIS Charges: (a.u.)
   Center  Symbol  Z      Pop.       Charge
      1       H    1    0.500000    0.500000
      2       H    1    0.500000    0.500000

  MBIS Dipoles: [e a0]
   Center  Symbol  Z        X           Y           Z
      1       H    1    0.000000   -0.000000   -0.123530
      2       H    1    0.000000   -0.000000    0.123530

  MBIS Quadrupoles: [e a0^2]
   Center  Symbol  Z      XX        XY        XZ        YY        YZ        ZZ
      1       H    1   -0.3454   -0.0000   -0.0000   -0.3454   -0.0000   -0.3452
      2       H    1   -0.3454   -0.0000    0.0000   -0.3454    0.0000   -0.3452

  MBIS Octupoles: [e a0^3]
   Center  Symbol  Z      XXX       XXY       XXZ       XYY       XYZ       XZZ       YYY       YYZ       YZZ       ZZZ
      1       H    1    0.0000   -0.0000   -0.0917    0.0000    0.0000    0.0000   -0.0000   -0.0917    0.0000   -0.1994
      2       H    1    0.0000   -0.0000    0.0917    0.0000   -0.0000    0.0000   -0.0000    0.0917    0.0000    0.1994

  MBIS Radial Moments:
   Center  Symbol  Z      [a0^2]      [a0^3]      [a0^4]
      1       H    1    1.035929    2.063231    4.874113
      2       H    1    1.035929    2.063231    4.874113

  MBIS Valence Widths: [a0]
   Center  Symbol  Z     Width
      1       H    1    0.423162
      2       H    1    0.423162

*** tstop() called on Mac.lan at Sun Aug 10 18:11:39 2025
Module time:
	user time   =       0.52 seconds =       0.01 minutes
	system time =       1.29 seconds =       0.02 minutes
	total time  =          0 seconds =       0.00 minutes
Total time:
	user time   =       1.22 seconds =       0.02 minutes
	system time =       3.41 seconds =       0.06 minutes
	total time  =          0 seconds =       0.00 minutes

    Psi4 stopped on: Sunday, 10 August 2025 06:11PM
    Psi4 wall time for execution: 0:00:00.60

*** Psi4 exiting successfully. Buy a developer a beer!
