                               Psi4 1.9.1 release

  ==> Input File <==

--------------------------------------------------------------------------
molecule {
1 2
N           0.000000           0.000000           0.000000
N           0.000000           0.000000           1.352784
}

set {
basis              cc-pvtz
reference          uks
maxiter            500
DAMPING_PERCENTAGE 1
E_CONVERGENCE      1.0E-8
D_CONVERGENCE      1.0E-8
DIIS_MAX_VECS      400
MBIS_MAXITER       8000
guess              read
}

E, wfn = energy('b3lyp', restart_file='last_wfn', return_wfn=True)
properties('b3lyp','MBIS_CHARGES', wfn=wfn)
wfn.to_file('last_wfn')
--------------------------------------------------------------------------

    Molecular point group: d2h
  Charge       = 1
  Multiplicity = 2
  Basis Set: CC-PVTZ
    Blend: CC-PVTZ
  Basis Set: (CC-PVTZ AUX)
    Blend: CC-PVTZ-JKFIT
  @DF-UKS Final Energy:  -108.89931261255599
    Total Energy =                       -108.8993126125559741
 Dipole X            :          0.0000000            0.0000000            0.0000000
 Dipole Y            :          0.0000000            0.0000000            0.0000000
 Dipole Z            :          0.0000000            0.0000000            0.0000000
 Magnitude           :                                                    0.0000000
    Molecular point group: d2h

    Geometry (in Angstrom), charge = 1, multiplicity = 2:

       Center              X                  Y                   Z               Mass
    ------------   -----------------  -----------------  -----------------  -----------------
         N            0.000000000000     0.000000000000    -0.676392000000    14.003074004430
         N            0.000000000000     0.000000000000     0.676392000000    14.003074004430

  Charge       = 1
  Multiplicity = 2
  Basis Set: CC-PVTZ
    Blend: CC-PVTZ
  Basis Set: (CC-PVTZ AUX)
    Blend: CC-PVTZ-JKFIT

    Orbital Energies [Eh]
    ---------------------

    Alpha Occupied:

       1Ag   -14.948959     1B1u  -14.948604     2Ag    -1.417902
       2B1u   -1.058838     3Ag    -0.880381     1B3u   -0.804048
       1B2u   -0.804048

    Alpha Virtual:

       1B3g   -0.528616     1B2g   -0.528616     3B1u   -0.201528
       4B1u    0.089530     2B3u    0.103552     2B2u    0.103552
       4Ag     0.124233     5Ag     0.146016     2B2g    0.209532
       2B3g    0.209532     1B1g    0.509448     6Ag     0.509448
       5B1u    0.549249     3B2u    0.571477     3B3u    0.571477
       1Au     0.827104     6B1u    0.827104     7Ag     1.205854
       3B3g    1.234799     3B2g    1.234799     7B1u    1.266626
       4B2u    2.289406     4B3u    2.289406     8Ag     2.390077
       4B3g    2.510013     4B2g    2.510013     2B1g    3.057708
       9Ag     3.057708     5B2u    3.083957     5B3u    3.083957
       8B1u    3.171695    10Ag     3.209982     6B3u    3.331658
       6B2u    3.331658     5B2g    3.537122     5B3g    3.537122
       9B1u    3.845162    10B1u    3.903220     2Au     3.903222
      11Ag     3.909035     3B1g    3.909041     6B3g    4.119357
       6B2g    4.119357    11B1u    4.134075     3Au     4.134079
       7B2u    4.209935     7B3u    4.209935    12B1u    4.549589
      12Ag     4.799241     7B3g    5.079620     7B2g    5.079620
      13Ag     5.129137    13B1u    9.084432

    Beta Occupied:

       1Ag   -14.936431     1B1u  -14.936208     2Ag    -1.386578
       2B1u   -0.980359     1B3u   -0.791904     1B2u   -0.791904

    Beta Virtual:

       3Ag    -0.699599     1B3g   -0.510070     1B2g   -0.510070
       3B1u   -0.153805     2B3u    0.107387     2B2u    0.107387
       4B1u    0.130510     4Ag     0.153067     5Ag     0.160206
       2B2g    0.213905     2B3g    0.213905     1B1g    0.512261
       6Ag     0.512261     5B1u    0.559322     3B2u    0.602261
       3B3u    0.602261     6B1u    0.833516     1Au     0.833516
       7Ag     1.245979     3B3g    1.263678     3B2g    1.263678
       7B1u    1.307868     4B2u    2.303002     4B3u    2.303002
       8Ag     2.442412     4B3g    2.517644     4B2g    2.517644
       2B1g    3.083943     9Ag     3.083943     5B2u    3.114339
       5B3u    3.114339     8B1u    3.216432    10Ag     3.263837
       6B3u    3.335303     6B2u    3.335303     5B2g    3.540825
       5B3g    3.540825     9B1u    3.904367    10B1u    3.904717
       2Au     3.904719    11Ag     3.916480     3B1g    3.916487
      11B1u    4.164394     3Au     4.164398     6B3g    4.169562
       6B2g    4.169562     7B2u    4.265534     7B3u    4.265534
      12B1u    4.610912    12Ag     4.835795     7B3g    5.121008
       7B2g    5.121008    13Ag     5.183989    13B1u    9.107380

    Final Occupation by Irrep:
             Ag   B1g   B2g   B3g    Au   B1u   B2u   B3u
    DOCC [     2,    0,    0,    0,    0,    2,    1,    1 ]
    SOCC [     1,    0,    0,    0,    0,    0,    0,    0 ]
    NA   [     3,    0,    0,    0,    0,    2,    1,    1 ]
    NB   [     2,    0,    0,    0,    0,    2,    1,    1 ]

  @DF-UKS Final Energy:  -108.89931261258464

   => Energetics <=

    Nuclear Repulsion Energy =             19.1676448884892174
    One-Electron Energy =                -179.8404073177352416
    Two-Electron Energy =                  62.3318851150221960
    DFT Exchange-Correlation Energy =     -10.5584352983608003
    Empirical Dispersion Energy =           0.0000000000000000
    VV10 Nonlocal Energy =                  0.0000000000000000
    Total Energy =                       -108.8993126125846373

  UHF NO Occupations:
  HONO-2 :    2 Ag 1.9998309
  HONO-1 :    2B1u 1.9966714
  HONO-0 :    3 Ag 1.0000000
  LUNO+0 :    3B1u 0.0033286
  LUNO+1 :    4 Ag 0.0001691
  LUNO+2 :    2B2u 0.0001066
  LUNO+3 :    2B3u 0.0001066

Computation Completed

Properties will be evaluated at   0.000000,   0.000000,   0.000000 [a0]

Properties computed using the B3LYP density matrix

 Multipole Moments:

 ------------------------------------------------------------------------------------
     Multipole            Electronic (a.u.)      Nuclear  (a.u.)        Total (a.u.)
 ------------------------------------------------------------------------------------

 L = 1.  Multiply by 2.5417464519 to convert [e a0] to [Debye]
 Dipole X            :          0.0000000            0.0000000            0.0000000
 Dipole Y            :          0.0000000            0.0000000            0.0000000
 Dipole Z            :          0.0000000            0.0000000            0.0000000
 Magnitude           :                                                    0.0000000

 L = 2.  Multiply by 1.3450342976 to convert [e a0^2] to [Debye ang]
 Quadrupole XX       :         -6.6298439            0.0000000           -6.6298439
 Quadrupole XY       :          0.0000000            0.0000000            0.0000000
 Quadrupole XZ       :          0.0000000            0.0000000            0.0000000
 Quadrupole YY       :         -6.6298439            0.0000000           -6.6298439
 Quadrupole YZ       :          0.0000000            0.0000000            0.0000000
 Quadrupole ZZ       :        -26.4230909           22.8729771           -3.5501138
 Traceless XX        :          6.5977490           -7.6243257           -1.0265767
 Traceless YY        :          6.5977490           -7.6243257           -1.0265767
 Traceless ZZ        :        -13.1954980           15.2486514            2.0531534

 ------------------------------------------------------------------------------------
  ==> Computing MBIS Charges <==

  Electron Count from Grid (Expected Number): 13.00000 (13.00000)
  Difference:  0.00000

  MBIS Charges: (a.u.)
   Center  Symbol  Z      Pop.       Charge
      1       N    7    6.500000    0.500000
      2       N    7    6.500000    0.500000

  MBIS Dipoles: [e a0]
   Center  Symbol  Z        X           Y           Z
      1       N    7   -0.000000    0.000000   -0.279111
      2       N    7   -0.000000   -0.000000    0.279111

  MBIS Quadrupoles: [e a0^2]
   Center  Symbol  Z      XX        XY        XZ        YY        YZ        ZZ
      1       N    7   -3.3149    0.0000    0.0000   -3.3149   -0.0000   -3.3055
      2       N    7   -3.3149    0.0000   -0.0000   -3.3149    0.0000   -3.3055

  MBIS Octupoles: [e a0^3]
   Center  Symbol  Z      XXX       XXY       XXZ       XYY       XYZ       XZZ       YYY       YYZ       YZZ       ZZZ
      1       N    7   -0.0000    0.0000   -0.3335   -0.0000    0.0000   -0.0000   -0.0000   -0.3335    0.0000   -0.8521
      2       N    7   -0.0000    0.0000    0.3335    0.0000   -0.0000   -0.0000   -0.0000    0.3335    0.0000    0.8521

  MBIS Radial Moments:
   Center  Symbol  Z      [a0^2]      [a0^3]      [a0^4]
      1       N    7    9.935311   19.498353   45.607301
      2       N    7    9.935311   19.498353   45.607301

  MBIS Valence Widths: [a0]
   Center  Symbol  Z     Width
      1       N    7    0.416572
      2       N    7    0.416572

*** tstop() called on Mac.lan at Sun Aug 10 18:25:27 2025
Module time:
	user time   =       3.83 seconds =       0.06 minutes
	system time =       2.05 seconds =       0.03 minutes
	total time  =          0 seconds =       0.00 minutes
Total time:
	user time   =      15.87 seconds =       0.26 minutes
	system time =       4.16 seconds =       0.07 minutes
	total time  =          2 seconds =       0.03 minutes

    Psi4 stopped on: Sunday, 10 August 2025 06:25PM
    Psi4 wall time for execution: 0:00:01.95

*** Psi4 exiting successfully. Buy a developer a beer!
