                               Psi4 1.9.1 release

  ==> Input File <==

--------------------------------------------------------------------------
molecule {
1 1
O           0.000000           0.000000           0.000000
N           0.000000           0.000000           1.042155
}

set {
basis              cc-pvtz
reference          uks
maxiter            500
DAMPING_PERCENTAGE 1
E_CONVERGENCE      1.0E-8
D_CONVERGENCE      1.0E-8
DIIS_MAX_VECS      400
MBIS_MAXITER       8000
guess              read
}

E, wfn = energy('b3lyp', restart_file='last_wfn', return_wfn=True)
properties('b3lyp','MBIS_CHARGES', wfn=wfn)
wfn.to_file('last_wfn')
--------------------------------------------------------------------------

    Molecular point group: c2v
  Charge       = 1
  Multiplicity = 1
  Basis Set: CC-PVTZ
    Blend: CC-PVTZ
  Basis Set: (CC-PVTZ AUX)
    Blend: CC-PVTZ-JKFIT
  @DF-UKS Final Energy:  -129.58567515102752
    Total Energy =                       -129.5856751510275160
 Dipole X            :          0.0000000            0.0000000            0.0000000
 Dipole Y            :          0.0000000            0.0000000            0.0000000
 Dipole Z            :          0.1437346           -0.0039515            0.1397832
 Magnitude           :                                                    0.1397832
    Molecular point group: c2v

    Geometry (in Angstrom), charge = 1, multiplicity = 1:

       Center              X                  Y                   Z               Mass
    ------------   -----------------  -----------------  -----------------  -----------------
         O            0.000000000000     0.000000000000    -0.486478402669    15.994914619570
         N            0.000000000000     0.000000000000     0.555676597331    14.003074004430

  Charge       = 1
  Multiplicity = 1
  Basis Set: CC-PVTZ
    Blend: CC-PVTZ
  Basis Set: (CC-PVTZ AUX)
    Blend: CC-PVTZ-JKFIT

    Orbital Energies [Eh]
    ---------------------

    Alpha Occupied:

       1A1   -19.768288     2A1   -14.955828     3A1    -1.800476
       4A1    -1.094537     1B2    -0.998673     1B1    -0.998673
       5A1    -0.920890

    Alpha Virtual:

       2B2    -0.484685     2B1    -0.484685     6A1    -0.057814
       3B2     0.079085     3B1     0.079085     7A1     0.123098
       8A1     0.195303     4B1     0.283997     4B2     0.283997
       9A1     0.300999     1A2     0.525246    10A1     0.525246
       5B2     0.794980     5B1     0.794980    11A1     0.829932
       2A2     1.165898    12A1     1.165898    13A1     1.360608
       6B2     1.662927     6B1     1.662927    14A1     1.887960
       7B2     2.384576     7B1     2.384576    15A1     2.667753
       8B1     3.189323     8B2     3.189323    16A1     3.295270
       9B2     3.336217     9B1     3.336217    17A1     3.359540
       3A2     3.359540    10B2     3.639017    10B1     3.639017
       4A2     3.928838    18A1     3.928839    19A1     4.031916
      11B2     4.348122    11B1     4.348122    12B2     4.639558
      12B1     4.639558    20A1     4.683214     5A2     5.319197
      21A1     5.319197     6A2     5.713980    22A1     5.713983
      13B2     6.077257    13B1     6.077257    23A1     6.138064
      24A1     6.638703    14B2     6.851573    14B1     6.851573
      25A1     7.128542    26A1    15.919973

    Beta Occupied:

       1A1   -19.768288     2A1   -14.955828     3A1    -1.800476
       4A1    -1.094537     1B2    -0.998673     1B1    -0.998673
       5A1    -0.920890

    Beta Virtual:

       2B2    -0.484685     2B1    -0.484685     6A1    -0.057814
       3B2     0.079085     3B1     0.079085     7A1     0.123098
       8A1     0.195303     4B1     0.283997     4B2     0.283997
       9A1     0.300999     1A2     0.525246    10A1     0.525246
       5B2     0.794980     5B1     0.794980    11A1     0.829932
       2A2     1.165898    12A1     1.165898    13A1     1.360608
       6B2     1.662927     6B1     1.662927    14A1     1.887960
       7B2     2.384576     7B1     2.384576    15A1     2.667753
       8B1     3.189323     8B2     3.189323    16A1     3.295270
       9B2     3.336217     9B1     3.336217    17A1     3.359540
       3A2     3.359540    10B2     3.639017    10B1     3.639017
       4A2     3.928838    18A1     3.928839    19A1     4.031916
      11B2     4.348122    11B1     4.348122    12B2     4.639558
      12B1     4.639558    20A1     4.683214     5A2     5.319197
      21A1     5.319197     6A2     5.713980    22A1     5.713983
      13B2     6.077257    13B1     6.077257    23A1     6.138064
      24A1     6.638703    14B2     6.851573    14B1     6.851573
      25A1     7.128542    26A1    15.919973

    Final Occupation by Irrep:
             A1    A2    B1    B2
    DOCC [     5,    0,    1,    1 ]
    SOCC [     0,    0,    0,    0 ]
    NA   [     5,    0,    1,    1 ]
    NB   [     5,    0,    1,    1 ]

  @DF-UKS Final Energy:  -129.58567515166243

   => Energetics <=

    Nuclear Repulsion Energy =             28.4352364067916987
    One-Electron Energy =                -226.2373441023076168
    Two-Electron Energy =                  80.3603402516442600
    DFT Exchange-Correlation Energy =     -12.1439077077907491
    Empirical Dispersion Energy =           0.0000000000000000
    VV10 Nonlocal Energy =                  0.0000000000000000
    Total Energy =                       -129.5856751516624286

  UHF NO Occupations:
  HONO-2 :    1 B1 2.0000000
  HONO-1 :    1 B2 2.0000000
  HONO-0 :    5 A1 2.0000000
  LUNO+0 :    6 A1 0.0000000
  LUNO+1 :    7 A1 0.0000000
  LUNO+2 :    8 A1 0.0000000
  LUNO+3 :    9 A1 0.0000000

Computation Completed

Properties will be evaluated at   0.000000,   0.000000,   0.000000 [a0]

Properties computed using the B3LYP density matrix

 Multipole Moments:

 ------------------------------------------------------------------------------------
     Multipole            Electronic (a.u.)      Nuclear  (a.u.)        Total (a.u.)
 ------------------------------------------------------------------------------------

 L = 1.  Multiply by 2.5417464519 to convert [e a0] to [Debye]
 Dipole X            :          0.0000000            0.0000000            0.0000000
 Dipole Y            :          0.0000000            0.0000000            0.0000000
 Dipole Z            :          0.1437346           -0.0039515            0.1397831
 Magnitude           :                                                    0.1397831

 L = 2.  Multiply by 1.3450342976 to convert [e a0^2] to [Debye ang]
 Quadrupole XX       :         -5.7814791            0.0000000           -5.7814791
 Quadrupole XY       :          0.0000000            0.0000000            0.0000000
 Quadrupole XZ       :          0.0000000            0.0000000            0.0000000
 Quadrupole YY       :         -5.7814791            0.0000000           -5.7814791
 Quadrupole YZ       :          0.0000000            0.0000000            0.0000000
 Quadrupole ZZ       :        -19.9138707           14.4796868           -5.4341839
 Traceless XX        :          4.7107972           -4.8265623           -0.1157651
 Traceless YY        :          4.7107972           -4.8265623           -0.1157651
 Traceless ZZ        :         -9.4215944            9.6531245            0.2315301

 ------------------------------------------------------------------------------------
  ==> Computing MBIS Charges <==

  Electron Count from Grid (Expected Number): 14.00000 (14.00000)
  Difference:  0.00000

  MBIS Charges: (a.u.)
   Center  Symbol  Z      Pop.       Charge
      1       O    8    7.619919    0.380081
      2       N    7    6.380082    0.619918

  MBIS Dipoles: [e a0]
   Center  Symbol  Z        X           Y           Z
      1       O    8    0.000000   -0.000000   -0.082781
      2       N    7    0.000000    0.000000   -0.078985

  MBIS Quadrupoles: [e a0^2]
   Center  Symbol  Z      XX        XY        XZ        YY        YZ        ZZ
      1       O    8   -2.9329   -0.0000   -0.0000   -2.9329   -0.0000   -3.1560
      2       N    7   -2.8486   -0.0000    0.0000   -2.8486   -0.0000   -3.2693

  MBIS Octupoles: [e a0^3]
   Center  Symbol  Z      XXX       XXY       XXZ       XYY       XYZ       XZZ       YYY       YYZ       YZZ       ZZZ
      1       O    8    0.0000   -0.0000   -0.0530    0.0000   -0.0000    0.0000   -0.0000   -0.0530   -0.0000   -0.1571
      2       N    7   -0.0000   -0.0000   -0.0078   -0.0000    0.0000    0.0000   -0.0000   -0.0078   -0.0000   -0.0886

  MBIS Radial Moments:
   Center  Symbol  Z      [a0^2]      [a0^3]      [a0^4]
      1       O    8    9.021831   15.288765   31.032127
      2       N    7    8.966412   16.863955   37.836314

  MBIS Valence Widths: [a0]
   Center  Symbol  Z     Width
      1       O    8    0.355866
      2       N    7    0.399430

*** tstop() called on Mac.lan at Sun Aug 10 18:39:50 2025
Module time:
	user time   =       4.34 seconds =       0.07 minutes
	system time =       2.18 seconds =       0.04 minutes
	total time  =          1 seconds =       0.02 minutes
Total time:
	user time   =      15.99 seconds =       0.27 minutes
	system time =       4.41 seconds =       0.07 minutes
	total time  =          2 seconds =       0.03 minutes

    Psi4 stopped on: Sunday, 10 August 2025 06:39PM
    Psi4 wall time for execution: 0:00:01.99

*** Psi4 exiting successfully. Buy a developer a beer!
