                               Psi4 1.9.1 release

  ==> Input File <==

--------------------------------------------------------------------------
molecule {
1 2
O           0.000000           0.000000           0.000000
O           0.000000           0.000000           1.395310
}

set {
basis              cc-pvtz
reference          uks
maxiter            500
DAMPING_PERCENTAGE 1
E_CONVERGENCE      1.0E-8
D_CONVERGENCE      1.0E-8
DIIS_MAX_VECS      400
MBIS_MAXITER       8000
guess              read
}

E, wfn = energy('b3lyp', restart_file='last_wfn', return_wfn=True)
properties('b3lyp','MBIS_CHARGES', wfn=wfn)
wfn.to_file('last_wfn')
--------------------------------------------------------------------------

    Molecular point group: d2h
  Charge       = 1
  Multiplicity = 2
  Basis Set: CC-PVTZ
    Blend: CC-PVTZ
  Basis Set: (CC-PVTZ AUX)
    Blend: CC-PVTZ-JKFIT
  @DF-UKS Final Energy:  -149.82589127656482
    Total Energy =                       -149.8258912765648461
 Dipole X            :          0.0000000            0.0000000            0.0000000
 Dipole Y            :          0.0000000            0.0000000            0.0000000
 Dipole Z            :          0.0000000            0.0000000            0.0000000
 Magnitude           :                                                    0.0000000
    Molecular point group: d2h

    Geometry (in Angstrom), charge = 1, multiplicity = 2:

       Center              X                  Y                   Z               Mass
    ------------   -----------------  -----------------  -----------------  -----------------
         O            0.000000000000     0.000000000000    -0.697655000000    15.994914619570
         O            0.000000000000     0.000000000000     0.697655000000    15.994914619570

  Charge       = 1
  Multiplicity = 2
  Basis Set: CC-PVTZ
    Blend: CC-PVTZ
  Basis Set: (CC-PVTZ AUX)
    Blend: CC-PVTZ-JKFIT

    Orbital Energies [Eh]
    ---------------------

    Alpha Occupied:

       1Ag   -19.823595     1B1u  -19.823467     2Ag    -1.633766
       2B1u   -1.321369     3Ag    -0.962902     1B3u   -0.954620
       1B2u   -0.909445     1B2g   -0.802483

    Alpha Virtual:

       1B3g   -0.681145     3B1u   -0.445346     4B1u    0.158362
       2B3u    0.160855     2B2u    0.166602     4Ag     0.249347
       2B2g    0.285046     2B3g    0.291679     5Ag     0.298768
       3B2u    0.801182     3B3u    0.803897     5B1u    0.807874
       1B1g    0.859128     6Ag     0.860417     1Au     1.142798
       6B1u    1.144342     7Ag     1.414701     3B2g    1.625130
       3B3g    1.626152     7B1u    1.819022     4B3u    2.930594
       4B2u    2.947477     8Ag     2.972891     4B2g    3.142422
       4B3g    3.158009     8B1u    3.943897     5B2u    4.174873
       5B3u    4.178691     9Ag     4.279586     2B1g    4.284071
      10Ag     4.285893     6B3u    4.533026     6B2u    4.533303
       5B2g    4.624824     5B3g    4.625107     2Au     4.898280
       9B1u    4.899922     6B2g    5.404900     6B3g    5.409554
       3B1g    5.533943    11Ag     5.537950    10B1u    5.670695
       7B3u    5.696487     3Au     5.706252     7B2u    5.706263
      11B1u    5.710253    12Ag     6.124247    12B1u    6.259602
       7B2g    6.365762     7B3g    6.368801    13Ag     7.010779
      13B1u    8.742576

    Beta Occupied:

       1Ag   -19.807437     1B1u  -19.807260     2Ag    -1.600565
       2B1u   -1.274264     3Ag    -0.945216     1B2u   -0.895391
       1B3u   -0.851794

    Beta Virtual:

       1B3g   -0.664013     1B2g   -0.616027     3B1u   -0.424259
       4B1u    0.163892     2B2u    0.171369     2B3u    0.192574
       4Ag     0.254521     2B3g    0.296293     5Ag     0.309058
       2B2g    0.314607     3B2u    0.802637     5B1u    0.823168
       3B3u    0.827024     6Ag     0.882709     1B1g    0.882767
       1Au     1.173389     6B1u    1.173592     7Ag     1.431116
       3B3g    1.630011     3B2g    1.656208     7B1u    1.829095
       4B2u    2.958101     8Ag     2.982264     4B3u    2.995326
       4B3g    3.169969     4B2g    3.210073     8B1u    3.960672
       5B2u    4.178995     5B3u    4.209884     9Ag     4.284928
       2B1g    4.308021    10Ag     4.321131     6B2u    4.571053
       6B3u    4.571096     5B3g    4.663250     5B2g    4.663271
       2Au     4.926181     9B1u    4.926251     6B3g    5.415881
       6B2g    5.450522    11Ag     5.592970     3B1g    5.593177
      10B1u    5.685757     7B2u    5.713343     7B3u    5.752076
       3Au     5.763456    11B1u    5.765104    12Ag     6.137420
      12B1u    6.281384     7B3g    6.373486     7B2g    6.407753
      13Ag     7.042399    13B1u    8.763232

    Final Occupation by Irrep:
             Ag   B1g   B2g   B3g    Au   B1u   B2u   B3u
    DOCC [     3,    0,    0,    0,    0,    2,    1,    1 ]
    SOCC [     0,    0,    1,    0,    0,    0,    0,    0 ]
    NA   [     3,    0,    1,    0,    0,    2,    1,    1 ]
    NB   [     3,    0,    0,    0,    0,    2,    1,    1 ]

  @DF-UKS Final Energy:  -149.82589127658437

   => Energetics <=

    Nuclear Repulsion Energy =             24.2722703075875614
    One-Electron Energy =                -247.2508492596697351
    Two-Electron Energy =                  86.4067197585670783
    DFT Exchange-Correlation Energy =     -13.2540320830692835
    Empirical Dispersion Energy =           0.0000000000000000
    VV10 Nonlocal Energy =                  0.0000000000000000
    Total Energy =                       -149.8258912765843718

  UHF NO Occupations:
  HONO-2 :    2B1u 1.9997387
  HONO-1 :    1B3u 1.9987201
  HONO-0 :    1B2g 1.0000000
  LUNO+0 :    2B3u 0.0012799
  LUNO+1 :    3B1u 0.0002613
  LUNO+2 :    4 Ag 0.0001480
  LUNO+3 :    2B2u 0.0000394

Computation Completed

Properties will be evaluated at   0.000000,   0.000000,   0.000000 [a0]

Properties computed using the B3LYP density matrix

 Multipole Moments:

 ------------------------------------------------------------------------------------
     Multipole            Electronic (a.u.)      Nuclear  (a.u.)        Total (a.u.)
 ------------------------------------------------------------------------------------

 L = 1.  Multiply by 2.5417464519 to convert [e a0] to [Debye]
 Dipole X            :          0.0000000            0.0000000            0.0000000
 Dipole Y            :          0.0000000            0.0000000            0.0000000
 Dipole Z            :          0.0000000            0.0000000            0.0000000
 Magnitude           :                                                    0.0000000

 L = 2.  Multiply by 1.3450342976 to convert [e a0^2] to [Debye ang]
 Quadrupole XX       :         -6.4761896            0.0000000           -6.4761896
 Quadrupole XY       :          0.0000000            0.0000000            0.0000000
 Quadrupole XZ       :          0.0000000            0.0000000            0.0000000
 Quadrupole YY       :         -5.9283125            0.0000000           -5.9283125
 Quadrupole YZ       :          0.0000000            0.0000000            0.0000000
 Quadrupole ZZ       :        -31.8428794           27.8098816           -4.0329979
 Traceless XX        :          8.2729376           -9.2699605           -0.9970229
 Traceless YY        :          8.8208147           -9.2699605           -0.4491459
 Traceless ZZ        :        -17.0937522           18.5399210            1.4461688

 ------------------------------------------------------------------------------------
  ==> Computing MBIS Charges <==

  Electron Count from Grid (Expected Number): 15.00000 (15.00000)
  Difference: -0.00000

  MBIS Charges: (a.u.)
   Center  Symbol  Z      Pop.       Charge
      1       O    8    7.499999    0.500001
      2       O    8    7.499999    0.500001

  MBIS Dipoles: [e a0]
   Center  Symbol  Z        X           Y           Z
      1       O    8   -0.000000   -0.000000   -0.088050
      2       O    8   -0.000000    0.000000    0.088050

  MBIS Quadrupoles: [e a0^2]
   Center  Symbol  Z      XX        XY        XZ        YY        YZ        ZZ
      1       O    8   -3.2381   -0.0000   -0.0000   -2.9642   -0.0000   -3.1177
      2       O    8   -3.2381   -0.0000   -0.0000   -2.9642    0.0000   -3.1177

  MBIS Octupoles: [e a0^3]
   Center  Symbol  Z      XXX       XXY       XXZ       XYY       XYZ       XZZ       YYY       YYZ       YZZ       ZZZ
      1       O    8   -0.0000   -0.0000   -0.0849   -0.0000   -0.0000   -0.0000   -0.0000   -0.1408    0.0000   -0.4146
      2       O    8   -0.0000   -0.0000    0.0849   -0.0000    0.0000   -0.0000    0.0000    0.1408    0.0000    0.4146

  MBIS Radial Moments:
   Center  Symbol  Z      [a0^2]      [a0^3]      [a0^4]
      1       O    8    9.319977   16.374427   34.537546
      2       O    8    9.319977   16.374427   34.537546

  MBIS Valence Widths: [a0]
   Center  Symbol  Z     Width
      1       O    8    0.365570
      2       O    8    0.365570

*** tstop() called on Mac.lan at Sun Aug 10 18:13:54 2025
Module time:
	user time   =       3.13 seconds =       0.05 minutes
	system time =       2.48 seconds =       0.04 minutes
	total time  =          1 seconds =       0.02 minutes
Total time:
	user time   =      15.72 seconds =       0.26 minutes
	system time =       5.47 seconds =       0.09 minutes
	total time  =          2 seconds =       0.03 minutes

    Psi4 stopped on: Sunday, 10 August 2025 06:13PM
    Psi4 wall time for execution: 0:00:02.09

*** Psi4 exiting successfully. Buy a developer a beer!
