                               Psi4 1.9.1 release

  ==> Input File <==

--------------------------------------------------------------------------
molecule {
1 1
O           0.000000           0.000000           0.000000
N           0.000000           0.000000           0.964479
}

set {
basis              cc-pvtz
reference          uks
maxiter            500
DAMPING_PERCENTAGE 1
E_CONVERGENCE      1.0E-8
D_CONVERGENCE      1.0E-8
DIIS_MAX_VECS      400
MBIS_MAXITER       8000
guess              read
}

E, wfn = energy('b3lyp', restart_file='last_wfn', return_wfn=True)
properties('b3lyp','MBIS_CHARGES', wfn=wfn)
wfn.to_file('last_wfn')
--------------------------------------------------------------------------

    Molecular point group: c2v
  Charge       = 1
  Multiplicity = 1
  Basis Set: CC-PVTZ
    Blend: CC-PVTZ
  Basis Set: (CC-PVTZ AUX)
    Blend: CC-PVTZ-JKFIT
  @DF-UKS Final Energy:  -129.55220409565939
    Total Energy =                       -129.5522040956593912
 Dipole X            :          0.0000000            0.0000000            0.0000000
 Dipole Y            :          0.0000000            0.0000000            0.0000000
 Dipole Z            :          0.0752077           -0.0036570            0.0715507
 Magnitude           :                                                    0.0715507
    Molecular point group: c2v

    Geometry (in Angstrom), charge = 1, multiplicity = 1:

       Center              X                  Y                   Z               Mass
    ------------   -----------------  -----------------  -----------------  -----------------
         O            0.000000000000     0.000000000000    -0.450219212428    15.994914619570
         N            0.000000000000     0.000000000000     0.514259787572    14.003074004430

  Charge       = 1
  Multiplicity = 1
  Basis Set: CC-PVTZ
    Blend: CC-PVTZ
  Basis Set: (CC-PVTZ AUX)
    Blend: CC-PVTZ-JKFIT

    Orbital Energies [Eh]
    ---------------------

    Alpha Occupied:

       1A1   -19.763928     2A1   -14.932508     3A1    -1.873762
       4A1    -1.087205     1B2    -1.045097     1B1    -1.045097
       5A1    -0.923567

    Alpha Virtual:

       2B2    -0.441990     2B1    -0.441990     6A1    -0.058064
       3B2     0.067313     3B1     0.067313     7A1     0.120377
       8A1     0.196626     4B2     0.287875     4B1     0.287875
       9A1     0.461276    10A1     0.514742     1A2     0.514742
      11A1     0.836908     5B2     0.845172     5B1     0.845172
       2A2     1.192688    12A1     1.192688    13A1     1.465321
       6B2     1.688248     6B1     1.688248    14A1     1.950143
       7B2     2.358767     7B1     2.358767    15A1     2.721424
      16A1     3.244830     8B1     3.278620     8B2     3.278620
       9B1     3.315409     9B2     3.315409    17A1     3.398401
       3A2     3.398401    10B2     3.678587    10B1     3.678587
      18A1     3.933162     4A2     3.933163    19A1     4.144012
      11B2     4.380889    11B1     4.380889    12B1     4.665863
      12B2     4.665863    20A1     4.975857     5A2     5.513596
      21A1     5.513596     6A2     5.713199    22A1     5.713204
      13B2     6.112352    13B1     6.112352    23A1     6.258821
      24A1     6.755070    14B2     7.214880    14B1     7.214880
      25A1     7.795435    26A1    18.432904

    Beta Occupied:

       1A1   -19.763928     2A1   -14.932508     3A1    -1.873762
       4A1    -1.087205     1B2    -1.045097     1B1    -1.045097
       5A1    -0.923567

    Beta Virtual:

       2B2    -0.441990     2B1    -0.441990     6A1    -0.058064
       3B2     0.067313     3B1     0.067313     7A1     0.120377
       8A1     0.196626     4B2     0.287875     4B1     0.287875
       9A1     0.461276    10A1     0.514742     1A2     0.514742
      11A1     0.836908     5B2     0.845172     5B1     0.845172
       2A2     1.192688    12A1     1.192688    13A1     1.465321
       6B2     1.688248     6B1     1.688248    14A1     1.950143
       7B2     2.358767     7B1     2.358767    15A1     2.721424
      16A1     3.244830     8B1     3.278620     8B2     3.278620
       9B1     3.315409     9B2     3.315409    17A1     3.398401
       3A2     3.398401    10B2     3.678587    10B1     3.678587
      18A1     3.933162     4A2     3.933163    19A1     4.144012
      11B2     4.380889    11B1     4.380889    12B1     4.665863
      12B2     4.665863    20A1     4.975857     5A2     5.513596
      21A1     5.513596     6A2     5.713199    22A1     5.713204
      13B2     6.112352    13B1     6.112352    23A1     6.258821
      24A1     6.755070    14B2     7.214880    14B1     7.214880
      25A1     7.795435    26A1    18.432904

    Final Occupation by Irrep:
             A1    A2    B1    B2
    DOCC [     5,    0,    1,    1 ]
    SOCC [     0,    0,    0,    0 ]
    NA   [     5,    0,    1,    1 ]
    NB   [     5,    0,    1,    1 ]

  @DF-UKS Final Energy:  -129.55220409583094

   => Energetics <=

    Nuclear Repulsion Energy =             30.7253178115023715
    One-Electron Energy =                -230.4156487964983739
    Two-Electron Energy =                  82.3803970409819328
    DFT Exchange-Correlation Energy =     -12.2422701518168875
    Empirical Dispersion Energy =           0.0000000000000000
    VV10 Nonlocal Energy =                  0.0000000000000000
    Total Energy =                       -129.5522040958309447

  UHF NO Occupations:
  HONO-2 :    3 A1 2.0000000
  HONO-1 :    4 A1 2.0000000
  HONO-0 :    5 A1 2.0000000
  LUNO+0 :    6 A1 0.0000000
  LUNO+1 :    7 A1 0.0000000
  LUNO+2 :    8 A1 0.0000000
  LUNO+3 :    9 A1 0.0000000

Computation Completed

Properties will be evaluated at   0.000000,   0.000000,   0.000000 [a0]

Properties computed using the B3LYP density matrix

 Multipole Moments:

 ------------------------------------------------------------------------------------
     Multipole            Electronic (a.u.)      Nuclear  (a.u.)        Total (a.u.)
 ------------------------------------------------------------------------------------

 L = 1.  Multiply by 2.5417464519 to convert [e a0] to [Debye]
 Dipole X            :          0.0000000            0.0000000            0.0000000
 Dipole Y            :          0.0000000            0.0000000            0.0000000
 Dipole Z            :          0.0752077           -0.0036570            0.0715507
 Magnitude           :                                                    0.0715507

 L = 2.  Multiply by 1.3450342976 to convert [e a0^2] to [Debye ang]
 Quadrupole XX       :         -5.6340718            0.0000000           -5.6340718
 Quadrupole XY       :          0.0000000            0.0000000            0.0000000
 Quadrupole XZ       :          0.0000000            0.0000000            0.0000000
 Quadrupole YY       :         -5.6340718            0.0000000           -5.6340718
 Quadrupole YZ       :          0.0000000            0.0000000            0.0000000
 Quadrupole ZZ       :        -17.9582236           12.4016676           -5.5565561
 Traceless XX        :          4.1080506           -4.1338892           -0.0258386
 Traceless YY        :          4.1080506           -4.1338892           -0.0258386
 Traceless ZZ        :         -8.2161012            8.2677784            0.0516772

 ------------------------------------------------------------------------------------
  ==> Computing MBIS Charges <==

  Electron Count from Grid (Expected Number): 14.00000 (14.00000)
  Difference: -0.00000

  MBIS Charges: (a.u.)
   Center  Symbol  Z      Pop.       Charge
      1       O    8    7.591597    0.408403
      2       N    7    6.408403    0.591597

  MBIS Dipoles: [e a0]
   Center  Symbol  Z        X           Y           Z
      1       O    8   -0.000000    0.000000   -0.062106
      2       N    7    0.000000    0.000000   -0.093797

  MBIS Quadrupoles: [e a0^2]
   Center  Symbol  Z      XX        XY        XZ        YY        YZ        ZZ
      1       O    8   -2.8301   -0.0000   -0.0000   -2.8301   -0.0000   -3.0825
      2       N    7   -2.8040   -0.0000    0.0000   -2.8040    0.0000   -3.2517

  MBIS Octupoles: [e a0^3]
   Center  Symbol  Z      XXX       XXY       XXZ       XYY       XYZ       XZZ       YYY       YYZ       YZZ       ZZZ
      1       O    8    0.0000   -0.0000   -0.0266    0.0000    0.0000    0.0000   -0.0000   -0.0266    0.0000   -0.0770
      2       N    7    0.0000   -0.0000   -0.0465    0.0000   -0.0000    0.0000   -0.0000   -0.0465    0.0000   -0.1913

  MBIS Radial Moments:
   Center  Symbol  Z      [a0^2]      [a0^3]      [a0^4]
      1       O    8    8.742704   14.608283   29.246063
      2       N    7    8.859701   16.534854   36.837941

  MBIS Valence Widths: [a0]
   Center  Symbol  Z     Width
      1       O    8    0.350742
      2       N    7    0.395239

*** tstop() called on Mac.lan at Sun Aug 10 18:40:24 2025
Module time:
	user time   =      17.40 seconds =       0.29 minutes
	system time =       2.89 seconds =       0.05 minutes
	total time  =          2 seconds =       0.03 minutes
Total time:
	user time   =      97.42 seconds =       1.62 minutes
	system time =       8.23 seconds =       0.14 minutes
	total time  =         11 seconds =       0.18 minutes

    Psi4 stopped on: Sunday, 10 August 2025 06:40PM
    Psi4 wall time for execution: 0:00:10.74

*** Psi4 exiting successfully. Buy a developer a beer!
