                               Psi4 1.9.1 release

  ==> Input File <==

--------------------------------------------------------------------------
molecule {
1 1
O           0.000000           0.000000           0.000000
N           0.000000           0.000000           0.653775
}

set {
basis              cc-pvtz
reference          uks
maxiter            500
DAMPING_PERCENTAGE 1
E_CONVERGENCE      1.0E-8
D_CONVERGENCE      1.0E-8
DIIS_MAX_VECS      400
MBIS_MAXITER       8000
guess              read
}

E, wfn = energy('b3lyp', restart_file='last_wfn', return_wfn=True)
properties('b3lyp','MBIS_CHARGES', wfn=wfn)
wfn.to_file('last_wfn')
--------------------------------------------------------------------------

    Molecular point group: c2v
  Charge       = 1
  Multiplicity = 1
  Basis Set: CC-PVTZ
    Blend: CC-PVTZ
  Basis Set: (CC-PVTZ AUX)
    Blend: CC-PVTZ-JKFIT
  @DF-UKS Final Energy:  -127.92249444879596
    Total Energy =                       -127.9224944487959590
 Dipole X            :          0.0000000            0.0000000            0.0000000
 Dipole Y            :          0.0000000            0.0000000            0.0000000
 Dipole Z            :         -0.1466185           -0.0024789           -0.1490974
 Magnitude           :                                                    0.1490974
    Molecular point group: c2v

    Geometry (in Angstrom), charge = 1, multiplicity = 1:

       Center              X                  Y                   Z               Mass
    ------------   -----------------  -----------------  -----------------  -----------------
         O            0.000000000000     0.000000000000    -0.305182451463    15.994914619570
         N            0.000000000000     0.000000000000     0.348592548537    14.003074004430

  Charge       = 1
  Multiplicity = 1
  Basis Set: CC-PVTZ
    Blend: CC-PVTZ
  Basis Set: (CC-PVTZ AUX)
    Blend: CC-PVTZ-JKFIT

    Orbital Energies [Eh]
    ---------------------

    Alpha Occupied:

       1A1   -19.774850     2A1   -14.903642     3A1    -2.046886
       1B2    -1.326808     1B1    -1.326808     4A1    -1.085052
       5A1    -0.902524

    Alpha Virtual:

       2B2    -0.194482     2B1    -0.194482     6A1    -0.068280
       3B1     0.004692     3B2     0.004692     7A1     0.087489
       8A1     0.215931     4B2     0.354519     4B1     0.354519
       1A2     0.490306     9A1     0.490306    10A1     0.875885
       5B1     1.059206     5B2     1.059206    11A1     1.080092
      12A1     1.321433     2A2     1.321433     6B1     1.606858
       6B2     1.606858    13A1     1.613741     7B1     2.240105
       7B2     2.240105    14A1     2.795972    15A1     3.037007
       8B2     3.241408     8B1     3.241408     3A2     3.554908
      16A1     3.554908     9B1     3.672259     9B2     3.672259
      17A1     3.685120     4A2     3.931657    18A1     3.931657
      10B2     4.009171    10B1     4.009171    19A1     4.375978
      11B1     4.888803    11B2     4.888803    12B1     4.937695
      12B2     4.937695    20A1     5.580007     5A2     5.580008
      21A1     5.888302    13B2     6.532778    13B1     6.532778
      22A1     6.849318     6A2     6.849318    23A1     6.965161
      14B2     8.631876    14B1     8.631876    24A1     8.898878
      25A1    10.248304    26A1    27.279995

    Beta Occupied:

       1A1   -19.774850     2A1   -14.903642     3A1    -2.046886
       1B2    -1.326808     1B1    -1.326808     4A1    -1.085052
       5A1    -0.902524

    Beta Virtual:

       2B2    -0.194482     2B1    -0.194482     6A1    -0.068280
       3B1     0.004692     3B2     0.004692     7A1     0.087489
       8A1     0.215931     4B2     0.354519     4B1     0.354519
       1A2     0.490306     9A1     0.490306    10A1     0.875885
       5B1     1.059206     5B2     1.059206    11A1     1.080092
      12A1     1.321433     2A2     1.321433     6B1     1.606858
       6B2     1.606858    13A1     1.613741     7B1     2.240105
       7B2     2.240105    14A1     2.795972    15A1     3.037007
       8B2     3.241408     8B1     3.241408     3A2     3.554908
      16A1     3.554908     9B1     3.672259     9B2     3.672259
      17A1     3.685120     4A2     3.931657    18A1     3.931657
      10B2     4.009171    10B1     4.009171    19A1     4.375978
      11B1     4.888803    11B2     4.888803    12B1     4.937695
      12B2     4.937695    20A1     5.580007     5A2     5.580008
      21A1     5.888302    13B2     6.532778    13B1     6.532778
      22A1     6.849318     6A2     6.849318    23A1     6.965161
      14B2     8.631876    14B1     8.631876    24A1     8.898878
      25A1    10.248304    26A1    27.279995

    Final Occupation by Irrep:
             A1    A2    B1    B2
    DOCC [     5,    0,    1,    1 ]
    SOCC [     0,    0,    0,    0 ]
    NA   [     5,    0,    1,    1 ]
    NB   [     5,    0,    1,    1 ]

  @DF-UKS Final Energy:  -127.92249444898316

   => Energetics <=

    Nuclear Repulsion Energy =             45.3274043784482430
    One-Electron Energy =                -254.5109363930021686
    Two-Electron Energy =                  94.1707643216054038
    DFT Exchange-Correlation Energy =     -12.9097267560346456
    Empirical Dispersion Energy =           0.0000000000000000
    VV10 Nonlocal Energy =                  0.0000000000000000
    Total Energy =                       -127.9224944489831586

  UHF NO Occupations:
  HONO-2 :    5 A1 2.0000000
  HONO-1 :    1 B1 2.0000000
  HONO-0 :    1 B2 2.0000000
  LUNO+0 :    6 A1 0.0000000
  LUNO+1 :    7 A1 0.0000000
  LUNO+2 :    8 A1 0.0000000
  LUNO+3 :    9 A1 0.0000000

Computation Completed

Properties will be evaluated at   0.000000,   0.000000,   0.000000 [a0]

Properties computed using the B3LYP density matrix

 Multipole Moments:

 ------------------------------------------------------------------------------------
     Multipole            Electronic (a.u.)      Nuclear  (a.u.)        Total (a.u.)
 ------------------------------------------------------------------------------------

 L = 1.  Multiply by 2.5417464519 to convert [e a0] to [Debye]
 Dipole X            :          0.0000000            0.0000000            0.0000000
 Dipole Y            :          0.0000000            0.0000000            0.0000000
 Dipole Z            :         -0.1466185           -0.0024789           -0.1490974
 Magnitude           :                                                    0.1490974

 L = 2.  Multiply by 1.3450342976 to convert [e a0^2] to [Debye ang]
 Quadrupole XX       :         -4.8687427            0.0000000           -4.8687427
 Quadrupole XY       :          0.0000000            0.0000000            0.0000000
 Quadrupole XZ       :          0.0000000            0.0000000            0.0000000
 Quadrupole YY       :         -4.8687427            0.0000000           -4.8687427
 Quadrupole YZ       :          0.0000000            0.0000000            0.0000000
 Quadrupole ZZ       :        -11.3717526            5.6983767           -5.6733760
 Traceless XX        :          2.1676700           -1.8994589            0.2682111
 Traceless YY        :          2.1676700           -1.8994589            0.2682111
 Traceless ZZ        :         -4.3353400            3.7989178           -0.5364222

 ------------------------------------------------------------------------------------
  ==> Computing MBIS Charges <==

  Electron Count from Grid (Expected Number): 14.00000 (14.00000)
  Difference: -0.00000

  MBIS Charges: (a.u.)
   Center  Symbol  Z      Pop.       Charge
      1       O    8    7.447086    0.552914
      2       N    7    6.552913    0.447087

  MBIS Dipoles: [e a0]
   Center  Symbol  Z        X           Y           Z
      1       O    8   -0.000000    0.000000    0.024045
      2       N    7    0.000000    0.000000   -0.148787

  MBIS Quadrupoles: [e a0^2]
   Center  Symbol  Z      XX        XY        XZ        YY        YZ        ZZ
      1       O    8   -2.3227   -0.0000    0.0000   -2.3227    0.0000   -2.7163
      2       N    7   -2.5461    0.0000   -0.0000   -2.5461    0.0000   -3.1112

  MBIS Octupoles: [e a0^3]
   Center  Symbol  Z      XXX       XXY       XXZ       XYY       XYZ       XZZ       YYY       YYZ       YZZ       ZZZ
      1       O    8   -0.0000   -0.0000    0.0566    0.0000   -0.0000    0.0000   -0.0000    0.0566   -0.0000    0.2517
      2       N    7    0.0000   -0.0000   -0.1990    0.0000   -0.0000    0.0000   -0.0000   -0.1990    0.0000   -0.5648

  MBIS Radial Moments:
   Center  Symbol  Z      [a0^2]      [a0^3]      [a0^4]
      1       O    8    7.361645   11.484581   21.563799
      2       N    7    8.203364   14.753709   31.923937

  MBIS Valence Widths: [a0]
   Center  Symbol  Z     Width
      1       O    8    0.322927
      2       N    7    0.370883

*** tstop() called on Mac.lan at Sun Aug 10 18:41:49 2025
Module time:
	user time   =       4.99 seconds =       0.08 minutes
	system time =       2.51 seconds =       0.04 minutes
	total time  =          0 seconds =       0.00 minutes
Total time:
	user time   =      17.91 seconds =       0.30 minutes
	system time =       4.54 seconds =       0.08 minutes
	total time  =          2 seconds =       0.03 minutes

    Psi4 stopped on: Sunday, 10 August 2025 06:41PM
    Psi4 wall time for execution: 0:00:02.21

*** Psi4 exiting successfully. Buy a developer a beer!
