                               Psi4 1.9.1 release

  ==> Input File <==

--------------------------------------------------------------------------
molecule {
1 3
N           0.000000           0.000000           0.000000
C           0.000000           0.000000           1.349693
}

set {
basis              cc-pvtz
reference          uks
maxiter            500
DAMPING_PERCENTAGE 1
E_CONVERGENCE      1.0E-8
D_CONVERGENCE      1.0E-8
DIIS_MAX_VECS      400
MBIS_MAXITER       8000
guess              read
}

E, wfn = energy('b3lyp', restart_file='last_wfn', return_wfn=True)
properties('b3lyp','MBIS_CHARGES', wfn=wfn)
wfn.to_file('last_wfn')
--------------------------------------------------------------------------

    Molecular point group: c2v
  Charge       = 1
  Multiplicity = 3
  Basis Set: CC-PVTZ
    Blend: CC-PVTZ
  Basis Set: (CC-PVTZ AUX)
    Blend: CC-PVTZ-JKFIT
  @DF-UKS Final Energy:   -92.21555633946480
    Total Energy =                        -92.2155563394647686
 Dipole X            :          0.0000000            0.0000000            0.0000000
 Dipole Y            :          0.0000000            0.0000000            0.0000000
 Dipole Z            :          0.6598288            0.0018091            0.6616379
 Magnitude           :                                                    0.6616379
    Molecular point group: c2v

    Geometry (in Angstrom), charge = 1, multiplicity = 3:

       Center              X                  Y                   Z               Mass
    ------------   -----------------  -----------------  -----------------  -----------------
         N            0.000000000000     0.000000000000    -0.622861589258    14.003074004430
         C            0.000000000000     0.000000000000     0.726831410742    12.000000000000

  Charge       = 1
  Multiplicity = 3
  Basis Set: CC-PVTZ
    Blend: CC-PVTZ
  Basis Set: (CC-PVTZ AUX)
    Blend: CC-PVTZ-JKFIT

    Orbital Energies [Eh]
    ---------------------

    Alpha Occupied:

       1A1   -14.863408     2A1   -10.780635     3A1    -1.332004
       4A1    -0.920038     1B1    -0.788232     5A1    -0.787569
       1B2    -0.746486

    Alpha Virtual:

       2B1    -0.478629     2B2    -0.447219     6A1    -0.133042
       3B1     0.003409     7A1     0.006368     3B2     0.013116
       8A1     0.029324     9A1     0.151966     4B1     0.195658
       4B2     0.214062     1A2     0.282260    10A1     0.282722
       5B1     0.402891     5B2     0.424708    11A1     0.561666
      12A1     0.750811     2A2     0.750819    13A1     0.763999
       6B1     1.077008     6B2     1.099464    14A1     1.313943
       7B1     1.575257     7B2     1.594893    15A1     1.753111
       8B1     2.242203     8B2     2.242448     9B1     2.248707
       3A2     2.252191    16A1     2.252275     9B2     2.278094
      10B1     2.483444    17A1     2.487565     4A2     2.504149
      18A1     2.504529    10B2     2.512948    19A1     2.547496
      11B1     2.881009    11B2     2.907376    20A1     3.043452
      12B1     3.472610    12B2     3.472756    21A1     3.752424
       5A2     3.752658    22A1     4.052759     6A2     4.053046
      13B1     4.180041    23A1     4.188990    13B2     4.218252
      24A1     4.668029    14B1     4.697984    14B2     4.728251
      25A1     5.017478    26A1     9.031949

    Beta Occupied:

       1A1   -14.842270     2A1   -10.760407     3A1    -1.262271
       4A1    -0.824613     1B2    -0.724694

    Beta Virtual:

       1B1    -0.613321     5A1    -0.607144     2B2    -0.415234
       2B1    -0.378035     6A1    -0.097981     3B2     0.019402
       3B1     0.025158     7A1     0.035955     8A1     0.081062
       9A1     0.179147     4B2     0.220074     4B1     0.231138
       1A2     0.309201    10A1     0.311227     5B2     0.457113
       5B1     0.462660    11A1     0.587729     2A2     0.784579
      12A1     0.787253    13A1     0.809016     6B2     1.123591
       6B1     1.129436    14A1     1.352557     7B2     1.610772
       7B1     1.618576    15A1     1.814428     8B2     2.278554
       8B1     2.279276     3A2     2.294384    16A1     2.296836
       9B2     2.303925     9B1     2.320185    17A1     2.548307
      10B2     2.556067     4A2     2.557832    18A1     2.562309
      10B1     2.571924    19A1     2.619520    11B2     2.956205
      11B1     2.964478    20A1     3.109634    12B2     3.518109
      12B1     3.519485     5A2     3.801459    21A1     3.806017
       6A2     4.110667    22A1     4.116748    23A1     4.245040
      13B2     4.253566    13B1     4.275170    24A1     4.723465
      14B2     4.760732    14B1     4.768668    25A1     5.056702
      26A1     9.069359

    Final Occupation by Irrep:
             A1    A2    B1    B2
    DOCC [     4,    0,    0,    1 ]
    SOCC [     1,    0,    1,    0 ]
    NA   [     5,    0,    1,    1 ]
    NB   [     4,    0,    0,    1 ]

  @DF-UKS Final Energy:   -92.21555634338408

   => Energetics <=

    Nuclear Repulsion Energy =             16.4670357245240204
    One-Electron Energy =                -151.9246720985653383
    Two-Electron Energy =                  52.6862309066464434
    DFT Exchange-Correlation Energy =      -9.4441508759891910
    Empirical Dispersion Energy =           0.0000000000000000
    VV10 Nonlocal Energy =                  0.0000000000000000
    Total Energy =                        -92.2155563433840797

  UHF NO Occupations:
  HONO-2 :    4 A1 1.9983717
  HONO-1 :    5 A1 1.0000000
  HONO-0 :    1 B1 1.0000000
  LUNO+0 :    6 A1 0.0016283
  LUNO+1 :    2 B2 0.0004359
  LUNO+2 :    7 A1 0.0003355
  LUNO+3 :    8 A1 0.0000005

Computation Completed

Properties will be evaluated at   0.000000,   0.000000,   0.000000 [a0]

Properties computed using the B3LYP density matrix

 Multipole Moments:

 ------------------------------------------------------------------------------------
     Multipole            Electronic (a.u.)      Nuclear  (a.u.)        Total (a.u.)
 ------------------------------------------------------------------------------------

 L = 1.  Multiply by 2.5417464519 to convert [e a0] to [Debye]
 Dipole X            :          0.0000000            0.0000000            0.0000000
 Dipole Y            :          0.0000000            0.0000000            0.0000000
 Dipole Z            :          0.6598290            0.0018091            0.6616381
 Magnitude           :                                                    0.6616381

 L = 2.  Multiply by 1.3450342976 to convert [e a0^2] to [Debye ang]
 Quadrupole XX       :         -5.8963749            0.0000000           -5.8963749
 Quadrupole XY       :          0.0000000            0.0000000            0.0000000
 Quadrupole XZ       :          0.0000000            0.0000000            0.0000000
 Quadrupole YY       :         -6.9587633            0.0000000           -6.9587633
 Quadrupole YZ       :          0.0000000            0.0000000            0.0000000
 Quadrupole ZZ       :        -25.2964589           21.0171425           -4.2793164
 Traceless XX        :          6.8208241           -7.0057142           -0.1848900
 Traceless YY        :          5.7584357           -7.0057142           -1.2472784
 Traceless ZZ        :        -12.5792598           14.0114283            1.4321685

 ------------------------------------------------------------------------------------
  ==> Computing MBIS Charges <==

  Electron Count from Grid (Expected Number): 12.00000 (12.00000)
  Difference:  0.00000

  MBIS Charges: (a.u.)
   Center  Symbol  Z      Pop.       Charge
      1       N    7    6.746228    0.253772
      2       C    6    5.253772    0.746228

  MBIS Dipoles: [e a0]
   Center  Symbol  Z        X           Y           Z
      1       N    7    0.000000   -0.000000   -0.208197
      2       C    6   -0.000000    0.000000    0.143582

  MBIS Quadrupoles: [e a0^2]
   Center  Symbol  Z      XX        XY        XZ        YY        YZ        ZZ
      1       N    7   -3.1874    0.0000    0.0000   -3.7563    0.0000   -3.7272
      2       C    6   -2.7089    0.0000    0.0000   -3.2024    0.0000   -3.1960

  MBIS Octupoles: [e a0^3]
   Center  Symbol  Z      XXX       XXY       XXZ       XYY       XYZ       XZZ       YYY       YYZ       YZZ       ZZZ
      1       N    7   -0.0000   -0.0000   -0.1592   -0.0000    0.0000   -0.0000   -0.0000   -0.3173   -0.0000   -0.6513
      2       C    6   -0.0000   -0.0000    0.1021   -0.0000   -0.0000   -0.0000   -0.0000    0.2737   -0.0000    0.4177

  MBIS Radial Moments:
   Center  Symbol  Z      [a0^2]      [a0^3]      [a0^4]
      1       N    7   10.671016   21.164052   50.024663
      2       C    6    9.107341   19.584114   50.144111

  MBIS Valence Widths: [a0]
   Center  Symbol  Z     Width
      1       N    7    0.421276
      2       C    6    0.463944

*** tstop() called on Mac.lan at Sun Aug 10 18:33:52 2025
Module time:
	user time   =       5.61 seconds =       0.09 minutes
	system time =       2.18 seconds =       0.04 minutes
	total time  =          1 seconds =       0.02 minutes
Total time:
	user time   =      31.29 seconds =       0.52 minutes
	system time =       5.18 seconds =       0.09 minutes
	total time  =          4 seconds =       0.07 minutes

    Psi4 stopped on: Sunday, 10 August 2025 06:33PM
    Psi4 wall time for execution: 0:00:03.69

*** Psi4 exiting successfully. Buy a developer a beer!
