                               Psi4 1.9.1 release

  ==> Input File <==

--------------------------------------------------------------------------
molecule {
1 4
C           0.000000           0.000000           0.000000
C           0.000000           0.000000           0.883034
}

set {
basis              cc-pvtz
reference          uks
maxiter            500
DAMPING_PERCENTAGE 1
E_CONVERGENCE      1.0E-8
D_CONVERGENCE      1.0E-8
DIIS_MAX_VECS      400
MBIS_MAXITER       8000
guess              read
}

E, wfn = energy('b3lyp', restart_file='last_wfn', return_wfn=True)
properties('b3lyp','MBIS_CHARGES', wfn=wfn)
wfn.to_file('last_wfn')
--------------------------------------------------------------------------

    Molecular point group: d2h
  Charge       = 1
  Multiplicity = 4
  Basis Set: CC-PVTZ
    Blend: CC-PVTZ
  Basis Set: (CC-PVTZ AUX)
    Blend: CC-PVTZ-JKFIT
  @DF-UKS Final Energy:   -75.00896241659970
    Total Energy =                        -75.0089624165997009
 Dipole X            :          0.0000000            0.0000000            0.0000000
 Dipole Y            :          0.0000000            0.0000000            0.0000000
 Dipole Z            :          0.0000000           -0.0000000           -0.0000000
 Magnitude           :                                                    0.0000000
    Molecular point group: d2h

    Geometry (in Angstrom), charge = 1, multiplicity = 4:

       Center              X                  Y                   Z               Mass
    ------------   -----------------  -----------------  -----------------  -----------------
         C            0.000000000000     0.000000000000    -0.441517000000    12.000000000000
         C            0.000000000000     0.000000000000     0.441517000000    12.000000000000

  Charge       = 1
  Multiplicity = 4
  Basis Set: CC-PVTZ
    Blend: CC-PVTZ
  Basis Set: (CC-PVTZ AUX)
    Blend: CC-PVTZ-JKFIT

    Orbital Energies [Eh]
    ---------------------

    Alpha Occupied:

       1Ag   -10.672166     1B1u  -10.633444     2Ag    -1.306454
       1B2u   -0.884287     1B3u   -0.834127     2B1u   -0.785505
       3Ag    -0.773390

    Alpha Virtual:

       1B3g   -0.252134     1B2g   -0.224457     2B2u   -0.047166
       3B1u   -0.043106     2B3u   -0.034922     4Ag    -0.004498
       5Ag     0.039692     2B3g    0.140702     2B2g    0.153551
       1B1g    0.217398     6Ag     0.218268     4B1u    0.331817
       3B2u    0.527632     3B3u    0.548091     5B1u    0.576243
       1Au     0.611222     6B1u    0.613939     7Ag     0.751611
       3B3g    0.841020     3B2g    0.855405     4B2u    1.377293
       4B3u    1.412390     7B1u    1.702408     8Ag     1.853960
       4B3g    2.006007     5B2u    2.024705     5B3u    2.025010
       4B2g    2.033249     2B1g    2.069502     9Ag     2.071731
       8B1u    2.129289     6B2u    2.270356     6B3u    2.302787
      10Ag     2.451547     9B1u    2.534345     2Au     2.534565
       5B3g    2.609775     5B2g    2.634736     3B1g    2.656769
      11Ag     2.657204     6B3g    2.693561     6B2g    2.694350
      12Ag     3.078799    10B1u    3.221406     7B2u    3.560936
       7B3u    3.592357     3Au     3.773278    11B1u    3.773573
       7B3g    4.972447    12B1u    4.990500     7B2g    5.005091
      13Ag     5.755801    13B1u   18.486835

    Beta Occupied:

       1Ag   -10.636133     1B1u  -10.599082     2Ag    -1.211087
       1B3u   -0.790795

    Beta Virtual:

       1B2u   -0.667031     2B1u   -0.525492     3Ag    -0.508040
       1B2g   -0.166170     1B3g   -0.142035     2B3u   -0.028718
       2B2u   -0.019762     3B1u   -0.011196     4Ag     0.028273
       5Ag     0.106519     2B2g    0.177204     2B3g    0.196327
       1B1g    0.252853     6Ag     0.257109     4B1u    0.384446
       3B3u    0.600127     3B2u    0.612065     1Au     0.644941
       5B1u    0.650379     6B1u    0.657767     7Ag     0.826380
       3B2g    0.886795     3B3g    0.902037     4B3u    1.434699
       4B2u    1.448854     7B1u    1.837838     8Ag     1.918808
       4B2g    2.063647     5B3u    2.074327     4B3g    2.075579
       5B2u    2.076897     2B1g    2.123517     9Ag     2.129492
       8B1u    2.206417     6B3u    2.403591     6B2u    2.435044
      10Ag     2.620310     2Au     2.626956     9B1u    2.640374
       5B2g    2.736104     6B2g    2.750594     3B1g    2.751349
       5B3g    2.753434    11Ag     2.764558     6B3g    2.766805
      12Ag     3.165174    10B1u    3.360541     7B3u    3.665806
       7B2u    3.688677     3Au     3.841124    11B1u    3.851012
       7B2g    5.077214    12B1u    5.087896     7B3g    5.104869
      13Ag     5.832749    13B1u   18.549644

    Final Occupation by Irrep:
             Ag   B1g   B2g   B3g    Au   B1u   B2u   B3u
    DOCC [     2,    0,    0,    0,    0,    1,    0,    1 ]
    SOCC [     1,    0,    0,    0,    0,    1,    1,    0 ]
    NA   [     3,    0,    0,    0,    0,    2,    1,    1 ]
    NB   [     2,    0,    0,    0,    0,    1,    0,    1 ]

  @DF-UKS Final Energy:   -75.00896241776564

   => Energetics <=

    Nuclear Repulsion Energy =             21.5737781151348678
    One-Electron Energy =                -137.7696461939274002
    Two-Electron Energy =                  49.8968140041219783
    DFT Exchange-Correlation Energy =      -8.7099083430950994
    Empirical Dispersion Energy =           0.0000000000000000
    VV10 Nonlocal Energy =                  0.0000000000000000
    Total Energy =                        -75.0089624177656447

  UHF NO Occupations:
  HONO-2 :    3 Ag 1.0000000
  HONO-1 :    1B2u 1.0000000
  HONO-0 :    2B1u 1.0000000
  LUNO+0 :    4 Ag 0.0005241
  LUNO+1 :    2B3u 0.0003848
  LUNO+2 :    3B1u 0.0000014
  LUNO+3 :    5 Ag 0.0000011

Computation Completed

Properties will be evaluated at   0.000000,   0.000000,   0.000000 [a0]

Properties computed using the B3LYP density matrix

 Multipole Moments:

 ------------------------------------------------------------------------------------
     Multipole            Electronic (a.u.)      Nuclear  (a.u.)        Total (a.u.)
 ------------------------------------------------------------------------------------

 L = 1.  Multiply by 2.5417464519 to convert [e a0] to [Debye]
 Dipole X            :          0.0000000            0.0000000            0.0000000
 Dipole Y            :          0.0000000            0.0000000            0.0000000
 Dipole Z            :          0.0000000           -0.0000000           -0.0000000
 Magnitude           :                                                    0.0000000

 L = 2.  Multiply by 1.3450342976 to convert [e a0^2] to [Debye ang]
 Quadrupole XX       :         -6.0858570            0.0000000           -6.0858570
 Quadrupole XY       :          0.0000000            0.0000000            0.0000000
 Quadrupole XZ       :          0.0000000            0.0000000            0.0000000
 Quadrupole YY       :         -5.1588566            0.0000000           -5.1588566
 Quadrupole YZ       :          0.0000000            0.0000000            0.0000000
 Quadrupole ZZ       :        -12.7649189            8.3536032           -4.4113157
 Traceless XX        :          1.9173538           -2.7845344           -0.8671806
 Traceless YY        :          2.8443542           -2.7845344            0.0598198
 Traceless ZZ        :         -4.7617080            5.5690688            0.8073607

 ------------------------------------------------------------------------------------
  ==> Computing MBIS Charges <==

  Electron Count from Grid (Expected Number): 11.00000 (11.00000)
  Difference:  0.00000

  MBIS Charges: (a.u.)
   Center  Symbol  Z      Pop.       Charge
      1       C    6    5.500000    0.500000
      2       C    6    5.500000    0.500000

  MBIS Dipoles: [e a0]
   Center  Symbol  Z        X           Y           Z
      1       C    6   -0.000000    0.000000   -0.261506
      2       C    6   -0.000000   -0.000000    0.261506

  MBIS Quadrupoles: [e a0^2]
   Center  Symbol  Z      XX        XY        XZ        YY        YZ        ZZ
      1       C    6   -3.0429    0.0000   -0.0000   -2.5794   -0.0000   -2.9901
      2       C    6   -3.0429    0.0000    0.0000   -2.5794    0.0000   -2.9901

  MBIS Octupoles: [e a0^3]
   Center  Symbol  Z      XXX       XXY       XXZ       XYY       XYZ       XZZ       YYY       YYZ       YZZ       ZZZ
      1       C    6   -0.0000   -0.0000   -0.2179   -0.0000    0.0000   -0.0000    0.0000   -0.0936    0.0000   -0.0686
      2       C    6   -0.0000   -0.0000    0.2179   -0.0000   -0.0000   -0.0000    0.0000    0.0936    0.0000    0.0686

  MBIS Radial Moments:
   Center  Symbol  Z      [a0^2]      [a0^3]      [a0^4]
      1       C    6    8.612454   17.550840   42.860241
      2       C    6    8.612454   17.550840   42.860241

  MBIS Valence Widths: [a0]
   Center  Symbol  Z     Width
      1       C    6    0.431462
      2       C    6    0.431462

*** tstop() called on Mac.lan at Sun Aug 10 18:15:51 2025
Module time:
	user time   =       3.80 seconds =       0.06 minutes
	system time =       2.44 seconds =       0.04 minutes
	total time  =          0 seconds =       0.00 minutes
Total time:
	user time   =      14.77 seconds =       0.25 minutes
	system time =       4.71 seconds =       0.08 minutes
	total time  =          2 seconds =       0.03 minutes

    Psi4 stopped on: Sunday, 10 August 2025 06:15PM
    Psi4 wall time for execution: 0:00:01.90

*** Psi4 exiting successfully. Buy a developer a beer!
