                               Psi4 1.9.1 release

  ==> Input File <==

--------------------------------------------------------------------------
molecule {
1 1
O           0.000000           0.000000           0.000000
N           0.000000           0.000000           0.673194
}

set {
basis              cc-pvtz
reference          uks
maxiter            500
DAMPING_PERCENTAGE 1
E_CONVERGENCE      1.0E-8
D_CONVERGENCE      1.0E-8
DIIS_MAX_VECS      400
MBIS_MAXITER       8000
guess              read
}

E, wfn = energy('b3lyp', restart_file='last_wfn', return_wfn=True)
properties('b3lyp','MBIS_CHARGES', wfn=wfn)
wfn.to_file('last_wfn')
--------------------------------------------------------------------------

    Molecular point group: c2v
  Charge       = 1
  Multiplicity = 1
  Basis Set: CC-PVTZ
    Blend: CC-PVTZ
  Basis Set: (CC-PVTZ AUX)
    Blend: CC-PVTZ-JKFIT
  @DF-UKS Final Energy:  -128.17471352902754
    Total Energy =                       -128.1747135290275423
 Dipole X            :          0.0000000            0.0000000            0.0000000
 Dipole Y            :          0.0000000            0.0000000            0.0000000
 Dipole Z            :         -0.1366439           -0.0025525           -0.1391964
 Magnitude           :                                                    0.1391964
    Molecular point group: c2v

    Geometry (in Angstrom), charge = 1, multiplicity = 1:

       Center              X                  Y                   Z               Mass
    ------------   -----------------  -----------------  -----------------  -----------------
         O            0.000000000000     0.000000000000    -0.314247249024    15.994914619570
         N            0.000000000000     0.000000000000     0.358946750976    14.003074004430

  Charge       = 1
  Multiplicity = 1
  Basis Set: CC-PVTZ
    Blend: CC-PVTZ
  Basis Set: (CC-PVTZ AUX)
    Blend: CC-PVTZ-JKFIT

    Orbital Energies [Eh]
    ---------------------

    Alpha Occupied:

       1A1   -19.766097     2A1   -14.893321     3A1    -2.053045
       1B2    -1.302225     1B1    -1.302225     4A1    -1.084514
       5A1    -0.905894

    Alpha Virtual:

       2B1    -0.211933     2B2    -0.211933     6A1    -0.067473
       3B2     0.008707     3B1     0.008707     7A1     0.089464
       8A1     0.213136     4B1     0.345831     4B2     0.345831
       1A2     0.490938     9A1     0.490938    10A1     0.870609
       5B1     1.044676     5B2     1.044676    11A1     1.053072
      12A1     1.313749     2A2     1.313749    13A1     1.619326
       6B2     1.627308     6B1     1.627308     7B2     2.230892
       7B1     2.230892    14A1     2.788499    15A1     2.975495
       8B1     3.243667     8B2     3.243667     3A2     3.550771
      16A1     3.550771    17A1     3.637342     9B1     3.654801
       9B2     3.654801     4A2     3.931580    18A1     3.931580
      10B2     3.981949    10B1     3.981949    19A1     4.345105
      11B2     4.833340    11B1     4.833340    12B2     4.912599
      12B1     4.912599    20A1     5.594493     5A2     5.594494
      21A1     5.851721    13B2     6.454308    13B1     6.454308
      22A1     6.730427     6A2     6.730427    23A1     6.897093
      14B2     8.548772    14B1     8.548772    24A1     8.630377
      25A1    10.300733    26A1    26.804497

    Beta Occupied:

       1A1   -19.766097     2A1   -14.893321     3A1    -2.053045
       1B2    -1.302225     1B1    -1.302225     4A1    -1.084514
       5A1    -0.905894

    Beta Virtual:

       2B1    -0.211933     2B2    -0.211933     6A1    -0.067473
       3B2     0.008707     3B1     0.008707     7A1     0.089464
       8A1     0.213136     4B1     0.345831     4B2     0.345831
       1A2     0.490938     9A1     0.490938    10A1     0.870609
       5B1     1.044676     5B2     1.044676    11A1     1.053072
      12A1     1.313749     2A2     1.313749    13A1     1.619326
       6B2     1.627308     6B1     1.627308     7B2     2.230892
       7B1     2.230892    14A1     2.788499    15A1     2.975495
       8B1     3.243667     8B2     3.243667     3A2     3.550771
      16A1     3.550771    17A1     3.637342     9B1     3.654801
       9B2     3.654801     4A2     3.931580    18A1     3.931580
      10B2     3.981949    10B1     3.981949    19A1     4.345105
      11B2     4.833340    11B1     4.833340    12B2     4.912599
      12B1     4.912599    20A1     5.594493     5A2     5.594494
      21A1     5.851721    13B2     6.454308    13B1     6.454308
      22A1     6.730427     6A2     6.730427    23A1     6.897093
      14B2     8.548772    14B1     8.548772    24A1     8.630377
      25A1    10.300733    26A1    26.804497

    Final Occupation by Irrep:
             A1    A2    B1    B2
    DOCC [     5,    0,    1,    1 ]
    SOCC [     0,    0,    0,    0 ]
    NA   [     5,    0,    1,    1 ]
    NB   [     5,    0,    1,    1 ]

  @DF-UKS Final Energy:  -128.17471352365570

   => Energetics <=

    Nuclear Repulsion Energy =             44.0198869828311103
    One-Electron Energy =                -252.5590131236722300
    Two-Electron Energy =                  93.2157052983954770
    DFT Exchange-Correlation Energy =     -12.8512926812100545
    Empirical Dispersion Energy =           0.0000000000000000
    VV10 Nonlocal Energy =                  0.0000000000000000
    Total Energy =                       -128.1747135236556971

  UHF NO Occupations:
  HONO-2 :    3 A1 2.0000000
  HONO-1 :    4 A1 2.0000000
  HONO-0 :    5 A1 2.0000000
  LUNO+0 :    6 A1 0.0000000
  LUNO+1 :    7 A1 0.0000000
  LUNO+2 :    8 A1 0.0000000
  LUNO+3 :    9 A1 0.0000000

Computation Completed

Properties will be evaluated at   0.000000,   0.000000,   0.000000 [a0]

Properties computed using the B3LYP density matrix

 Multipole Moments:

 ------------------------------------------------------------------------------------
     Multipole            Electronic (a.u.)      Nuclear  (a.u.)        Total (a.u.)
 ------------------------------------------------------------------------------------

 L = 1.  Multiply by 2.5417464519 to convert [e a0] to [Debye]
 Dipole X            :          0.0000000            0.0000000            0.0000000
 Dipole Y            :          0.0000000            0.0000000            0.0000000
 Dipole Z            :         -0.1366439           -0.0025525           -0.1391964
 Magnitude           :                                                    0.1391964

 L = 2.  Multiply by 1.3450342976 to convert [e a0^2] to [Debye ang]
 Quadrupole XX       :         -4.9262716            0.0000000           -4.9262716
 Quadrupole XY       :          0.0000000            0.0000000            0.0000000
 Quadrupole XZ       :          0.0000000            0.0000000            0.0000000
 Quadrupole YY       :         -4.9262716            0.0000000           -4.9262716
 Quadrupole YZ       :          0.0000000            0.0000000            0.0000000
 Quadrupole ZZ       :        -11.7196074            6.0419205           -5.6776869
 Traceless XX        :          2.2644453           -2.0139735            0.2504718
 Traceless YY        :          2.2644453           -2.0139735            0.2504718
 Traceless ZZ        :         -4.5288905            4.0279470           -0.5009435

 ------------------------------------------------------------------------------------
  ==> Computing MBIS Charges <==

  Electron Count from Grid (Expected Number): 14.00000 (14.00000)
  Difference: -0.00000

  MBIS Charges: (a.u.)
   Center  Symbol  Z      Pop.       Charge
      1       O    8    7.456907    0.543093
      2       N    7    6.543093    0.456907

  MBIS Dipoles: [e a0]
   Center  Symbol  Z        X           Y           Z
      1       O    8    0.000000    0.000000    0.017415
      2       N    7    0.000000   -0.000000   -0.144025

  MBIS Quadrupoles: [e a0^2]
   Center  Symbol  Z      XX        XY        XZ        YY        YZ        ZZ
      1       O    8   -2.3585    0.0000    0.0000   -2.3585    0.0000   -2.7412
      2       N    7   -2.5677   -0.0000   -0.0000   -2.5677    0.0000   -3.1221

  MBIS Octupoles: [e a0^3]
   Center  Symbol  Z      XXX       XXY       XXZ       XYY       XYZ       XZZ       YYY       YYZ       YZZ       ZZZ
      1       O    8    0.0000   -0.0000    0.0523    0.0000   -0.0000    0.0000   -0.0000    0.0523   -0.0000    0.2293
      2       N    7    0.0000   -0.0000   -0.1898   -0.0000   -0.0000    0.0000   -0.0000   -0.1898    0.0000   -0.5447

  MBIS Radial Moments:
   Center  Symbol  Z      [a0^2]      [a0^3]      [a0^4]
      1       O    8    7.458341   11.691287   22.043740
      2       N    7    8.257564   14.888828   32.269123

  MBIS Valence Widths: [a0]
   Center  Symbol  Z     Width
      1       O    8    0.325019
      2       N    7    0.372780

*** tstop() called on Mac.lan at Sun Aug 10 18:41:47 2025
Module time:
	user time   =       4.21 seconds =       0.07 minutes
	system time =       2.71 seconds =       0.05 minutes
	total time  =          1 seconds =       0.02 minutes
Total time:
	user time   =      21.04 seconds =       0.35 minutes
	system time =       5.39 seconds =       0.09 minutes
	total time  =          3 seconds =       0.05 minutes

    Psi4 stopped on: Sunday, 10 August 2025 06:41PM
    Psi4 wall time for execution: 0:00:02.85

*** Psi4 exiting successfully. Buy a developer a beer!
