                               Psi4 1.9.1 release

  ==> Input File <==

--------------------------------------------------------------------------
molecule {
1 1
O           0.000000           0.000000           0.000000
N           0.000000           0.000000           1.547051
}

set {
basis              cc-pvtz
reference          uks
maxiter            500
DAMPING_PERCENTAGE 1
E_CONVERGENCE      1.0E-8
D_CONVERGENCE      1.0E-8
DIIS_MAX_VECS      400
MBIS_MAXITER       8000
guess              read
}

E, wfn = energy('b3lyp', restart_file='last_wfn', return_wfn=True)
properties('b3lyp','MBIS_CHARGES', wfn=wfn)
wfn.to_file('last_wfn')
--------------------------------------------------------------------------

    Molecular point group: c2v
  Charge       = 1
  Multiplicity = 1
  Basis Set: CC-PVTZ
    Blend: CC-PVTZ
  Basis Set: (CC-PVTZ AUX)
    Blend: CC-PVTZ-JKFIT
  @DF-UKS Final Energy:  -129.33362452636811
    Total Energy =                       -129.3336245263681121
 Dipole X            :          0.0000000            0.0000000            0.0000000
 Dipole Y            :          0.0000000            0.0000000            0.0000000
 Dipole Z            :          0.5543591           -0.0058659            0.5484932
 Magnitude           :                                                    0.5484932
    Molecular point group: c2v

    Geometry (in Angstrom), charge = 1, multiplicity = 1:

       Center              X                  Y                   Z               Mass
    ------------   -----------------  -----------------  -----------------  -----------------
         O            0.000000000000     0.000000000000    -0.722164072837    15.994914619570
         N            0.000000000000     0.000000000000     0.824886927163    14.003074004430

  Charge       = 1
  Multiplicity = 1
  Basis Set: CC-PVTZ
    Blend: CC-PVTZ
  Basis Set: (CC-PVTZ AUX)
    Blend: CC-PVTZ-JKFIT

    Orbital Energies [Eh]
    ---------------------

    Alpha Occupied:

       1A1   -19.745158     2A1   -15.022143     3A1    -1.449846
       4A1    -1.162052     5A1    -0.858015     1B1    -0.809706
       1B2    -0.809706

    Alpha Virtual:

       2B2    -0.618147     2B1    -0.618147     6A1    -0.434365
       7A1     0.099951     3B2     0.112462     3B1     0.112462
       8A1     0.165194     9A1     0.262091     4B1     0.284046
       4B2     0.284046     1A2     0.599164    10A1     0.599164
       5B2     0.610675     5B1     0.610675    11A1     0.739655
      12A1     1.073203    13A1     1.086952     2A2     1.086953
       6B2     1.398735     6B1     1.398735    14A1     1.622101
       7B2     2.328626     7B1     2.328626    15A1     2.575990
       8B1     3.053149     8B2     3.053149    16A1     3.151795
      17A1     3.373186     3A2     3.373187     9B2     3.390845
       9B1     3.390845    10B1     3.497513    10B2     3.497513
      18A1     3.787884    19A1     3.889818     4A2     3.889825
      11B2     4.043502    11B1     4.043502    20A1     4.549937
      12B1     4.656040    12B2     4.656040    21A1     4.681983
      22A1     4.713068     5A2     4.713069    13B2     5.067475
      13B1     5.067475    23A1     5.570090     6A2     5.698319
      24A1     5.698362    14B1     6.020539    14B2     6.020539
      25A1     6.838327    26A1     7.612203

    Beta Occupied:

       1A1   -19.745158     2A1   -15.022143     3A1    -1.449846
       4A1    -1.162052     5A1    -0.858015     1B2    -0.809706
       1B1    -0.809706

    Beta Virtual:

       2B1    -0.618147     2B2    -0.618147     6A1    -0.434365
       7A1     0.099951     3B2     0.112462     3B1     0.112462
       8A1     0.165194     9A1     0.262091     4B2     0.284046
       4B1     0.284046     1A2     0.599164    10A1     0.599164
       5B1     0.610675     5B2     0.610675    11A1     0.739655
      12A1     1.073203    13A1     1.086952     2A2     1.086953
       6B2     1.398735     6B1     1.398735    14A1     1.622101
       7B2     2.328626     7B1     2.328626    15A1     2.575990
       8B1     3.053149     8B2     3.053149    16A1     3.151795
      17A1     3.373186     3A2     3.373187     9B2     3.390845
       9B1     3.390845    10B1     3.497513    10B2     3.497513
      18A1     3.787884    19A1     3.889818     4A2     3.889825
      11B1     4.043502    11B2     4.043502    20A1     4.549937
      12B1     4.656040    12B2     4.656040    21A1     4.681983
      22A1     4.713068     5A2     4.713069    13B2     5.067475
      13B1     5.067475    23A1     5.570090     6A2     5.698319
      24A1     5.698362    14B2     6.020539    14B1     6.020539
      25A1     6.838327    26A1     7.612203

    Final Occupation by Irrep:
             A1    A2    B1    B2
    DOCC [     5,    0,    1,    1 ]
    SOCC [     0,    0,    0,    0 ]
    NA   [     5,    0,    1,    1 ]
    NB   [     5,    0,    1,    1 ]

  @DF-UKS Final Energy:  -129.33362451048143

   => Energetics <=

    Nuclear Repulsion Energy =             19.1551046458843324
    One-Electron Energy =                -208.7455488699736463
    Two-Electron Energy =                  72.0869228918087117
    DFT Exchange-Correlation Energy =     -11.8301031782008312
    Empirical Dispersion Energy =           0.0000000000000000
    VV10 Nonlocal Energy =                  0.0000000000000000
    Total Energy =                       -129.3336245104814282

  UHF NO Occupations:
  HONO-2 :    5 A1 2.0000000
  HONO-1 :    1 B2 2.0000000
  HONO-0 :    1 B1 2.0000000
  LUNO+0 :    2 B1 0.0000000
  LUNO+1 :    2 B2 0.0000000
  LUNO+2 :    6 A1 0.0000000
  LUNO+3 :    7 A1 0.0000000

Computation Completed

Properties will be evaluated at   0.000000,   0.000000,   0.000000 [a0]

Properties computed using the B3LYP density matrix

 Multipole Moments:

 ------------------------------------------------------------------------------------
     Multipole            Electronic (a.u.)      Nuclear  (a.u.)        Total (a.u.)
 ------------------------------------------------------------------------------------

 L = 1.  Multiply by 2.5417464519 to convert [e a0] to [Debye]
 Dipole X            :          0.0000000            0.0000000            0.0000000
 Dipole Y            :          0.0000000            0.0000000            0.0000000
 Dipole Z            :          0.5543655           -0.0058659            0.5484996
 Magnitude           :                                                    0.5484996

 L = 2.  Multiply by 1.3450342976 to convert [e a0^2] to [Debye ang]
 Quadrupole XX       :         -6.4042299            0.0000000           -6.4042299
 Quadrupole XY       :          0.0000000            0.0000000            0.0000000
 Quadrupole XZ       :          0.0000000            0.0000000            0.0000000
 Quadrupole YY       :         -6.4042299            0.0000000           -6.4042299
 Quadrupole YZ       :          0.0000000            0.0000000            0.0000000
 Quadrupole ZZ       :        -35.6625896           31.9083095           -3.7542802
 Traceless XX        :          9.7527866          -10.6361032           -0.8833166
 Traceless YY        :          9.7527866          -10.6361032           -0.8833166
 Traceless ZZ        :        -19.5055731           21.2722063            1.7666332

 ------------------------------------------------------------------------------------
  ==> Computing MBIS Charges <==

  Electron Count from Grid (Expected Number): 14.00000 (14.00000)
  Difference: -0.00000

  MBIS Charges: (a.u.)
   Center  Symbol  Z      Pop.       Charge
      1       O    8    7.702839    0.297161
      2       N    7    6.297160    0.702840

  MBIS Dipoles: [e a0]
   Center  Symbol  Z        X           Y           Z
      1       O    8   -0.000000   -0.000000   -0.202935
      2       N    7    0.000000    0.000000    0.061374

  MBIS Quadrupoles: [e a0^2]
   Center  Symbol  Z      XX        XY        XZ        YY        YZ        ZZ
      1       O    8   -3.3600    0.0000    0.0000   -3.3600    0.0000   -3.4281
      2       N    7   -3.0442   -0.0000    0.0000   -3.0442   -0.0000   -3.3327

  MBIS Octupoles: [e a0^3]
   Center  Symbol  Z      XXX       XXY       XXZ       XYY       XYZ       XZZ       YYY       YYZ       YZZ       ZZZ
      1       O    8   -0.0000   -0.0000   -0.2131   -0.0000    0.0000   -0.0000   -0.0000   -0.2131   -0.0000   -0.6377
      2       N    7    0.0000   -0.0000    0.2036    0.0000   -0.0000    0.0000   -0.0000    0.2036   -0.0000    0.4591

  MBIS Radial Moments:
   Center  Symbol  Z      [a0^2]      [a0^3]      [a0^4]
      1       O    8   10.148063   18.333832   39.661103
      2       N    7    9.421157   18.428003   43.048901

  MBIS Valence Widths: [a0]
   Center  Symbol  Z     Width
      1       O    8    0.375346
      2       N    7    0.414364

*** tstop() called on Mac.lan at Sun Aug 10 18:42:57 2025
Module time:
	user time   =       3.76 seconds =       0.06 minutes
	system time =       1.76 seconds =       0.03 minutes
	total time  =          0 seconds =       0.00 minutes
Total time:
	user time   =      15.52 seconds =       0.26 minutes
	system time =       4.23 seconds =       0.07 minutes
	total time  =          2 seconds =       0.03 minutes

    Psi4 stopped on: Sunday, 10 August 2025 06:42PM
    Psi4 wall time for execution: 0:00:01.91

*** Psi4 exiting successfully. Buy a developer a beer!
