                               Psi4 1.9.1 release

  ==> Input File <==

--------------------------------------------------------------------------
molecule {
1 2
O           0.000000           0.000000           0.000000
O           0.000000           0.000000           1.618830
}

set {
basis              cc-pvtz
reference          uks
maxiter            500
DAMPING_PERCENTAGE 1
E_CONVERGENCE      1.0E-8
D_CONVERGENCE      1.0E-8
DIIS_MAX_VECS      400
MBIS_MAXITER       8000
guess              read
}

E, wfn = energy('b3lyp', restart_file='last_wfn', return_wfn=True)
properties('b3lyp','MBIS_CHARGES', wfn=wfn)
wfn.to_file('last_wfn')
--------------------------------------------------------------------------

    Molecular point group: d2h
  Charge       = 1
  Multiplicity = 2
  Basis Set: CC-PVTZ
    Blend: CC-PVTZ
  Basis Set: (CC-PVTZ AUX)
    Blend: CC-PVTZ-JKFIT
  @DF-UKS Final Energy:  -149.72348852919083
    Total Energy =                       -149.7234885291908313
 Dipole X            :          0.0000000            0.0000000            0.0000000
 Dipole Y            :          0.0000000            0.0000000            0.0000000
 Dipole Z            :          0.0000000            0.0000000            0.0000000
 Magnitude           :                                                    0.0000000
    Molecular point group: d2h

    Geometry (in Angstrom), charge = 1, multiplicity = 2:

       Center              X                  Y                   Z               Mass
    ------------   -----------------  -----------------  -----------------  -----------------
         O            0.000000000000     0.000000000000    -0.809415000000    15.994914619570
         O            0.000000000000     0.000000000000     0.809415000000    15.994914619570

  Charge       = 1
  Multiplicity = 2
  Basis Set: CC-PVTZ
    Blend: CC-PVTZ
  Basis Set: (CC-PVTZ AUX)
    Blend: CC-PVTZ-JKFIT

    Orbital Energies [Eh]
    ---------------------

    Alpha Occupied:

       1Ag   -19.815053     1B1u  -19.814983     2Ag    -1.527221
       2B1u   -1.354869     3Ag    -0.916257     1B3u   -0.904185
       1B2u   -0.854150     1B2g   -0.820345

    Alpha Virtual:

       1B3g   -0.703935     3B1u   -0.570291     2B3u    0.160896
       2B2u    0.167945     4B1u    0.177920     4Ag     0.271207
       2B2g    0.287714     2B3g    0.293979     5Ag     0.327774
       5B1u    0.743431     3B2u    0.795996     3B3u    0.798229
       1B1g    0.929313     6Ag     0.930610     1Au     1.096696
       6B1u    1.098156     7Ag     1.105979     3B2g    1.460626
       3B3g    1.461824     7B1u    1.901650     8Ag     2.916489
       4B3u    2.983510     4B2u    2.999989     4B2g    3.104978
       4B3g    3.121030     8B1u    3.526970     5B2u    4.300874
       5B3u    4.302984     9Ag     4.346228     2B1g    4.479731
      10Ag     4.481199     6B3u    4.586096     6B2u    4.586357
       5B2g    4.608349     5B3g    4.608618     2Au     4.701813
       9B1u    4.703331     6B2g    4.975643     6B3g    4.976315
      10B1u    5.235845     3B1g    5.551137    11Ag     5.554959
       7B3u    5.572628     7B2u    5.583502     3Au     5.667080
      11B1u    5.670888    12Ag     5.869968     7B2g    6.089949
       7B3g    6.098111    13Ag     6.762517    12B1u    6.816860
      13B1u    7.435824

    Beta Occupied:

       1Ag   -19.799337     1B1u  -19.799238     2Ag    -1.490717
       2B1u   -1.308445     3Ag    -0.900877     1B2u   -0.839967
       1B3u   -0.796958

    Beta Virtual:

       1B3g   -0.687522     1B2g   -0.640718     3B1u   -0.551612
       2B2u    0.172851     4B1u    0.183793     2B3u    0.194303
       4Ag     0.278690     2B3g    0.298513     2B2g    0.316782
       5Ag     0.337284     5B1u    0.757819     3B2u    0.797605
       3B3u    0.819368     6Ag     0.953792     1B1g    0.954524
       7Ag     1.120624     1Au     1.126135     6B1u    1.126349
       3B3g    1.465594     3B2g    1.491135     7B1u    1.913712
       8Ag     2.925494     4B2u    3.010738     4B3u    3.047741
       4B3g    3.132521     4B2g    3.171157     8B1u    3.542206
       5B2u    4.304933     5B3u    4.335297     9Ag     4.361554
       2B1g    4.505179    10Ag     4.507764     6B2u    4.624013
       6B3u    4.624066     5B3g    4.645960     5B2g    4.645995
       9B1u    4.728122     2Au     4.728367     6B3g    4.981467
       6B2g    5.012351    10B1u    5.252365     7B2u    5.590855
      11Ag     5.608234     3B1g    5.609088     7B3u    5.628773
       3Au     5.724264    11B1u    5.724317    12Ag     5.884235
       7B3g    6.104262     7B2g    6.140374    13Ag     6.795421
      12B1u    6.830489    13B1u    7.464226

    Final Occupation by Irrep:
             Ag   B1g   B2g   B3g    Au   B1u   B2u   B3u
    DOCC [     3,    0,    0,    0,    0,    2,    1,    1 ]
    SOCC [     0,    0,    1,    0,    0,    0,    0,    0 ]
    NA   [     3,    0,    1,    0,    0,    2,    1,    1 ]
    NB   [     3,    0,    0,    0,    0,    2,    1,    1 ]

  @DF-UKS Final Energy:  -149.72348852580336

   => Energetics <=

    Nuclear Repulsion Energy =             20.9208758689176761
    One-Electron Energy =                -240.8598669390856628
    Two-Electron Energy =                  83.3992243911645801
    DFT Exchange-Correlation Energy =     -13.1837218467999513
    Empirical Dispersion Energy =           0.0000000000000000
    VV10 Nonlocal Energy =                  0.0000000000000000
    Total Energy =                       -149.7234885258033614

  UHF NO Occupations:
  HONO-2 :    2B1u 1.9997923
  HONO-1 :    1B3u 1.9985243
  HONO-0 :    1B2g 1.0000000
  LUNO+0 :    2B3u 0.0014757
  LUNO+1 :    3B1u 0.0002077
  LUNO+2 :    4 Ag 0.0001526
  LUNO+3 :    2B2u 0.0000424

Computation Completed

Properties will be evaluated at   0.000000,   0.000000,   0.000000 [a0]

Properties computed using the B3LYP density matrix

 Multipole Moments:

 ------------------------------------------------------------------------------------
     Multipole            Electronic (a.u.)      Nuclear  (a.u.)        Total (a.u.)
 ------------------------------------------------------------------------------------

 L = 1.  Multiply by 2.5417464519 to convert [e a0] to [Debye]
 Dipole X            :          0.0000000            0.0000000            0.0000000
 Dipole Y            :          0.0000000            0.0000000            0.0000000
 Dipole Z            :          0.0000000            0.0000000            0.0000000
 Magnitude           :                                                    0.0000000

 L = 2.  Multiply by 1.3450342976 to convert [e a0^2] to [Debye ang]
 Quadrupole XX       :         -6.6326070            0.0000000           -6.6326070
 Quadrupole XY       :          0.0000000            0.0000000            0.0000000
 Quadrupole XZ       :          0.0000000            0.0000000            0.0000000
 Quadrupole YY       :         -6.0706903            0.0000000           -6.0706903
 Quadrupole YZ       :          0.0000000            0.0000000            0.0000000
 Quadrupole ZZ       :        -40.5769403           37.4334809           -3.1434593
 Traceless XX        :         11.1274722          -12.4778270           -1.3503548
 Traceless YY        :         11.6893889          -12.4778270           -0.7884381
 Traceless ZZ        :        -22.8168611           24.9556540            2.1387929

 ------------------------------------------------------------------------------------
  ==> Computing MBIS Charges <==

  Electron Count from Grid (Expected Number): 15.00000 (15.00000)
  Difference: -0.00000

  MBIS Charges: (a.u.)
   Center  Symbol  Z      Pop.       Charge
      1       O    8    7.499999    0.500001
      2       O    8    7.499999    0.500001

  MBIS Dipoles: [e a0]
   Center  Symbol  Z        X           Y           Z
      1       O    8   -0.000000    0.000000   -0.133850
      2       O    8   -0.000000    0.000000    0.133850

  MBIS Quadrupoles: [e a0^2]
   Center  Symbol  Z      XX        XY        XZ        YY        YZ        ZZ
      1       O    8   -3.3163    0.0000    0.0000   -3.0353   -0.0000   -3.1510
      2       O    8   -3.3163    0.0000    0.0000   -3.0353    0.0000   -3.1510

  MBIS Octupoles: [e a0^3]
   Center  Symbol  Z      XXX       XXY       XXZ       XYY       XYZ       XZZ       YYY       YYZ       YZZ       ZZZ
      1       O    8   -0.0000   -0.0000   -0.1429    0.0000   -0.0000    0.0000    0.0000   -0.1882   -0.0000   -0.5255
      2       O    8   -0.0000   -0.0000    0.1429   -0.0000    0.0000   -0.0000    0.0000    0.1882   -0.0000    0.5255

  MBIS Radial Moments:
   Center  Symbol  Z      [a0^2]      [a0^3]      [a0^4]
      1       O    8    9.502641   16.938531   36.276066
      2       O    8    9.502641   16.938531   36.276066

  MBIS Valence Widths: [a0]
   Center  Symbol  Z     Width
      1       O    8    0.368981
      2       O    8    0.368981

*** tstop() called on Mac.lan at Sun Aug 10 18:14:21 2025
Module time:
	user time   =       5.53 seconds =       0.09 minutes
	system time =       2.43 seconds =       0.04 minutes
	total time  =          1 seconds =       0.02 minutes
Total time:
	user time   =      20.33 seconds =       0.34 minutes
	system time =       4.29 seconds =       0.07 minutes
	total time  =          3 seconds =       0.05 minutes

    Psi4 stopped on: Sunday, 10 August 2025 06:14PM
    Psi4 wall time for execution: 0:00:02.58

*** Psi4 exiting successfully. Buy a developer a beer!
