                               Psi4 1.9.1 release

  ==> Input File <==

--------------------------------------------------------------------------
molecule {
1 4
C           0.000000           0.000000           0.000000
C           0.000000           0.000000           1.636657
}

set {
basis              cc-pvtz
reference          uks
maxiter            500
DAMPING_PERCENTAGE 1
E_CONVERGENCE      1.0E-8
D_CONVERGENCE      1.0E-8
DIIS_MAX_VECS      400
MBIS_MAXITER       8000
guess              read
}

E, wfn = energy('b3lyp', restart_file='last_wfn', return_wfn=True)
properties('b3lyp','MBIS_CHARGES', wfn=wfn)
wfn.to_file('last_wfn')
--------------------------------------------------------------------------

    Molecular point group: d2h
  Charge       = 1
  Multiplicity = 4
  Basis Set: CC-PVTZ
    Blend: CC-PVTZ
  Basis Set: (CC-PVTZ AUX)
    Blend: CC-PVTZ-JKFIT
  @DF-UKS Final Energy:   -75.48193546375657
    Total Energy =                        -75.4819354637565709
 Dipole X            :          0.0000000            0.0000000            0.0000000
 Dipole Y            :          0.0000000            0.0000000            0.0000000
 Dipole Z            :          0.0000000           -0.0000000           -0.0000000
 Magnitude           :                                                    0.0000000
    Molecular point group: d2h

    Geometry (in Angstrom), charge = 1, multiplicity = 4:

       Center              X                  Y                   Z               Mass
    ------------   -----------------  -----------------  -----------------  -----------------
         C            0.000000000000     0.000000000000    -0.818328500000    12.000000000000
         C            0.000000000000     0.000000000000     0.818328500000    12.000000000000

  Charge       = 1
  Multiplicity = 4
  Basis Set: CC-PVTZ
    Blend: CC-PVTZ
  Basis Set: (CC-PVTZ AUX)
    Blend: CC-PVTZ-JKFIT

    Orbital Energies [Eh]
    ---------------------

    Alpha Occupied:

       1Ag   -10.724544     1B1u  -10.724294     2Ag    -1.107534
       2B1u   -0.848885     3Ag    -0.689809     1B3u   -0.663440
       1B2u   -0.663440

    Alpha Virtual:

       1B2g   -0.459212     1B3g   -0.459212     3B1u   -0.222452
       2B3u    0.014320     2B2u    0.014320     4B1u    0.017778
       4Ag     0.032535     5Ag     0.046669     2B2g    0.094316
       2B3g    0.094316     1B1g    0.247893     6Ag     0.247893
       3B2u    0.300391     3B3u    0.300391     5B1u    0.346721
       6B1u    0.470352     1Au     0.470352     7Ag     0.755488
       3B2g    0.767463     3B3g    0.767463     7B1u    0.804238
       4B2u    1.514466     4B3u    1.514466     8Ag     1.597969
       4B2g    1.658857     4B3g    1.658857     5B2u    2.028390
       5B3u    2.028390     2B1g    2.038411     9Ag     2.038411
      10Ag     2.098813     8B1u    2.164947     6B3u    2.217624
       6B2u    2.217624     5B2g    2.354089     5B3g    2.354089
      11Ag     2.500893     3B1g    2.500897     9B1u    2.533582
       2Au     2.533585    10B1u    2.601031     6B3g    2.674874
       6B2g    2.674874    11B1u    2.734169     3Au     2.734171
       7B3u    2.742369     7B2u    2.742369    12B1u    3.056836
      12Ag     3.247981     7B3g    3.424636     7B2g    3.424636
      13Ag     3.562762    13B1u    6.115815

    Beta Occupied:

       1Ag   -10.700081     1B1u  -10.700024     2Ag    -1.011964
       2B1u   -0.732970

    Beta Virtual:

       3Ag    -0.522255     1B3u   -0.510797     1B2u   -0.510797
       1B2g   -0.361391     1B3g   -0.361391     3B1u   -0.148260
       2B3u    0.042307     2B2u    0.042307     4B1u    0.054304
       4Ag     0.064366     5Ag     0.079220     2B2g    0.117050
       2B3g    0.117050     1B1g    0.298237     6Ag     0.298237
       3B2u    0.361165     3B3u    0.361165     5B1u    0.374062
       1Au     0.515088     6B1u    0.515088     7Ag     0.811724
       3B2g    0.812380     3B3g    0.812380     7B1u    0.846102
       4B2u    1.571363     4B3u    1.571363     8Ag     1.658821
       4B2g    1.714158     4B3g    1.714158     5B2u    2.090998
       5B3u    2.090998     2B1g    2.105834     9Ag     2.105835
      10Ag     2.167073     8B1u    2.222567     6B3u    2.282944
       6B2u    2.282944     5B2g    2.418776     5B3g    2.418776
      11Ag     2.584414     3B1g    2.584418     9B1u    2.608355
       2Au     2.608357    10B1u    2.678599     6B3g    2.755388
       6B2g    2.755388    11B1u    2.807764     3Au     2.807766
       7B3u    2.827564     7B2u    2.827564    12B1u    3.120910
      12Ag     3.314126     7B3g    3.491658     7B2g    3.491658
      13Ag     3.619179    13B1u    6.161783

    Final Occupation by Irrep:
             Ag   B1g   B2g   B3g    Au   B1u   B2u   B3u
    DOCC [     2,    0,    0,    0,    0,    2,    0,    0 ]
    SOCC [     1,    0,    0,    0,    0,    0,    1,    1 ]
    NA   [     3,    0,    0,    0,    0,    2,    1,    1 ]
    NB   [     2,    0,    0,    0,    0,    2,    0,    0 ]

  @DF-UKS Final Energy:   -75.48193546382622

   => Energetics <=

    Nuclear Repulsion Energy =             11.6398118751332778
    One-Electron Energy =                -119.7692228235148946
    Two-Electron Energy =                  40.8340803321883570
    DFT Exchange-Correlation Energy =      -8.1866048476329514
    Empirical Dispersion Energy =           0.0000000000000000
    VV10 Nonlocal Energy =                  0.0000000000000000
    Total Energy =                        -75.4819354638262183

  UHF NO Occupations:
  HONO-2 :    3 Ag 1.0000000
  HONO-1 :    1B2u 1.0000000
  HONO-0 :    1B3u 1.0000000
  LUNO+0 :    3B1u 0.0015947
  LUNO+1 :    4 Ag 0.0001240
  LUNO+2 :    4B1u 0.0000008
  LUNO+3 :    5 Ag 0.0000006

Computation Completed

Properties will be evaluated at   0.000000,   0.000000,   0.000000 [a0]

Properties computed using the B3LYP density matrix

 Multipole Moments:

 ------------------------------------------------------------------------------------
     Multipole            Electronic (a.u.)      Nuclear  (a.u.)        Total (a.u.)
 ------------------------------------------------------------------------------------

 L = 1.  Multiply by 2.5417464519 to convert [e a0] to [Debye]
 Dipole X            :          0.0000000            0.0000000            0.0000000
 Dipole Y            :          0.0000000            0.0000000            0.0000000
 Dipole Z            :          0.0000000           -0.0000000           -0.0000000
 Magnitude           :                                                    0.0000000

 L = 2.  Multiply by 1.3450342976 to convert [e a0^2] to [Debye ang]
 Quadrupole XX       :         -6.7135965            0.0000000           -6.7135965
 Quadrupole XY       :          0.0000000            0.0000000            0.0000000
 Quadrupole XZ       :          0.0000000            0.0000000            0.0000000
 Quadrupole YY       :         -6.7135965            0.0000000           -6.7135965
 Quadrupole YZ       :          0.0000000            0.0000000            0.0000000
 Quadrupole ZZ       :        -32.9181873           28.6968570           -4.2213303
 Traceless XX        :          8.7348636           -9.5656190           -0.8307554
 Traceless YY        :          8.7348636           -9.5656190           -0.8307554
 Traceless ZZ        :        -17.4697272           19.1312380            1.6615108

 ------------------------------------------------------------------------------------
  ==> Computing MBIS Charges <==

  Electron Count from Grid (Expected Number): 11.00000 (11.00000)
  Difference:  0.00000

  MBIS Charges: (a.u.)
   Center  Symbol  Z      Pop.       Charge
      1       C    6    5.500000    0.500000
      2       C    6    5.500000    0.500000

  MBIS Dipoles: [e a0]
   Center  Symbol  Z        X           Y           Z
      1       C    6   -0.000000   -0.000000   -0.138984
      2       C    6   -0.000000    0.000000    0.138984

  MBIS Quadrupoles: [e a0^2]
   Center  Symbol  Z      XX        XY        XZ        YY        YZ        ZZ
      1       C    6   -3.3568    0.0000   -0.0000   -3.3568   -0.0000   -3.7362
      2       C    6   -3.3568    0.0000    0.0000   -3.3568    0.0000   -3.7362

  MBIS Octupoles: [e a0^3]
   Center  Symbol  Z      XXX       XXY       XXZ       XYY       XYZ       XZZ       YYY       YYZ       YZZ       ZZZ
      1       C    6   -0.0000   -0.0000   -0.1953   -0.0000    0.0000   -0.0000    0.0000   -0.1953    0.0000   -0.6666
      2       C    6   -0.0000   -0.0000    0.1953   -0.0000   -0.0000   -0.0000    0.0000    0.1953    0.0000    0.6666

  MBIS Radial Moments:
   Center  Symbol  Z      [a0^2]      [a0^3]      [a0^4]
      1       C    6   10.449818   23.316579   61.903479
      2       C    6   10.449818   23.316579   61.903479

  MBIS Valence Widths: [a0]
   Center  Symbol  Z     Width
      1       C    6    0.482035
      2       C    6    0.482035

*** tstop() called on Mac.lan at Sun Aug 10 18:22:55 2025
Module time:
	user time   =       4.23 seconds =       0.07 minutes
	system time =       2.69 seconds =       0.04 minutes
	total time  =          1 seconds =       0.02 minutes
Total time:
	user time   =      15.56 seconds =       0.26 minutes
	system time =       5.23 seconds =       0.09 minutes
	total time  =          2 seconds =       0.03 minutes

    Psi4 stopped on: Sunday, 10 August 2025 06:22PM
    Psi4 wall time for execution: 0:00:02.07

*** Psi4 exiting successfully. Buy a developer a beer!
