                               Psi4 1.9.1 release

  ==> Input File <==

--------------------------------------------------------------------------
molecule {
1 2
O           0.000000           0.000000           0.000000
C           0.000000           0.000000           1.440723
}

set {
basis              cc-pvtz
reference          uks
maxiter            500
DAMPING_PERCENTAGE 1
E_CONVERGENCE      1.0E-8
D_CONVERGENCE      1.0E-8
DIIS_MAX_VECS      400
MBIS_MAXITER       8000
guess              read
}

E, wfn = energy('b3lyp', restart_file='last_wfn', return_wfn=True)
properties('b3lyp','MBIS_CHARGES', wfn=wfn)
wfn.to_file('last_wfn')
--------------------------------------------------------------------------

    Molecular point group: c2v
  Charge       = 1
  Multiplicity = 2
  Basis Set: CC-PVTZ
    Blend: CC-PVTZ
  Basis Set: (CC-PVTZ AUX)
    Blend: CC-PVTZ-JKFIT
  @DF-UKS Final Energy:  -112.71365986406389
    Total Energy =                       -112.7136598640638852
 Dipole X            :          0.0000000            0.0000000            0.0000000
 Dipole Y            :          0.0000000            0.0000000            0.0000000
 Dipole Z            :          1.1920028           -0.0029674            1.1890354
 Magnitude           :                                                    1.1890354
    Molecular point group: c2v

    Geometry (in Angstrom), charge = 1, multiplicity = 2:

       Center              X                  Y                   Z               Mass
    ------------   -----------------  -----------------  -----------------  -----------------
         O            0.000000000000     0.000000000000    -0.617564876869    15.994914619570
         C            0.000000000000     0.000000000000     0.823158123131    12.000000000000

  Charge       = 1
  Multiplicity = 2
  Basis Set: CC-PVTZ
    Blend: CC-PVTZ
  Basis Set: (CC-PVTZ AUX)
    Blend: CC-PVTZ-JKFIT

    Orbital Energies [Eh]
    ---------------------

    Alpha Occupied:

       1A1   -19.669691     2A1   -10.855875     3A1    -1.418274
       4A1    -1.003476     5A1    -0.839720     1B2    -0.770018
       1B1    -0.770018

    Alpha Virtual:

       2B2    -0.521015     2B1    -0.521015     6A1    -0.266799
       7A1    -0.010943     8A1    -0.001023     3B2     0.004201
       3B1     0.004201     9A1     0.244493     1A2     0.297433
      10A1     0.297433     4B1     0.305551     4B2     0.305551
       5B1     0.419987     5B2     0.419987    11A1     0.665714
      12A1     0.874050    13A1     1.122497     2A2     1.122497
       6B1     1.306093     6B2     1.306093    14A1     1.573368
       7B2     1.590606     7B1     1.590606    15A1     1.776700
       8B1     2.232767     8B2     2.232767     3A2     2.278652
      16A1     2.278653     9B2     2.426327     9B1     2.426327
       4A2     2.466511    17A1     2.466513    18A1     2.515865
      10B1     2.683673    10B2     2.683673    19A1     2.743651
      20A1     3.328881    11B1     3.372085    11B2     3.372085
      12B2     4.719390    12B1     4.719390    21A1     4.720402
      22A1     4.806075     5A2     4.806077    13B2     5.147044
      13B1     5.147044    23A1     5.638154     6A2     5.796304
      24A1     5.796337    14B1     6.166406    14B2     6.166406
      25A1     6.801603    26A1     8.295312

    Beta Occupied:

       1A1   -19.664852     2A1   -10.837872     3A1    -1.399707
       4A1    -0.934528     1B2    -0.770621     1B1    -0.770621

    Beta Virtual:

       5A1    -0.659533     2B2    -0.489298     2B1    -0.489298
       6A1    -0.216735     7A1    -0.000796     3B2     0.012825
       3B1     0.012825     8A1     0.040433     9A1     0.261194
       4B1     0.309246     4B2     0.309246     1A2     0.313886
      10A1     0.313886     5B1     0.446245     5B2     0.446245
      11A1     0.703716    12A1     0.884889    13A1     1.118565
       2A2     1.118565     6B1     1.331654     6B2     1.331654
      14A1     1.608025     7B2     1.609315     7B1     1.609315
      15A1     1.827938     8B1     2.258474     8B2     2.258474
       3A2     2.309052    16A1     2.309052     9B2     2.464129
       9B1     2.464129     4A2     2.507449    17A1     2.507451
      18A1     2.567126    10B1     2.747383    10B2     2.747383
      19A1     2.821323    20A1     3.369577    11B1     3.372707
      11B2     3.372707    12B2     4.706806    12B1     4.706806
      21A1     4.743676    22A1     4.815218     5A2     4.815219
      13B2     5.172056    13B1     5.172056    23A1     5.686328
       6A2     5.782037    24A1     5.782071    14B1     6.196163
      14B2     6.196163    25A1     6.839265    26A1     8.305337

    Final Occupation by Irrep:
             A1    A2    B1    B2
    DOCC [     4,    0,    1,    1 ]
    SOCC [     1,    0,    0,    0 ]
    NA   [     5,    0,    1,    1 ]
    NB   [     4,    0,    1,    1 ]

  @DF-UKS Final Energy:  -112.71365986290995

   => Energetics <=

    Nuclear Repulsion Energy =             17.6303884314750299
    One-Electron Energy =                -183.2492328683212008
    Two-Electron Energy =                  63.6435108696419078
    DFT Exchange-Correlation Energy =     -10.7383262957056989
    Empirical Dispersion Energy =           0.0000000000000000
    VV10 Nonlocal Energy =                  0.0000000000000000
    Total Energy =                       -112.7136598629099495

  UHF NO Occupations:
  HONO-2 :    1 B1 1.9939496
  HONO-1 :    1 B2 1.9939496
  HONO-0 :    5 A1 1.0000000
  LUNO+0 :    2 B1 0.0060504
  LUNO+1 :    2 B2 0.0060504
  LUNO+2 :    6 A1 0.0034200
  LUNO+3 :    7 A1 0.0001039

Computation Completed

Properties will be evaluated at   0.000000,   0.000000,   0.000000 [a0]

Properties computed using the B3LYP density matrix

 Multipole Moments:

 ------------------------------------------------------------------------------------
     Multipole            Electronic (a.u.)      Nuclear  (a.u.)        Total (a.u.)
 ------------------------------------------------------------------------------------

 L = 1.  Multiply by 2.5417464519 to convert [e a0] to [Debye]
 Dipole X            :          0.0000000            0.0000000            0.0000000
 Dipole Y            :          0.0000000            0.0000000            0.0000000
 Dipole Z            :          1.1920023           -0.0029674            1.1890349
 Magnitude           :                                                    1.1890349

 L = 2.  Multiply by 1.3450342976 to convert [e a0^2] to [Debye ang]
 Quadrupole XX       :         -6.4682582            0.0000000           -6.4682582
 Quadrupole XY       :          0.0000000            0.0000000            0.0000000
 Quadrupole XZ       :          0.0000000            0.0000000            0.0000000
 Quadrupole YY       :         -6.4682582            0.0000000           -6.4682582
 Quadrupole YZ       :          0.0000000            0.0000000            0.0000000
 Quadrupole ZZ       :        -28.3080173           25.4139356           -2.8940817
 Traceless XX        :          7.2799197           -8.4713119           -1.1913922
 Traceless YY        :          7.2799197           -8.4713119           -1.1913922
 Traceless ZZ        :        -14.5598394           16.9426238            2.3827844

 ------------------------------------------------------------------------------------
  ==> Computing MBIS Charges <==

  Electron Count from Grid (Expected Number): 13.00000 (13.00000)
  Difference: -0.00000

  MBIS Charges: (a.u.)
   Center  Symbol  Z      Pop.       Charge
      1       O    8    7.932530    0.067470
      2       C    6    5.067469    0.932531

  MBIS Dipoles: [e a0]
   Center  Symbol  Z        X           Y           Z
      1       O    8   -0.000000   -0.000000   -0.343947
      2       C    6   -0.000000    0.000000    0.161127

  MBIS Quadrupoles: [e a0^2]
   Center  Symbol  Z      XX        XY        XZ        YY        YZ        ZZ
      1       O    8   -3.6393   -0.0000   -0.0000   -3.6393    0.0000   -3.5581
      2       C    6   -2.8289   -0.0000    0.0000   -2.8289    0.0000   -2.9884

  MBIS Octupoles: [e a0^3]
   Center  Symbol  Z      XXX       XXY       XXZ       XYY       XYZ       XZZ       YYY       YYZ       YZZ       ZZZ
      1       O    8    0.0000   -0.0000   -0.3272   -0.0000   -0.0000    0.0000   -0.0000   -0.3272   -0.0000   -0.9661
      2       C    6   -0.0000    0.0000    0.3139   -0.0000    0.0000    0.0000    0.0000    0.3139    0.0000    0.5890

  MBIS Radial Moments:
   Center  Symbol  Z      [a0^2]      [a0^3]      [a0^4]
      1       O    8   10.836762   19.835850   43.367565
      2       C    6    8.646260   18.602520   47.602468

  MBIS Valence Widths: [a0]
   Center  Symbol  Z     Width
      1       O    8    0.381015
      2       C    6    0.465050

*** tstop() called on Mac.lan at Sun Aug 10 18:38:28 2025
Module time:
	user time   =       5.57 seconds =       0.09 minutes
	system time =       2.38 seconds =       0.04 minutes
	total time  =          1 seconds =       0.02 minutes
Total time:
	user time   =      22.26 seconds =       0.37 minutes
	system time =       4.59 seconds =       0.08 minutes
	total time  =          3 seconds =       0.05 minutes

    Psi4 stopped on: Sunday, 10 August 2025 06:38PM
    Psi4 wall time for execution: 0:00:02.62

*** Psi4 exiting successfully. Buy a developer a beer!
