                               Psi4 1.9.1 release

  ==> Input File <==

--------------------------------------------------------------------------
molecule {
1 1
O           0.000000           0.000000           0.000000
N           0.000000           0.000000           1.236346
}

set {
basis              cc-pvtz
reference          uks
maxiter            500
DAMPING_PERCENTAGE 1
E_CONVERGENCE      1.0E-8
D_CONVERGENCE      1.0E-8
DIIS_MAX_VECS      400
MBIS_MAXITER       8000
guess              read
}

E, wfn = energy('b3lyp', restart_file='last_wfn', return_wfn=True)
properties('b3lyp','MBIS_CHARGES', wfn=wfn)
wfn.to_file('last_wfn')
--------------------------------------------------------------------------

    Molecular point group: c2v
  Charge       = 1
  Multiplicity = 1
  Basis Set: CC-PVTZ
    Blend: CC-PVTZ
  Basis Set: (CC-PVTZ AUX)
    Blend: CC-PVTZ-JKFIT
  @DF-UKS Final Energy:  -129.52213386838739
    Total Energy =                       -129.5221338683873853
 Dipole X            :          0.0000000            0.0000000            0.0000000
 Dipole Y            :          0.0000000            0.0000000            0.0000000
 Dipole Z            :          0.3161473           -0.0046878            0.3114595
 Magnitude           :                                                    0.3114595
    Molecular point group: c2v

    Geometry (in Angstrom), charge = 1, multiplicity = 1:

       Center              X                  Y                   Z               Mass
    ------------   -----------------  -----------------  -----------------  -----------------
         O            0.000000000000     0.000000000000    -0.577126845072    15.994914619570
         N            0.000000000000     0.000000000000     0.659219154928    14.003074004430

  Charge       = 1
  Multiplicity = 1
  Basis Set: CC-PVTZ
    Blend: CC-PVTZ
  Basis Set: (CC-PVTZ AUX)
    Blend: CC-PVTZ-JKFIT

    Orbital Energies [Eh]
    ---------------------

    Alpha Occupied:

       1A1   -19.767674     2A1   -14.998556     3A1    -1.633070
       4A1    -1.120808     1B2    -0.906426     1B1    -0.906426
       5A1    -0.904299

    Alpha Virtual:

       2B2    -0.560077     2B1    -0.560077     6A1    -0.169653
       7A1     0.069568     3B1     0.100118     3B2     0.100118
       8A1     0.144317     9A1     0.227422     4B2     0.282059
       4B1     0.282059     1A2     0.555155    10A1     0.555155
       5B1     0.690858     5B2     0.690858    11A1     0.830318
      12A1     1.116740     2A2     1.116740    13A1     1.195403
       6B1     1.573123     6B2     1.573123    14A1     1.763786
       7B1     2.377366     7B2     2.377366    15A1     2.607511
       8B2     3.055272     8B1     3.055272     3A2     3.322071
      16A1     3.322071     9B2     3.371286     9B1     3.371286
      10B1     3.587173    10B2     3.587173    17A1     3.601764
      18A1     3.695638     4A2     3.910551    19A1     3.910552
      20A1     4.168812    11B1     4.242951    11B2     4.242951
      12B2     4.624204    12B1     4.624204    21A1     4.964443
       5A2     4.964443    22A1     5.462168    23A1     5.707857
       6A2     5.707875    13B2     5.729209    13B1     5.729209
      24A1     6.228945    14B1     6.319094    14B2     6.319094
      25A1     6.804477    26A1    10.905942

    Beta Occupied:

       1A1   -19.767674     2A1   -14.998556     3A1    -1.633070
       4A1    -1.120808     1B2    -0.906426     1B1    -0.906426
       5A1    -0.904299

    Beta Virtual:

       2B2    -0.560077     2B1    -0.560077     6A1    -0.169653
       7A1     0.069568     3B1     0.100118     3B2     0.100118
       8A1     0.144317     9A1     0.227422     4B2     0.282059
       4B1     0.282059     1A2     0.555155    10A1     0.555155
       5B1     0.690858     5B2     0.690858    11A1     0.830318
      12A1     1.116740     2A2     1.116740    13A1     1.195403
       6B1     1.573123     6B2     1.573123    14A1     1.763786
       7B1     2.377366     7B2     2.377366    15A1     2.607511
       8B2     3.055272     8B1     3.055272     3A2     3.322071
      16A1     3.322071     9B2     3.371286     9B1     3.371286
      10B1     3.587173    10B2     3.587173    17A1     3.601764
      18A1     3.695638     4A2     3.910551    19A1     3.910552
      20A1     4.168812    11B1     4.242951    11B2     4.242951
      12B2     4.624204    12B1     4.624204    21A1     4.964443
       5A2     4.964443    22A1     5.462168    23A1     5.707857
       6A2     5.707875    13B2     5.729209    13B1     5.729209
      24A1     6.228945    14B1     6.319094    14B2     6.319094
      25A1     6.804477    26A1    10.905942

    Final Occupation by Irrep:
             A1    A2    B1    B2
    DOCC [     5,    0,    1,    1 ]
    SOCC [     0,    0,    0,    0 ]
    NA   [     5,    0,    1,    1 ]
    NB   [     5,    0,    1,    1 ]

  @DF-UKS Final Energy:  -129.52213386540208

   => Energetics <=

    Nuclear Repulsion Energy =             23.9689567463477076
    One-Electron Energy =                -217.8950722095036667
    Two-Electron Energy =                  76.3754377628435321
    DFT Exchange-Correlation Energy =     -11.9714561650896556
    Empirical Dispersion Energy =           0.0000000000000000
    VV10 Nonlocal Energy =                  0.0000000000000000
    Total Energy =                       -129.5221338654020826

  UHF NO Occupations:
  HONO-2 :    4 A1 2.0000000
  HONO-1 :    1 B1 2.0000000
  HONO-0 :    5 A1 2.0000000
  LUNO+0 :    6 A1 0.0000000
  LUNO+1 :    7 A1 0.0000000
  LUNO+2 :    8 A1 0.0000000
  LUNO+3 :    2 B1 0.0000000

Computation Completed

Properties will be evaluated at   0.000000,   0.000000,   0.000000 [a0]

Properties computed using the B3LYP density matrix

 Multipole Moments:

 ------------------------------------------------------------------------------------
     Multipole            Electronic (a.u.)      Nuclear  (a.u.)        Total (a.u.)
 ------------------------------------------------------------------------------------

 L = 1.  Multiply by 2.5417464519 to convert [e a0] to [Debye]
 Dipole X            :          0.0000000            0.0000000            0.0000000
 Dipole Y            :          0.0000000            0.0000000            0.0000000
 Dipole Z            :          0.3161474           -0.0046878            0.3114596
 Magnitude           :                                                    0.3114596

 L = 2.  Multiply by 1.3450342976 to convert [e a0^2] to [Debye ang]
 Quadrupole XX       :         -6.0865997            0.0000000           -6.0865997
 Quadrupole XY       :          0.0000000            0.0000000            0.0000000
 Quadrupole XZ       :          0.0000000            0.0000000            0.0000000
 Quadrupole YY       :         -6.0865997            0.0000000           -6.0865997
 Quadrupole YZ       :          0.0000000            0.0000000            0.0000000
 Quadrupole ZZ       :        -25.3192889           20.3786115           -4.9406774
 Traceless XX        :          6.4108964           -6.7928705           -0.3819741
 Traceless YY        :          6.4108964           -6.7928705           -0.3819741
 Traceless ZZ        :        -12.8217928           13.5857410            0.7639482

 ------------------------------------------------------------------------------------
  ==> Computing MBIS Charges <==

  Electron Count from Grid (Expected Number): 14.00000 (14.00000)
  Difference:  0.00000

  MBIS Charges: (a.u.)
   Center  Symbol  Z      Pop.       Charge
      1       O    8    7.671230    0.328770
      2       N    7    6.328770    0.671230

  MBIS Dipoles: [e a0]
   Center  Symbol  Z        X           Y           Z
      1       O    8   -0.000000   -0.000000   -0.135928
      2       N    7   -0.000000   -0.000000   -0.030232

  MBIS Quadrupoles: [e a0^2]
   Center  Symbol  Z      XX        XY        XZ        YY        YZ        ZZ
      1       O    8   -3.1455    0.0000   -0.0000   -3.1455    0.0000   -3.3006
      2       N    7   -2.9411    0.0000    0.0000   -2.9411   -0.0000   -3.2940

  MBIS Octupoles: [e a0^3]
   Center  Symbol  Z      XXX       XXY       XXZ       XYY       XYZ       XZZ       YYY       YYZ       YZZ       ZZZ
      1       O    8   -0.0000   -0.0000   -0.1221   -0.0000    0.0000    0.0000   -0.0000   -0.1221   -0.0000   -0.3601
      2       N    7   -0.0000   -0.0000    0.0857   -0.0000   -0.0000    0.0000   -0.0000    0.0857   -0.0000    0.1574

  MBIS Radial Moments:
   Center  Symbol  Z      [a0^2]      [a0^3]      [a0^4]
      1       O    8    9.591574   16.750566   35.021191
      2       N    7    9.176185   17.557372   40.056523

  MBIS Valence Widths: [a0]
   Center  Symbol  Z     Width
      1       O    8    0.365914
      2       N    7    0.407256

*** tstop() called on Mac.lan at Sun Aug 10 18:42:14 2025
Module time:
	user time   =      10.38 seconds =       0.17 minutes
	system time =       1.49 seconds =       0.02 minutes
	total time  =          1 seconds =       0.02 minutes
Total time:
	user time   =      22.93 seconds =       0.38 minutes
	system time =       3.82 seconds =       0.06 minutes
	total time  =          3 seconds =       0.05 minutes

    Psi4 stopped on: Sunday, 10 August 2025 06:42PM
    Psi4 wall time for execution: 0:00:02.72

*** Psi4 exiting successfully. Buy a developer a beer!
