                               Psi4 1.9.1 release

  ==> Input File <==

--------------------------------------------------------------------------
molecule {
1 3
O           0.000000           0.000000           0.000000
H           0.000000           0.000000           1.443061
}

set {
basis              cc-pvtz
reference          uks
maxiter            500
DAMPING_PERCENTAGE 1
E_CONVERGENCE      1.0E-8
D_CONVERGENCE      1.0E-8
DIIS_MAX_VECS      400
MBIS_MAXITER       8000
guess              read
}

E, wfn = energy('b3lyp', restart_file='last_wfn', return_wfn=True)
properties('b3lyp','MBIS_CHARGES', wfn=wfn)
wfn.to_file('last_wfn')
--------------------------------------------------------------------------

    Molecular point group: c2v
  Charge       = 1
  Multiplicity = 3
  Basis Set: CC-PVTZ
    Blend: CC-PVTZ
  Basis Set: (CC-PVTZ AUX)
    Blend: CC-PVTZ-JKFIT
  @DF-UKS Final Energy:   -75.23808272913264
    Total Energy =                        -75.2380827291326426
 Dipole X            :          0.0000000            0.0000000            0.0000000
 Dipole Y            :          0.0000000            0.0000000            0.0000000
 Dipole Z            :          0.0872335            1.2722269            1.3594604
 Magnitude           :                                                    1.3594604
    Molecular point group: c2v

    Geometry (in Angstrom), charge = 1, multiplicity = 3:

       Center              X                  Y                   Z               Mass
    ------------   -----------------  -----------------  -----------------  -----------------
         O            0.000000000000     0.000000000000    -0.085536391700    15.994914619570
         H            0.000000000000     0.000000000000     1.357524608300     1.007825032230

  Charge       = 1
  Multiplicity = 3
  Basis Set: CC-PVTZ
    Blend: CC-PVTZ
  Basis Set: (CC-PVTZ AUX)
    Blend: CC-PVTZ-JKFIT

    Orbital Energies [Eh]
    ---------------------

    Alpha Occupied:

       1A1   -19.769682     2A1    -1.472609     1B2    -0.892540
       1B1    -0.892540     3A1    -0.875976

    Alpha Virtual:

       4A1    -0.452162     5A1    -0.029038     2B2     0.134525
       2B1     0.134525     6A1     0.233580     3B2     0.336717
       3B1     0.336717     7A1     0.404908     8A1     0.675192
       9A1     0.975584     1A2     0.975584     4B2     1.103514
       4B1     1.103514    10A1     1.525783    11A1     1.991273
      12A1     2.676099     2A2     2.786639    13A1     2.786641
       5B2     2.809825     5B1     2.809825     6B1     3.106813
       6B2     3.106813     7B2     3.251543     7B1     3.251543
      14A1     3.370887    15A1     4.100788     8B2     4.555116
       8B1     4.555116     3A2     4.591897    16A1     4.591897
       9B2     4.817830     9B1     4.817830    17A1     5.202062
       4A2     5.560519    18A1     5.560520    10B2     5.783601
      10B1     5.783601    19A1     6.419007    20A1     6.965903

    Beta Occupied:

       1A1   -19.711167     2A1    -1.303137     3A1    -0.823187

    Beta Virtual:

       1B2    -0.590181     1B1    -0.590181     4A1    -0.454884
       5A1    -0.037696     2B2     0.178711     2B1     0.178711
       6A1     0.257666     3B2     0.356378     3B1     0.356378
       7A1     0.436496     8A1     0.705611     1A2     1.088997
       9A1     1.088997     4B2     1.160260     4B1     1.160260
      10A1     1.553686    11A1     1.960276    12A1     2.690656
       2A2     2.759256    13A1     2.759260     5B2     2.821846
       5B1     2.821846     6B2     3.208197     6B1     3.208197
       7B2     3.234100     7B1     3.234100    14A1     3.363404
      15A1     4.127337    16A1     4.694578     3A2     4.694578
       8B2     4.706409     8B1     4.706409     9B2     4.895410
       9B1     4.895410    17A1     5.261838     4A2     5.775484
      18A1     5.775485    10B2     5.901389    10B1     5.901389
      19A1     6.486198    20A1     7.079671

    Final Occupation by Irrep:
             A1    A2    B1    B2
    DOCC [     3,    0,    0,    0 ]
    SOCC [     0,    0,    1,    1 ]
    NA   [     3,    0,    1,    1 ]
    NB   [     3,    0,    0,    0 ]

  @DF-UKS Final Energy:   -75.23808272907586

   => Energetics <=

    Nuclear Repulsion Energy =              2.9336373759390630
    One-Electron Energy =                -105.7135088635372995
    Two-Electron Energy =                  34.3414539882261991
    DFT Exchange-Correlation Energy =      -6.7996652297038027
    Empirical Dispersion Energy =           0.0000000000000000
    VV10 Nonlocal Energy =                  0.0000000000000000
    Total Energy =                        -75.2380827290758418

  UHF NO Occupations:
  HONO-2 :    3 A1 1.9886334
  HONO-1 :    1 B1 1.0000000
  HONO-0 :    1 B2 1.0000000
  LUNO+0 :    4 A1 0.0113666
  LUNO+1 :    5 A1 0.0009002
  LUNO+2 :    6 A1 0.0000014
  LUNO+3 :    7 A1 0.0000000

Computation Completed

Properties will be evaluated at   0.000000,   0.000000,   0.000000 [a0]

Properties computed using the B3LYP density matrix

 Multipole Moments:

 ------------------------------------------------------------------------------------
     Multipole            Electronic (a.u.)      Nuclear  (a.u.)        Total (a.u.)
 ------------------------------------------------------------------------------------

 L = 1.  Multiply by 2.5417464519 to convert [e a0] to [Debye]
 Dipole X            :          0.0000000            0.0000000            0.0000000
 Dipole Y            :          0.0000000            0.0000000            0.0000000
 Dipole Z            :          0.0872335            1.2722269            1.3594604
 Magnitude           :                                                    1.3594604

 L = 2.  Multiply by 1.3450342976 to convert [e a0^2] to [Debye ang]
 Quadrupole XX       :         -3.2282092            0.0000000           -3.2282092
 Quadrupole XY       :          0.0000000            0.0000000            0.0000000
 Quadrupole XZ       :          0.0000000            0.0000000            0.0000000
 Quadrupole YY       :         -3.2282092            0.0000000           -3.2282092
 Quadrupole YZ       :          0.0000000            0.0000000            0.0000000
 Quadrupole ZZ       :         -6.2713582            6.7900400            0.5186819
 Traceless XX        :          1.0143830           -2.2633467           -1.2489637
 Traceless YY        :          1.0143830           -2.2633467           -1.2489637
 Traceless ZZ        :         -2.0287660            4.5266933            2.4979273

 ------------------------------------------------------------------------------------
  ==> Computing MBIS Charges <==

  Electron Count from Grid (Expected Number):  8.00000 ( 8.00000)
  Difference: -0.00000

  MBIS Charges: (a.u.)
   Center  Symbol  Z      Pop.       Charge
      1       O    8    7.585899    0.414101
      2       H    1    0.414101    0.585899

  MBIS Dipoles: [e a0]
   Center  Symbol  Z        X           Y           Z
      1       O    8   -0.000000   -0.000000   -0.156505
      2       H    1    0.000000   -0.000000    0.079864

  MBIS Quadrupoles: [e a0^2]
   Center  Symbol  Z      XX        XY        XZ        YY        YZ        ZZ
      1       O    8   -2.9677    0.0000   -0.0000   -2.9677    0.0000   -3.5693
      2       H    1   -0.2605    0.0000    0.0000   -0.2605   -0.0000   -0.2390

  MBIS Octupoles: [e a0^3]
   Center  Symbol  Z      XXX       XXY       XXZ       XYY       XYZ       XZZ       YYY       YYZ       YZZ       ZZZ
      1       O    8   -0.0000   -0.0000   -0.1331    0.0000    0.0000    0.0000    0.0000   -0.1331   -0.0000   -0.5276
      2       H    1    0.0000   -0.0000    0.0413    0.0000    0.0000    0.0000   -0.0000    0.0413   -0.0000    0.1143

  MBIS Radial Moments:
   Center  Symbol  Z      [a0^2]      [a0^3]      [a0^4]
      1       O    8    9.504727   16.699242   35.079648
      2       H    1    0.759999    1.429718    3.194953

  MBIS Valence Widths: [a0]
   Center  Symbol  Z     Width
      1       O    8    0.366739
      2       H    1    0.398120

*** tstop() called on Mac.lan at Sun Aug 10 18:30:33 2025
Module time:
	user time   =       2.75 seconds =       0.05 minutes
	system time =       2.23 seconds =       0.04 minutes
	total time  =          1 seconds =       0.02 minutes
Total time:
	user time   =      13.35 seconds =       0.22 minutes
	system time =       4.25 seconds =       0.07 minutes
	total time  =          2 seconds =       0.03 minutes

    Psi4 stopped on: Sunday, 10 August 2025 06:30PM
    Psi4 wall time for execution: 0:00:01.74

*** Psi4 exiting successfully. Buy a developer a beer!
