                               Psi4 1.9.1 release

  ==> Input File <==

--------------------------------------------------------------------------
molecule {
1 1
O           0.000000           0.000000           0.000000
N           0.000000           0.000000           0.983898
}

set {
basis              cc-pvtz
reference          uks
maxiter            500
DAMPING_PERCENTAGE 1
E_CONVERGENCE      1.0E-8
D_CONVERGENCE      1.0E-8
DIIS_MAX_VECS      400
MBIS_MAXITER       8000
guess              read
}

E, wfn = energy('b3lyp', restart_file='last_wfn', return_wfn=True)
properties('b3lyp','MBIS_CHARGES', wfn=wfn)
wfn.to_file('last_wfn')
--------------------------------------------------------------------------

    Molecular point group: c2v
  Charge       = 1
  Multiplicity = 1
  Basis Set: CC-PVTZ
    Blend: CC-PVTZ
  Basis Set: (CC-PVTZ AUX)
    Blend: CC-PVTZ-JKFIT
  @DF-UKS Final Energy:  -129.56611515644954
    Total Energy =                       -129.5661151564495412
 Dipole X            :          0.0000000            0.0000000            0.0000000
 Dipole Y            :          0.0000000            0.0000000            0.0000000
 Dipole Z            :          0.0921264           -0.0037306            0.0883958
 Magnitude           :                                                    0.0883958
    Molecular point group: c2v

    Geometry (in Angstrom), charge = 1, multiplicity = 1:

       Center              X                  Y                   Z               Mass
    ------------   -----------------  -----------------  -----------------  -----------------
         O            0.000000000000     0.000000000000    -0.459284009988    15.994914619570
         N            0.000000000000     0.000000000000     0.524613990012    14.003074004430

  Charge       = 1
  Multiplicity = 1
  Basis Set: CC-PVTZ
    Blend: CC-PVTZ
  Basis Set: (CC-PVTZ AUX)
    Blend: CC-PVTZ-JKFIT

    Orbital Energies [Eh]
    ---------------------

    Alpha Occupied:

       1A1   -19.765244     2A1   -14.938547     3A1    -1.855391
       4A1    -1.088801     1B2    -1.032877     1B1    -1.032877
       5A1    -0.923134

    Alpha Virtual:

       2B1    -0.453426     2B2    -0.453426     6A1    -0.057494
       3B2     0.070437     3B1     0.070437     7A1     0.121476
       8A1     0.196785     4B1     0.286659     4B2     0.286659
       9A1     0.418460    10A1     0.517244     1A2     0.517244
       5B2     0.832355     5B1     0.832355    11A1     0.834500
       2A2     1.185638    12A1     1.185638    13A1     1.438291
       6B2     1.682660     6B1     1.682660    14A1     1.931194
       7B2     2.367280     7B1     2.367280    15A1     2.707163
      16A1     3.251367     8B2     3.254348     8B1     3.254348
       9B2     3.320882     9B1     3.320882    17A1     3.387702
       3A2     3.387702    10B2     3.667338    10B1     3.667338
      18A1     3.932307     4A2     3.932308    19A1     4.119642
      11B2     4.372072    11B1     4.372072    12B1     4.657899
      12B2     4.657899    20A1     4.900555     5A2     5.462068
      21A1     5.462068     6A2     5.713398    22A1     5.713404
      13B1     6.106837    13B2     6.106837    23A1     6.231377
      24A1     6.716105    14B2     7.119523    14B1     7.119523
      25A1     7.613114    26A1    17.798261

    Beta Occupied:

       1A1   -19.765244     2A1   -14.938547     3A1    -1.855391
       4A1    -1.088801     1B2    -1.032877     1B1    -1.032877
       5A1    -0.923134

    Beta Virtual:

       2B1    -0.453426     2B2    -0.453426     6A1    -0.057494
       3B2     0.070437     3B1     0.070437     7A1     0.121476
       8A1     0.196785     4B1     0.286659     4B2     0.286659
       9A1     0.418460    10A1     0.517244     1A2     0.517244
       5B2     0.832355     5B1     0.832355    11A1     0.834500
       2A2     1.185638    12A1     1.185638    13A1     1.438291
       6B2     1.682660     6B1     1.682660    14A1     1.931194
       7B2     2.367280     7B1     2.367280    15A1     2.707163
      16A1     3.251367     8B2     3.254348     8B1     3.254348
       9B2     3.320882     9B1     3.320882    17A1     3.387702
       3A2     3.387702    10B2     3.667338    10B1     3.667338
      18A1     3.932307     4A2     3.932308    19A1     4.119642
      11B2     4.372072    11B1     4.372072    12B1     4.657899
      12B2     4.657899    20A1     4.900555     5A2     5.462068
      21A1     5.462068     6A2     5.713398    22A1     5.713404
      13B1     6.106837    13B2     6.106837    23A1     6.231377
      24A1     6.716105    14B2     7.119523    14B1     7.119523
      25A1     7.613114    26A1    17.798261

    Final Occupation by Irrep:
             A1    A2    B1    B2
    DOCC [     5,    0,    1,    1 ]
    SOCC [     0,    0,    0,    0 ]
    NA   [     5,    0,    1,    1 ]
    NB   [     5,    0,    1,    1 ]

  @DF-UKS Final Energy:  -129.56611515671622

   => Energetics <=

    Nuclear Repulsion Energy =             30.1188982979129953
    One-Electron Energy =                -229.3173874595446193
    Two-Electron Energy =                  81.8481277474179620
    DFT Exchange-Correlation Energy =     -12.2157537425025779
    Empirical Dispersion Energy =           0.0000000000000000
    VV10 Nonlocal Energy =                  0.0000000000000000
    Total Energy =                       -129.5661151567162221

  UHF NO Occupations:
  HONO-2 :    1 B1 2.0000000
  HONO-1 :    4 A1 2.0000000
  HONO-0 :    5 A1 2.0000000
  LUNO+0 :    6 A1 0.0000000
  LUNO+1 :    7 A1 0.0000000
  LUNO+2 :    8 A1 0.0000000
  LUNO+3 :    9 A1 0.0000000

Computation Completed

Properties will be evaluated at   0.000000,   0.000000,   0.000000 [a0]

Properties computed using the B3LYP density matrix

 Multipole Moments:

 ------------------------------------------------------------------------------------
     Multipole            Electronic (a.u.)      Nuclear  (a.u.)        Total (a.u.)
 ------------------------------------------------------------------------------------

 L = 1.  Multiply by 2.5417464519 to convert [e a0] to [Debye]
 Dipole X            :          0.0000000            0.0000000            0.0000000
 Dipole Y            :          0.0000000            0.0000000            0.0000000
 Dipole Z            :          0.0921264           -0.0037306            0.0883958
 Magnitude           :                                                    0.0883958

 L = 2.  Multiply by 1.3450342976 to convert [e a0^2] to [Debye ang]
 Quadrupole XX       :         -5.6723584            0.0000000           -5.6723584
 Quadrupole XY       :          0.0000000            0.0000000            0.0000000
 Quadrupole XZ       :          0.0000000            0.0000000            0.0000000
 Quadrupole YY       :         -5.6723584            0.0000000           -5.6723584
 Quadrupole YZ       :          0.0000000            0.0000000            0.0000000
 Quadrupole ZZ       :        -18.4361504           12.9060900           -5.5300604
 Traceless XX        :          4.2545973           -4.3020300           -0.0474327
 Traceless YY        :          4.2545973           -4.3020300           -0.0474327
 Traceless ZZ        :         -8.5091947            8.6040600            0.0948653

 ------------------------------------------------------------------------------------
  ==> Computing MBIS Charges <==

  Electron Count from Grid (Expected Number): 14.00000 (14.00000)
  Difference: -0.00000

  MBIS Charges: (a.u.)
   Center  Symbol  Z      Pop.       Charge
      1       O    8    7.599075    0.400925
      2       N    7    6.400925    0.599075

  MBIS Dipoles: [e a0]
   Center  Symbol  Z        X           Y           Z
      1       O    8   -0.000000   -0.000000   -0.067217
      2       N    7   -0.000000    0.000000   -0.090325

  MBIS Quadrupoles: [e a0^2]
   Center  Symbol  Z      XX        XY        XZ        YY        YZ        ZZ
      1       O    8   -2.8567   -0.0000   -0.0000   -2.8567   -0.0000   -3.1017
      2       N    7   -2.8156   -0.0000    0.0000   -2.8156    0.0000   -3.2567

  MBIS Octupoles: [e a0^3]
   Center  Symbol  Z      XXX       XXY       XXZ       XYY       XYZ       XZZ       YYY       YYZ       YZZ       ZZZ
      1       O    8    0.0000   -0.0000   -0.0331    0.0000   -0.0000    0.0000   -0.0000   -0.0331    0.0000   -0.0969
      2       N    7    0.0000    0.0000   -0.0368   -0.0000    0.0000    0.0000   -0.0000   -0.0368    0.0000   -0.1656

  MBIS Radial Moments:
   Center  Symbol  Z      [a0^2]      [a0^3]      [a0^4]
      1       O    8    8.815206   14.783167   29.701187
      2       N    7    8.887955   16.620559   37.094787

  MBIS Valence Widths: [a0]
   Center  Symbol  Z     Width
      1       O    8    0.352087
      2       N    7    0.396351

*** tstop() called on Mac.lan at Sun Aug 10 18:40:13 2025
Module time:
	user time   =      19.32 seconds =       0.32 minutes
	system time =       3.17 seconds =       0.05 minutes
	total time  =          3 seconds =       0.05 minutes
Total time:
	user time   =     103.87 seconds =       1.73 minutes
	system time =       9.14 seconds =       0.15 minutes
	total time  =         12 seconds =       0.20 minutes

    Psi4 stopped on: Sunday, 10 August 2025 06:40PM
    Psi4 wall time for execution: 0:00:11.46

*** Psi4 exiting successfully. Buy a developer a beer!
