                               Psi4 1.9.1 release

  ==> Input File <==

--------------------------------------------------------------------------
molecule {
1 2
H           0.000000           0.000000           0.000000
H           0.000000           0.000000           1.507000
}

set {
basis              cc-pvtz
reference          uks
maxiter            500
DAMPING_PERCENTAGE 1
E_CONVERGENCE      1.0E-8
D_CONVERGENCE      1.0E-8
DIIS_MAX_VECS      400
MBIS_MAXITER       8000
guess              read
}

E, wfn = energy('b3lyp', restart_file='last_wfn', return_wfn=True)
properties('b3lyp','MBIS_CHARGES', wfn=wfn)
wfn.to_file('last_wfn')
--------------------------------------------------------------------------

    Molecular point group: d2h
  Charge       = 1
  Multiplicity = 2
  Basis Set: CC-PVTZ
    Blend: CC-PVTZ
  Basis Set: (CC-PVTZ AUX)
    Blend: CC-PVTZ-JKFIT
  @DF-UKS Final Energy:    -0.59859154159422
    Total Energy =                         -0.5985915415942211
 Dipole X            :          0.0000000            0.0000000            0.0000000
 Dipole Y            :          0.0000000            0.0000000            0.0000000
 Dipole Z            :          0.0000000            0.0000000            0.0000000
 Magnitude           :                                                    0.0000000
    Molecular point group: d2h

    Geometry (in Angstrom), charge = 1, multiplicity = 2:

       Center              X                  Y                   Z               Mass
    ------------   -----------------  -----------------  -----------------  -----------------
         H            0.000000000000     0.000000000000    -0.753500000000     1.007825032230
         H            0.000000000000     0.000000000000     0.753500000000     1.007825032230

  Charge       = 1
  Multiplicity = 2
  Basis Set: CC-PVTZ
    Blend: CC-PVTZ
  Basis Set: (CC-PVTZ AUX)
    Blend: CC-PVTZ-JKFIT

    Orbital Energies [Eh]
    ---------------------

    Alpha Occupied:

       1Ag    -0.791539

    Alpha Virtual:

       1B1u   -0.512482     2Ag    -0.051729     2B1u    0.012971
       1B2u    0.110402     1B3u    0.110402     3Ag     0.222188
       1B3g    0.380594     1B2g    0.380594     3B1u    0.766360
       4Ag     1.729434     4B1u    1.903791     5Ag     2.383272
       2B3u    2.446081     2B2u    2.446081     1B1g    2.680985
       6Ag     2.680987     1Au     2.802720     5B1u    2.802721
       2B2g    3.001736     2B3g    3.001736     3B2u    3.077347
       3B3u    3.077347     6B1u    3.186945     3B2g    3.340687
       3B3g    3.340687     7Ag     3.453800     7B1u    4.296178

    Beta Occupied:

    Beta Virtual:

       1Ag    -0.489735     1B1u   -0.295587     2Ag     0.042631
       2B1u    0.118598     1B2u    0.242861     1B3u    0.242861
       3Ag     0.374504     1B3g    0.504014     1B2g    0.504014
       3B1u    0.896752     4Ag     2.041944     4B1u    2.195368
       5Ag     2.587972     2B2u    2.635419     2B3u    2.635419
       6Ag     2.864225     1B1g    2.864227     5B1u    2.985920
       1Au     2.985922     2B3g    3.233033     2B2g    3.233033
       3B2u    3.330032     3B3u    3.330032     6B1u    3.448420
       3B3g    3.552126     3B2g    3.552126     7Ag     3.701336
       7B1u    4.504597

    Final Occupation by Irrep:
             Ag   B1g   B2g   B3g    Au   B1u   B2u   B3u
    DOCC [     0,    0,    0,    0,    0,    0,    0,    0 ]
    SOCC [     1,    0,    0,    0,    0,    0,    0,    0 ]
    NA   [     1,    0,    0,    0,    0,    0,    0,    0 ]
    NB   [     0,    0,    0,    0,    0,    0,    0,    0 ]

  @DF-UKS Final Energy:    -0.59859154157079

   => Energetics <=

    Nuclear Repulsion Energy =              0.3511461251957531
    One-Electron Energy =                  -0.9312760007116464
    Two-Electron Energy =                   0.2214703702805978
    DFT Exchange-Correlation Energy =      -0.2399320363354951
    Empirical Dispersion Energy =           0.0000000000000000
    VV10 Nonlocal Energy =                  0.0000000000000000
    Total Energy =                         -0.5985915415707905

  UHF NO Occupations:
  HONO-0 :    1 Ag 1.0000000
  LUNO+0 :    2 Ag 0.0000000
  LUNO+1 :    3 Ag 0.0000000
  LUNO+2 :    4 Ag 0.0000000
  LUNO+3 :    5 Ag 0.0000000

Computation Completed

Properties will be evaluated at   0.000000,   0.000000,   0.000000 [a0]

Properties computed using the B3LYP density matrix

 Multipole Moments:

 ------------------------------------------------------------------------------------
     Multipole            Electronic (a.u.)      Nuclear  (a.u.)        Total (a.u.)
 ------------------------------------------------------------------------------------

 L = 1.  Multiply by 2.5417464519 to convert [e a0] to [Debye]
 Dipole X            :          0.0000000            0.0000000            0.0000000
 Dipole Y            :          0.0000000            0.0000000            0.0000000
 Dipole Z            :          0.0000000            0.0000000            0.0000000
 Magnitude           :                                                    0.0000000

 L = 2.  Multiply by 1.3450342976 to convert [e a0^2] to [Debye ang]
 Quadrupole XX       :         -0.7558769            0.0000000           -0.7558769
 Quadrupole XY       :          0.0000000            0.0000000            0.0000000
 Quadrupole XZ       :          0.0000000            0.0000000            0.0000000
 Quadrupole YY       :         -0.7558769            0.0000000           -0.7558769
 Quadrupole YZ       :          0.0000000            0.0000000            0.0000000
 Quadrupole ZZ       :         -2.0653521            4.0550316            1.9896796
 Traceless XX        :          0.4364917           -1.3516772           -0.9151855
 Traceless YY        :          0.4364917           -1.3516772           -0.9151855
 Traceless ZZ        :         -0.8729835            2.7033544            1.8303709

 ------------------------------------------------------------------------------------
  ==> Computing MBIS Charges <==

  Electron Count from Grid (Expected Number):  1.00000 ( 1.00000)
  Difference:  0.00000

  MBIS Charges: (a.u.)
   Center  Symbol  Z      Pop.       Charge
      1       H    1    0.500000    0.500000
      2       H    1    0.500000    0.500000

  MBIS Dipoles: [e a0]
   Center  Symbol  Z        X           Y           Z
      1       H    1    0.000000    0.000000   -0.134308
      2       H    1   -0.000000    0.000000    0.134308

  MBIS Quadrupoles: [e a0^2]
   Center  Symbol  Z      XX        XY        XZ        YY        YZ        ZZ
      1       H    1   -0.3779    0.0000   -0.0000   -0.3779   -0.0000   -0.4014
      2       H    1   -0.3779    0.0000    0.0000   -0.3779    0.0000   -0.4014

  MBIS Octupoles: [e a0^3]
   Center  Symbol  Z      XXX       XXY       XXZ       XYY       XYZ       XZZ       YYY       YYZ       YZZ       ZZZ
      1       H    1   -0.0000   -0.0000   -0.1112    0.0000   -0.0000   -0.0000    0.0000   -0.1112    0.0000   -0.2686
      2       H    1   -0.0000    0.0000    0.1112    0.0000    0.0000    0.0000   -0.0000    0.1112   -0.0000    0.2686

  MBIS Radial Moments:
   Center  Symbol  Z      [a0^2]      [a0^3]      [a0^4]
      1       H    1    1.157281    2.441479    6.102875
      2       H    1    1.157281    2.441479    6.102875

  MBIS Valence Widths: [a0]
   Center  Symbol  Z     Width
      1       H    1    0.446496
      2       H    1    0.446496

*** tstop() called on Mac.lan at Sun Aug 10 18:11:52 2025
Module time:
	user time   =       0.54 seconds =       0.01 minutes
	system time =       1.16 seconds =       0.02 minutes
	total time  =          0 seconds =       0.00 minutes
Total time:
	user time   =       1.16 seconds =       0.02 minutes
	system time =       3.37 seconds =       0.06 minutes
	total time  =          1 seconds =       0.02 minutes

    Psi4 stopped on: Sunday, 10 August 2025 06:11PM
    Psi4 wall time for execution: 0:00:00.60

*** Psi4 exiting successfully. Buy a developer a beer!
