                               Psi4 1.9.1 release

  ==> Input File <==

--------------------------------------------------------------------------
molecule {
1 2
N           0.000000           0.000000           0.000000
N           0.000000           0.000000           0.662864
}

set {
basis              cc-pvtz
reference          uks
maxiter            500
DAMPING_PERCENTAGE 1
E_CONVERGENCE      1.0E-8
D_CONVERGENCE      1.0E-8
DIIS_MAX_VECS      400
MBIS_MAXITER       8000
guess              read
}

E, wfn = energy('b3lyp', restart_file='last_wfn', return_wfn=True)
properties('b3lyp','MBIS_CHARGES', wfn=wfn)
wfn.to_file('last_wfn')
--------------------------------------------------------------------------

    Molecular point group: d2h
  Charge       = 1
  Multiplicity = 2
  Basis Set: CC-PVTZ
    Blend: CC-PVTZ
  Basis Set: (CC-PVTZ AUX)
    Blend: CC-PVTZ-JKFIT
  @DF-UKS Final Energy:  -107.27228470881747
    Total Energy =                       -107.2722847088174660
 Dipole X            :          0.0000000            0.0000000            0.0000000
 Dipole Y            :          0.0000000            0.0000000            0.0000000
 Dipole Z            :          0.0000000            0.0000000            0.0000000
 Magnitude           :                                                    0.0000000
    Molecular point group: d2h

    Geometry (in Angstrom), charge = 1, multiplicity = 2:

       Center              X                  Y                   Z               Mass
    ------------   -----------------  -----------------  -----------------  -----------------
         N            0.000000000000     0.000000000000    -0.331432000000    14.003074004430
         N            0.000000000000     0.000000000000     0.331432000000    14.003074004430

  Charge       = 1
  Multiplicity = 2
  Basis Set: CC-PVTZ
    Blend: CC-PVTZ
  Basis Set: (CC-PVTZ AUX)
    Blend: CC-PVTZ-JKFIT

    Orbital Energies [Eh]
    ---------------------

    Alpha Occupied:

       1Ag   -14.984824     1B1u  -14.853755     2Ag    -1.743251
       1B2u   -1.195816     1B3u   -1.195816     3Ag    -0.968344
       2B1u   -0.906933

    Alpha Virtual:

       1B2g   -0.170844     1B3g   -0.170844     2B3u   -0.011006
       2B2u   -0.011006     3B1u    0.014857     4Ag     0.054342
       5Ag     0.160591     2B2g    0.309496     2B3g    0.309496
       1B1g    0.439978     6Ag     0.439978     4B1u    0.558934
       3B2u    0.963401     3B3u    0.963401     1Au     1.037444
       5B1u    1.037444     6B1u    1.052540     7Ag     1.118016
       3B2g    1.360464     3B3g    1.360464     4B3u    1.994490
       4B2u    1.994490     8Ag     2.757514     7B1u    2.780462
       5B3u    3.018669     5B2u    3.018669     4B2g    3.104794
       4B3g    3.104794     2B1g    3.150468     9Ag     3.150468
       8B1u    3.380165     6B2u    3.580948     6B3u    3.580948
       2Au     3.774866     9B1u    3.774866    10Ag     3.816892
       5B3g    4.080283     5B2g    4.080283     6B2g    4.108359
       6B3g    4.108359     3B1g    4.121517    11Ag     4.121517
      12Ag     4.319136    10B1u    4.962366     7B2u    5.641242
       7B3u    5.641242     3Au     5.987681    11B1u    5.987681
       7B2g    7.770039     7B3g    7.770039    13Ag     8.044055
      12B1u    8.397155    13B1u   28.630044

    Beta Occupied:

       1Ag   -14.965887     1B1u  -14.838017     2Ag    -1.703663
       1B2u   -1.179410     1B3u   -1.179410     2B1u   -0.812731

    Beta Virtual:

       3Ag    -0.773963     1B2g   -0.146533     1B3g   -0.146533
       2B3u   -0.005719     2B2u   -0.005719     3B1u    0.027723
       4Ag     0.073752     5Ag     0.187399     2B2g    0.322290
       2B3g    0.322290     1B1g    0.447145     6Ag     0.447145
       4B1u    0.581505     3B2u    0.992367     3B3u    0.992367
       1Au     1.049999     5B1u    1.049999     6B1u    1.079863
       7Ag     1.155815     3B2g    1.377433     3B3g    1.377433
       4B3u    2.007480     4B2u    2.007480     8Ag     2.790850
       7B1u    2.864464     5B3u    3.024136     5B2u    3.024136
       4B2g    3.121572     4B3g    3.121572     2B1g    3.154814
       9Ag     3.154814     8B1u    3.400578     6B2u    3.644918
       6B3u    3.644918     2Au     3.808018     9B1u    3.808018
      10Ag     3.883205     5B3g    4.093719     5B2g    4.093719
       3B1g    4.155071    11Ag     4.155071     6B2g    4.158189
       6B3g    4.158189    12Ag     4.364447    10B1u    5.008929
       7B2u    5.675886     7B3u    5.675886     3Au     6.001412
      11B1u    6.001412     7B2g    7.811641     7B3g    7.811641
      13Ag     8.082008    12B1u    8.460439    13B1u   28.653869

    Final Occupation by Irrep:
             Ag   B1g   B2g   B3g    Au   B1u   B2u   B3u
    DOCC [     2,    0,    0,    0,    0,    2,    1,    1 ]
    SOCC [     1,    0,    0,    0,    0,    0,    0,    0 ]
    NA   [     3,    0,    0,    0,    0,    2,    1,    1 ]
    NB   [     2,    0,    0,    0,    0,    2,    1,    1 ]

  @DF-UKS Final Energy:  -107.27228470853358

   => Energetics <=

    Nuclear Repulsion Energy =             39.1176520716617659
    One-Electron Energy =                -214.0052571156450085
    Two-Electron Energy =                  79.1048585924547751
    DFT Exchange-Correlation Energy =     -11.4895382570051279
    Empirical Dispersion Energy =           0.0000000000000000
    VV10 Nonlocal Energy =                  0.0000000000000000
    Total Energy =                       -107.2722847085335758

  UHF NO Occupations:
  HONO-2 :    2 Ag 1.9998927
  HONO-1 :    2B1u 1.9991863
  HONO-0 :    3 Ag 1.0000000
  LUNO+0 :    3B1u 0.0008137
  LUNO+1 :    4 Ag 0.0001073
  LUNO+2 :    2B2u 0.0000319
  LUNO+3 :    2B3u 0.0000319

Computation Completed

Properties will be evaluated at   0.000000,   0.000000,   0.000000 [a0]

Properties computed using the B3LYP density matrix

 Multipole Moments:

 ------------------------------------------------------------------------------------
     Multipole            Electronic (a.u.)      Nuclear  (a.u.)        Total (a.u.)
 ------------------------------------------------------------------------------------

 L = 1.  Multiply by 2.5417464519 to convert [e a0] to [Debye]
 Dipole X            :          0.0000000            0.0000000            0.0000000
 Dipole Y            :          0.0000000            0.0000000            0.0000000
 Dipole Z            :          0.0000000            0.0000000            0.0000000
 Magnitude           :                                                    0.0000000

 L = 2.  Multiply by 1.3450342976 to convert [e a0^2] to [Debye ang]
 Quadrupole XX       :         -4.9746983            0.0000000           -4.9746983
 Quadrupole XY       :          0.0000000            0.0000000            0.0000000
 Quadrupole XZ       :          0.0000000            0.0000000            0.0000000
 Quadrupole YY       :         -4.9746983            0.0000000           -4.9746983
 Quadrupole YZ       :          0.0000000            0.0000000            0.0000000
 Quadrupole ZZ       :        -10.6575200            5.4917991           -5.1657208
 Traceless XX        :          1.8942739           -1.8305997            0.0636742
 Traceless YY        :          1.8942739           -1.8305997            0.0636742
 Traceless ZZ        :         -3.7885478            3.6611994           -0.1273484

 ------------------------------------------------------------------------------------
  ==> Computing MBIS Charges <==

  Electron Count from Grid (Expected Number): 13.00000 (13.00000)
  Difference: -0.00000

  MBIS Charges: (a.u.)
   Center  Symbol  Z      Pop.       Charge
      1       N    7    6.499999    0.500001
      2       N    7    6.499999    0.500001

  MBIS Dipoles: [e a0]
   Center  Symbol  Z        X           Y           Z
      1       N    7   -0.000000   -0.000000   -0.054275
      2       N    7    0.000000    0.000000    0.054275

  MBIS Quadrupoles: [e a0^2]
   Center  Symbol  Z      XX        XY        XZ        YY        YZ        ZZ
      1       N    7   -2.4873   -0.0000    0.0000   -2.4873   -0.0000   -2.8470
      2       N    7   -2.4873   -0.0000   -0.0000   -2.4873    0.0000   -2.8470

  MBIS Octupoles: [e a0^3]
   Center  Symbol  Z      XXX       XXY       XXZ       XYY       XYZ       XZZ       YYY       YYZ       YZZ       ZZZ
      1       N    7   -0.0000   -0.0000    0.0629    0.0000   -0.0000    0.0000   -0.0000    0.0629    0.0000    0.3082
      2       N    7    0.0000   -0.0000   -0.0629    0.0000    0.0000   -0.0000   -0.0000   -0.0629    0.0000   -0.3082

  MBIS Radial Moments:
   Center  Symbol  Z      [a0^2]      [a0^3]      [a0^4]
      1       N    7    7.821682   13.716209   29.001900
      2       N    7    7.821682   13.716209   29.001900

  MBIS Valence Widths: [a0]
   Center  Symbol  Z     Width
      1       N    7    0.363990
      2       N    7    0.363990

*** tstop() called on Mac.lan at Sun Aug 10 18:24:59 2025
Module time:
	user time   =       4.35 seconds =       0.07 minutes
	system time =       2.09 seconds =       0.03 minutes
	total time  =          1 seconds =       0.02 minutes
Total time:
	user time   =      16.03 seconds =       0.27 minutes
	system time =       4.55 seconds =       0.08 minutes
	total time  =          2 seconds =       0.03 minutes

    Psi4 stopped on: Sunday, 10 August 2025 06:24PM
    Psi4 wall time for execution: 0:00:02.01

*** Psi4 exiting successfully. Buy a developer a beer!
