                               Psi4 1.9.1 release

  ==> Input File <==

--------------------------------------------------------------------------
molecule {
1 2
H           0.000000           0.000000           0.000000
H           0.000000           0.000000           1.670657
}

set {
basis              cc-pvtz
reference          uks
maxiter            500
DAMPING_PERCENTAGE 1
E_CONVERGENCE      1.0E-8
D_CONVERGENCE      1.0E-8
DIIS_MAX_VECS      400
MBIS_MAXITER       8000
guess              read
}

E, wfn = energy('b3lyp', restart_file='last_wfn', return_wfn=True)
properties('b3lyp','MBIS_CHARGES', wfn=wfn)
wfn.to_file('last_wfn')
--------------------------------------------------------------------------

    Molecular point group: d2h
  Charge       = 1
  Multiplicity = 2
  Basis Set: CC-PVTZ
    Blend: CC-PVTZ
  Basis Set: (CC-PVTZ AUX)
    Blend: CC-PVTZ-JKFIT
  @DF-UKS Final Energy:    -0.59146895637278
    Total Energy =                         -0.5914689563727824
 Dipole X            :          0.0000000            0.0000000            0.0000000
 Dipole Y            :          0.0000000            0.0000000            0.0000000
 Dipole Z            :          0.0000000            0.0000000            0.0000000
 Magnitude           :                                                    0.0000000
    Molecular point group: d2h

    Geometry (in Angstrom), charge = 1, multiplicity = 2:

       Center              X                  Y                   Z               Mass
    ------------   -----------------  -----------------  -----------------  -----------------
         H            0.000000000000     0.000000000000    -0.835328500000     1.007825032230
         H            0.000000000000     0.000000000000     0.835328500000     1.007825032230

  Charge       = 1
  Multiplicity = 2
  Basis Set: CC-PVTZ
    Blend: CC-PVTZ
  Basis Set: (CC-PVTZ AUX)
    Blend: CC-PVTZ-JKFIT

    Orbital Energies [Eh]
    ---------------------

    Alpha Occupied:

       1Ag    -0.759070

    Alpha Virtual:

       1B1u   -0.531762     2Ag    -0.037782     2B1u    0.010685
       1B2u    0.134872     1B3u    0.134872     3Ag     0.175153
       1B2g    0.355663     1B3g    0.355663     3B1u    0.712029
       4Ag     1.694654     4B1u    1.888865     5Ag     2.478196
       2B2u    2.548878     2B3u    2.548878     6Ag     2.723895
       1B1g    2.723895     5B1u    2.779835     1Au     2.779835
       2B2g    2.906123     2B3g    2.906123     6B1u    3.066874
       3B2u    3.078184     3B3u    3.078184     3B3g    3.261644
       3B2g    3.261644     7Ag     3.324769     7B1u    4.015918

    Beta Occupied:

    Beta Virtual:

       1Ag    -0.469618     1B1u   -0.308746     2Ag     0.058089
       2B1u    0.114073     1B2u    0.264625     1B3u    0.264625
       3Ag     0.328786     1B2g    0.481431     1B3g    0.481431
       3B1u    0.844174     4Ag     2.002352     4B1u    2.184169
       5Ag     2.673332     2B2u    2.737630     2B3u    2.737630
       6Ag     2.907670     1B1g    2.907674     5B1u    2.963610
       1Au     2.963614     2B3g    3.116766     2B2g    3.116766
       6B1u    3.321033     3B3u    3.330523     3B2u    3.330523
       3B2g    3.491943     3B3g    3.491943     7Ag     3.580006
       7B1u    4.226570

    Final Occupation by Irrep:
             Ag   B1g   B2g   B3g    Au   B1u   B2u   B3u
    DOCC [     0,    0,    0,    0,    0,    0,    0,    0 ]
    SOCC [     1,    0,    0,    0,    0,    0,    0,    0 ]
    NA   [     1,    0,    0,    0,    0,    0,    0,    0 ]
    NB   [     0,    0,    0,    0,    0,    0,    0,    0 ]

  @DF-UKS Final Energy:    -0.59146895635038

   => Energetics <=

    Nuclear Repulsion Energy =              0.3167479684160184
    One-Electron Energy =                  -0.8856693700695665
    Two-Electron Energy =                   0.2100731977497954
    DFT Exchange-Correlation Energy =      -0.2326207524466246
    Empirical Dispersion Energy =           0.0000000000000000
    VV10 Nonlocal Energy =                  0.0000000000000000
    Total Energy =                         -0.5914689563503772

  UHF NO Occupations:
  HONO-0 :    1 Ag 1.0000000
  LUNO+0 :    2 Ag 0.0000000
  LUNO+1 :    3 Ag 0.0000000
  LUNO+2 :    3B3u 0.0000000
  LUNO+3 :    2B3u 0.0000000

Computation Completed

Properties will be evaluated at   0.000000,   0.000000,   0.000000 [a0]

Properties computed using the B3LYP density matrix

 Multipole Moments:

 ------------------------------------------------------------------------------------
     Multipole            Electronic (a.u.)      Nuclear  (a.u.)        Total (a.u.)
 ------------------------------------------------------------------------------------

 L = 1.  Multiply by 2.5417464519 to convert [e a0] to [Debye]
 Dipole X            :          0.0000000            0.0000000            0.0000000
 Dipole Y            :          0.0000000            0.0000000            0.0000000
 Dipole Z            :          0.0000000            0.0000000            0.0000000
 Magnitude           :                                                    0.0000000

 L = 2.  Multiply by 1.3450342976 to convert [e a0^2] to [Debye ang]
 Quadrupole XX       :         -0.7921908            0.0000000           -0.7921908
 Quadrupole XY       :          0.0000000            0.0000000            0.0000000
 Quadrupole XZ       :          0.0000000            0.0000000            0.0000000
 Quadrupole YY       :         -0.7921908            0.0000000           -0.7921908
 Quadrupole YZ       :          0.0000000            0.0000000            0.0000000
 Quadrupole ZZ       :         -2.5009547            4.9835903            2.4826356
 Traceless XX        :          0.5695880           -1.6611968           -1.0916088
 Traceless YY        :          0.5695880           -1.6611968           -1.0916088
 Traceless ZZ        :         -1.1391759            3.3223935            2.1832176

 ------------------------------------------------------------------------------------
  ==> Computing MBIS Charges <==

  Electron Count from Grid (Expected Number):  1.00000 ( 1.00000)
  Difference: -0.00000

  MBIS Charges: (a.u.)
   Center  Symbol  Z      Pop.       Charge
      1       H    1    0.500000    0.500000
      2       H    1    0.500000    0.500000

  MBIS Dipoles: [e a0]
   Center  Symbol  Z        X           Y           Z
      1       H    1   -0.000000   -0.000000   -0.135667
      2       H    1    0.000000   -0.000000    0.135667

  MBIS Quadrupoles: [e a0^2]
   Center  Symbol  Z      XX        XY        XZ        YY        YZ        ZZ
      1       H    1   -0.3961   -0.0000    0.0000   -0.3961    0.0000   -0.4329
      2       H    1   -0.3961   -0.0000    0.0000   -0.3961   -0.0000   -0.4329

  MBIS Octupoles: [e a0^3]
   Center  Symbol  Z      XXX       XXY       XXZ       XYY       XYZ       XZZ       YYY       YYZ       YZZ       ZZZ
      1       H    1    0.0000    0.0000   -0.1196    0.0000   -0.0000    0.0000   -0.0000   -0.1196   -0.0000   -0.3071
      2       H    1    0.0000   -0.0000    0.1196   -0.0000   -0.0000   -0.0000   -0.0000    0.1196   -0.0000    0.3071

  MBIS Radial Moments:
   Center  Symbol  Z      [a0^2]      [a0^3]      [a0^4]
      1       H    1    1.225082    2.668401    6.883693
      2       H    1    1.225082    2.668401    6.883693

  MBIS Valence Widths: [a0]
   Center  Symbol  Z     Width
      1       H    1    0.458460
      2       H    1    0.458460

*** tstop() called on Mac.lan at Sun Aug 10 18:12:00 2025
Module time:
	user time   =       0.58 seconds =       0.01 minutes
	system time =       1.33 seconds =       0.02 minutes
	total time  =          0 seconds =       0.00 minutes
Total time:
	user time   =       2.28 seconds =       0.04 minutes
	system time =       2.42 seconds =       0.04 minutes
	total time  =          0 seconds =       0.00 minutes

    Psi4 stopped on: Sunday, 10 August 2025 06:12PM
    Psi4 wall time for execution: 0:00:00.61

*** Psi4 exiting successfully. Buy a developer a beer!
