                               Psi4 1.9.1 release

  ==> Input File <==

--------------------------------------------------------------------------
molecule {
1 2
N           0.000000           0.000000           0.000000
N           0.000000           0.000000           1.129575
}

set {
basis              cc-pvtz
reference          uks
maxiter            500
DAMPING_PERCENTAGE 1
E_CONVERGENCE      1.0E-8
D_CONVERGENCE      1.0E-8
DIIS_MAX_VECS      400
MBIS_MAXITER       8000
guess              read
}

E, wfn = energy('b3lyp', restart_file='last_wfn', return_wfn=True)
properties('b3lyp','MBIS_CHARGES', wfn=wfn)
wfn.to_file('last_wfn')
--------------------------------------------------------------------------

    Molecular point group: d2h
  Charge       = 1
  Multiplicity = 2
  Basis Set: CC-PVTZ
    Blend: CC-PVTZ
  Basis Set: (CC-PVTZ AUX)
    Blend: CC-PVTZ-JKFIT
  @DF-UKS Final Energy:  -108.98662813282719
    Total Energy =                       -108.9866281328271924
 Dipole X            :          0.0000000            0.0000000            0.0000000
 Dipole Y            :          0.0000000            0.0000000            0.0000000
 Dipole Z            :          0.0000000           -0.0000000           -0.0000000
 Magnitude           :                                                    0.0000000
    Molecular point group: d2h

    Geometry (in Angstrom), charge = 1, multiplicity = 2:

       Center              X                  Y                   Z               Mass
    ------------   -----------------  -----------------  -----------------  -----------------
         N            0.000000000000     0.000000000000    -0.564787500000    14.003074004430
         N            0.000000000000     0.000000000000     0.564787500000    14.003074004430

  Charge       = 1
  Multiplicity = 2
  Basis Set: CC-PVTZ
    Blend: CC-PVTZ
  Basis Set: (CC-PVTZ AUX)
    Blend: CC-PVTZ-JKFIT

    Orbital Energies [Eh]
    ---------------------

    Alpha Occupied:

       1Ag   -14.923734     1B1u  -14.922342     2Ag    -1.555749
       2B1u   -1.021438     3Ag    -0.904774     1B3u   -0.877169
       1B2u   -0.877169

    Alpha Virtual:

       1B2g   -0.459635     1B3g   -0.459635     3B1u   -0.007353
       2B2u    0.080216     2B3u    0.080216     4Ag     0.106296
       5Ag     0.127290     4B1u    0.212863     2B3g    0.218429
       2B2g    0.218429     1B1g    0.472076     6Ag     0.472076
       5B1u    0.538644     3B3u    0.676498     3B2u    0.676498
       1Au     0.888305     6B1u    0.888305     7Ag     1.295502
       3B2g    1.303282     3B3g    1.303282     7B1u    1.450258
       4B2u    2.319045     4B3u    2.319045     8Ag     2.461573
       4B3g    2.634325     4B2g    2.634325     8B1u    2.948868
       2B1g    3.033107     9Ag     3.033108     5B2u    3.127621
       5B3u    3.127621     6B2u    3.212908     6B3u    3.212908
      10Ag     3.443228     5B3g    3.648196     5B2g    3.648196
       3B1g    3.906513    11Ag     3.906517     2Au     4.040496
       9B1u    4.040500     6B3g    4.045692     6B2g    4.045692
      10B1u    4.092900     3Au     4.420017    11B1u    4.420017
       7B2u    4.487787     7B3u    4.487787    12Ag     4.733181
      12B1u    5.116116    13Ag     5.793825     7B3g    5.825279
       7B2g    5.825279    13B1u   14.394376

    Beta Occupied:

       1Ag   -14.910465     1B1u  -14.909317     2Ag    -1.525921
       2B1u   -0.930889     1B3u   -0.864253     1B2u   -0.864253

    Beta Virtual:

       3Ag    -0.724161     1B2g   -0.436885     1B3g   -0.436885
       3B1u    0.003883     2B2u    0.084216     2B3u    0.084216
       4Ag     0.123917     5Ag     0.153966     2B3g    0.223847
       2B2g    0.223847     4B1u    0.277115     1B1g    0.475738
       6Ag     0.475738     5B1u    0.545095     3B3u    0.708221
       3B2u    0.708221     1Au     0.898060     6B1u    0.898060
       3B2g    1.330025     3B3g    1.330025     7Ag     1.335962
       7B1u    1.488988     4B2u    2.329945     4B3u    2.329945
       8Ag     2.499724     4B3g    2.643520     4B2g    2.643520
       8B1u    2.999591     2B1g    3.052678     9Ag     3.052678
       5B2u    3.160406     5B3u    3.160406     6B2u    3.218316
       6B3u    3.218316    10Ag     3.516108     5B3g    3.654985
       5B2g    3.654985     3B1g    3.921927    11Ag     3.921931
       2Au     4.050879     9B1u    4.050883     6B3g    4.107296
       6B2g    4.107296    10B1u    4.142977     3Au     4.447129
      11B1u    4.447130     7B2u    4.543390     7B3u    4.543390
      12Ag     4.767909    12B1u    5.178873    13Ag     5.835700
       7B3g    5.858978     7B2g    5.858978    13B1u   14.413200

    Final Occupation by Irrep:
             Ag   B1g   B2g   B3g    Au   B1u   B2u   B3u
    DOCC [     2,    0,    0,    0,    0,    2,    1,    1 ]
    SOCC [     1,    0,    0,    0,    0,    0,    0,    0 ]
    NA   [     3,    0,    0,    0,    0,    2,    1,    1 ]
    NB   [     2,    0,    0,    0,    0,    2,    1,    1 ]

  @DF-UKS Final Energy:  -108.98662813288205

   => Energetics <=

    Nuclear Repulsion Energy =             22.9552560235752452
    One-Electron Energy =                -187.0853098360796878
    Two-Electron Energy =                  65.8551991744834169
    DFT Exchange-Correlation Energy =     -10.7117734948610046
    Empirical Dispersion Energy =           0.0000000000000000
    VV10 Nonlocal Energy =                  0.0000000000000000
    Total Energy =                       -108.9866281328820463

  UHF NO Occupations:
  HONO-2 :    2 Ag 1.9998863
  HONO-1 :    2B1u 1.9982166
  HONO-0 :    3 Ag 1.0000000
  LUNO+0 :    3B1u 0.0017834
  LUNO+1 :    4 Ag 0.0001137
  LUNO+2 :    2B2u 0.0000942
  LUNO+3 :    2B3u 0.0000942

Computation Completed

Properties will be evaluated at   0.000000,   0.000000,   0.000000 [a0]

Properties computed using the B3LYP density matrix

 Multipole Moments:

 ------------------------------------------------------------------------------------
     Multipole            Electronic (a.u.)      Nuclear  (a.u.)        Total (a.u.)
 ------------------------------------------------------------------------------------

 L = 1.  Multiply by 2.5417464519 to convert [e a0] to [Debye]
 Dipole X            :          0.0000000            0.0000000            0.0000000
 Dipole Y            :          0.0000000            0.0000000            0.0000000
 Dipole Z            :          0.0000000           -0.0000000           -0.0000000
 Magnitude           :                                                    0.0000000

 L = 2.  Multiply by 1.3450342976 to convert [e a0^2] to [Debye ang]
 Quadrupole XX       :         -6.2211859            0.0000000           -6.2211859
 Quadrupole XY       :          0.0000000            0.0000000            0.0000000
 Quadrupole XZ       :          0.0000000            0.0000000            0.0000000
 Quadrupole YY       :         -6.2211859            0.0000000           -6.2211859
 Quadrupole YZ       :          0.0000000            0.0000000            0.0000000
 Quadrupole ZZ       :        -20.2540750           15.9476216           -4.3064534
 Traceless XX        :          4.6776297           -5.3158739           -0.6382442
 Traceless YY        :          4.6776297           -5.3158739           -0.6382442
 Traceless ZZ        :         -9.3552594           10.6317477            1.2764884

 ------------------------------------------------------------------------------------
  ==> Computing MBIS Charges <==

  Electron Count from Grid (Expected Number): 13.00000 (13.00000)
  Difference:  0.00000

  MBIS Charges: (a.u.)
   Center  Symbol  Z      Pop.       Charge
      1       N    7    6.500000    0.500000
      2       N    7    6.500000    0.500000

  MBIS Dipoles: [e a0]
   Center  Symbol  Z        X           Y           Z
      1       N    7   -0.000000   -0.000000   -0.232268
      2       N    7    0.000000   -0.000000    0.232268

  MBIS Quadrupoles: [e a0^2]
   Center  Symbol  Z      XX        XY        XZ        YY        YZ        ZZ
      1       N    7   -3.1106    0.0000   -0.0000   -3.1106   -0.0000   -3.2186
      2       N    7   -3.1106    0.0000    0.0000   -3.1106    0.0000   -3.2186

  MBIS Octupoles: [e a0^3]
   Center  Symbol  Z      XXX       XXY       XXZ       XYY       XYZ       XZZ       YYY       YYZ       YZZ       ZZZ
      1       N    7   -0.0000   -0.0000   -0.2189   -0.0000    0.0000    0.0000   -0.0000   -0.2189   -0.0000   -0.5131
      2       N    7   -0.0000   -0.0000    0.2189   -0.0000   -0.0000    0.0000   -0.0000    0.2189   -0.0000    0.5131

  MBIS Radial Moments:
   Center  Symbol  Z      [a0^2]      [a0^3]      [a0^4]
      1       N    7    9.439768   17.980480   40.834290
      2       N    7    9.439768   17.980480   40.834290

  MBIS Valence Widths: [a0]
   Center  Symbol  Z     Width
      1       N    7    0.405331
      2       N    7    0.405331

*** tstop() called on Mac.lan at Sun Aug 10 18:23:56 2025
Module time:
	user time   =       7.65 seconds =       0.13 minutes
	system time =       2.79 seconds =       0.05 minutes
	total time  =          1 seconds =       0.02 minutes
Total time:
	user time   =      40.35 seconds =       0.67 minutes
	system time =       6.39 seconds =       0.11 minutes
	total time  =          4 seconds =       0.07 minutes

    Psi4 stopped on: Sunday, 10 August 2025 06:23PM
    Psi4 wall time for execution: 0:00:04.73

*** Psi4 exiting successfully. Buy a developer a beer!
