                               Psi4 1.9.1 release

  ==> Input File <==

--------------------------------------------------------------------------
molecule {
1 2
O           0.000000           0.000000           0.000000
C           0.000000           0.000000           1.338785
}

set {
basis              cc-pvtz
reference          uks
maxiter            500
DAMPING_PERCENTAGE 1
E_CONVERGENCE      1.0E-8
D_CONVERGENCE      1.0E-8
DIIS_MAX_VECS      400
MBIS_MAXITER       8000
guess              read
}

E, wfn = energy('b3lyp', restart_file='last_wfn', return_wfn=True)
properties('b3lyp','MBIS_CHARGES', wfn=wfn)
wfn.to_file('last_wfn')
--------------------------------------------------------------------------

    Molecular point group: c2v
  Charge       = 1
  Multiplicity = 2
  Basis Set: CC-PVTZ
    Blend: CC-PVTZ
  Basis Set: (CC-PVTZ AUX)
    Blend: CC-PVTZ-JKFIT
  @DF-UKS Final Energy:  -112.76298632674579
    Total Energy =                       -112.7629863267457893
 Dipole X            :          0.0000000            0.0000000            0.0000000
 Dipole Y            :          0.0000000            0.0000000            0.0000000
 Dipole Z            :          1.1685072           -0.0027574            1.1657497
 Magnitude           :                                                    1.1657497
    Molecular point group: c2v

    Geometry (in Angstrom), charge = 1, multiplicity = 2:

       Center              X                  Y                   Z               Mass
    ------------   -----------------  -----------------  -----------------  -----------------
         O            0.000000000000     0.000000000000    -0.573869226548    15.994914619570
         C            0.000000000000     0.000000000000     0.764915773452    12.000000000000

  Charge       = 1
  Multiplicity = 2
  Basis Set: CC-PVTZ
    Blend: CC-PVTZ
  Basis Set: (CC-PVTZ AUX)
    Blend: CC-PVTZ-JKFIT

    Orbital Energies [Eh]
    ---------------------

    Alpha Occupied:

       1A1   -19.669871     2A1   -10.843467     3A1    -1.457436
       4A1    -0.996114     5A1    -0.848376     1B2    -0.793923
       1B1    -0.793923

    Alpha Virtual:

       2B2    -0.501504     2B1    -0.501504     6A1    -0.192974
       7A1    -0.012010     3B2     0.000032     3B1     0.000032
       8A1     0.011891     9A1     0.245589     1A2     0.290948
      10A1     0.290948     4B2     0.317989     4B1     0.317989
       5B2     0.431349     5B1     0.431349    11A1     0.704453
      12A1     0.866358    13A1     1.127516     2A2     1.127517
       6B2     1.353334     6B1     1.353334     7B2     1.609033
       7B1     1.609033    14A1     1.646082    15A1     1.741500
       8B2     2.228272     8B1     2.228272     3A2     2.307317
      16A1     2.307317     9B2     2.453015     9B1     2.453015
       4A2     2.465103    17A1     2.465104    18A1     2.621191
      10B2     2.711390    10B1     2.711390    19A1     2.750406
      11B2     3.452918    11B1     3.452918    20A1     3.458547
      12B1     4.712689    12B2     4.712689    21A1     4.872881
       5A2     4.872882    22A1     5.040591    13B1     5.319431
      13B2     5.319431    23A1     5.809608     6A2     5.809610
      24A1     5.851401    14B2     6.246527    14B1     6.246527
      25A1     6.730929    26A1     9.076577

    Beta Occupied:

       1A1   -19.668067     2A1   -10.822073     3A1    -1.445170
       4A1    -0.933146     1B2    -0.794905     1B1    -0.794905

    Beta Virtual:

       5A1    -0.660188     2B2    -0.465032     2B1    -0.465032
       6A1    -0.155856     7A1     0.009766     3B2     0.010146
       3B1     0.010146     8A1     0.053261     9A1     0.258441
       1A2     0.310411    10A1     0.310411     4B2     0.317540
       4B1     0.317540     5B2     0.463025     5B1     0.463025
      11A1     0.744450    12A1     0.871372    13A1     1.123404
       2A2     1.123404     6B2     1.377421     6B1     1.377421
       7B2     1.627912     7B1     1.627912    14A1     1.680498
      15A1     1.798392     8B2     2.260211     8B1     2.260211
       3A2     2.338346    16A1     2.338346     9B2     2.507085
       9B1     2.507085     4A2     2.518471    17A1     2.518472
      18A1     2.688112    10B2     2.768487    10B1     2.768487
      19A1     2.817603    11B2     3.455318    11B1     3.455318
      20A1     3.495416    12B1     4.698530    12B2     4.698530
      21A1     4.877092     5A2     4.877094    22A1     5.059685
      13B1     5.338358    13B2     5.338358    23A1     5.792454
       6A2     5.792456    24A1     5.886819    14B2     6.265455
      14B1     6.265455    25A1     6.754178    26A1     9.088846

    Final Occupation by Irrep:
             A1    A2    B1    B2
    DOCC [     4,    0,    1,    1 ]
    SOCC [     1,    0,    0,    0 ]
    NA   [     5,    0,    1,    1 ]
    NB   [     4,    0,    1,    1 ]

  @DF-UKS Final Energy:  -112.76298632674502

   => Energetics <=

    Nuclear Repulsion Energy =             18.9728045295995997
    One-Electron Energy =                -185.8462553662774326
    Two-Electron Energy =                  64.8945555353020325
    DFT Exchange-Correlation Energy =     -10.7840910253692321
    Empirical Dispersion Energy =           0.0000000000000000
    VV10 Nonlocal Energy =                  0.0000000000000000
    Total Energy =                       -112.7629863267450219

  UHF NO Occupations:
  HONO-2 :    1 B2 1.9931856
  HONO-1 :    1 B1 1.9931856
  HONO-0 :    5 A1 1.0000000
  LUNO+0 :    2 B2 0.0068144
  LUNO+1 :    2 B1 0.0068144
  LUNO+2 :    6 A1 0.0016924
  LUNO+3 :    7 A1 0.0000631

Computation Completed

Properties will be evaluated at   0.000000,   0.000000,   0.000000 [a0]

Properties computed using the B3LYP density matrix

 Multipole Moments:

 ------------------------------------------------------------------------------------
     Multipole            Electronic (a.u.)      Nuclear  (a.u.)        Total (a.u.)
 ------------------------------------------------------------------------------------

 L = 1.  Multiply by 2.5417464519 to convert [e a0] to [Debye]
 Dipole X            :          0.0000000            0.0000000            0.0000000
 Dipole Y            :          0.0000000            0.0000000            0.0000000
 Dipole Z            :          1.1685072           -0.0027574            1.1657497
 Magnitude           :                                                    1.1657497

 L = 2.  Multiply by 1.3450342976 to convert [e a0^2] to [Debye ang]
 Quadrupole XX       :         -6.3209374            0.0000000           -6.3209374
 Quadrupole XY       :          0.0000000            0.0000000            0.0000000
 Quadrupole XZ       :          0.0000000            0.0000000            0.0000000
 Quadrupole YY       :         -6.3209374            0.0000000           -6.3209374
 Quadrupole YZ       :          0.0000000            0.0000000            0.0000000
 Quadrupole ZZ       :        -25.2211707           21.9448503           -3.2763204
 Traceless XX        :          6.3000778           -7.3149501           -1.0148723
 Traceless YY        :          6.3000778           -7.3149501           -1.0148723
 Traceless ZZ        :        -12.6001556           14.6299002            2.0297446

 ------------------------------------------------------------------------------------
  ==> Computing MBIS Charges <==

  Electron Count from Grid (Expected Number): 13.00000 (13.00000)
  Difference: -0.00000

  MBIS Charges: (a.u.)
   Center  Symbol  Z      Pop.       Charge
      1       O    8    7.955613    0.044387
      2       C    6    5.044387    0.955613

  MBIS Dipoles: [e a0]
   Center  Symbol  Z        X           Y           Z
      1       O    8    0.000000    0.000000   -0.328239
      2       C    6    0.000000    0.000000    0.160803

  MBIS Quadrupoles: [e a0^2]
   Center  Symbol  Z      XX        XY        XZ        YY        YZ        ZZ
      1       O    8   -3.5781   -0.0000    0.0000   -3.5781    0.0000   -3.5990
      2       C    6   -2.7428   -0.0000    0.0000   -2.7428    0.0000   -2.9029

  MBIS Octupoles: [e a0^3]
   Center  Symbol  Z      XXX       XXY       XXZ       XYY       XYZ       XZZ       YYY       YYZ       YZZ       ZZZ
      1       O    8   -0.0000   -0.0000   -0.3110   -0.0000    0.0000   -0.0000   -0.0000   -0.3110   -0.0000   -0.8594
      2       C    6   -0.0000   -0.0000    0.2710    0.0000    0.0000    0.0000    0.0000    0.2710    0.0000    0.4760

  MBIS Radial Moments:
   Center  Symbol  Z      [a0^2]      [a0^3]      [a0^4]
      1       O    8   10.755330   19.518311   42.295157
      2       C    6    8.388537   17.821352   45.035728

  MBIS Valence Widths: [a0]
   Center  Symbol  Z     Width
      1       O    8    0.379008
      2       C    6    0.459115

*** tstop() called on Mac.lan at Sun Aug 10 18:38:13 2025
Module time:
	user time   =       6.48 seconds =       0.11 minutes
	system time =       2.66 seconds =       0.04 minutes
	total time  =          1 seconds =       0.02 minutes
Total time:
	user time   =      35.68 seconds =       0.59 minutes
	system time =       4.18 seconds =       0.07 minutes
	total time  =          4 seconds =       0.07 minutes

    Psi4 stopped on: Sunday, 10 August 2025 06:38PM
    Psi4 wall time for execution: 0:00:04.17

*** Psi4 exiting successfully. Buy a developer a beer!
