                               Psi4 1.9.1 release

  ==> Input File <==

--------------------------------------------------------------------------
molecule {
1 2
H           0.000000           0.000000           0.000000
H           0.000000           0.000000           1.302430
}

set {
basis              cc-pvtz
reference          uks
maxiter            500
DAMPING_PERCENTAGE 1
E_CONVERGENCE      1.0E-8
D_CONVERGENCE      1.0E-8
DIIS_MAX_VECS      400
MBIS_MAXITER       8000
guess              read
}

E, wfn = energy('b3lyp', restart_file='last_wfn', return_wfn=True)
properties('b3lyp','MBIS_CHARGES', wfn=wfn)
wfn.to_file('last_wfn')
--------------------------------------------------------------------------

    Molecular point group: d2h
  Charge       = 1
  Multiplicity = 2
  Basis Set: CC-PVTZ
    Blend: CC-PVTZ
  Basis Set: (CC-PVTZ AUX)
    Blend: CC-PVTZ-JKFIT
  @DF-UKS Final Energy:    -0.60665793637939
    Total Energy =                         -0.6066579363793865
 Dipole X            :          0.0000000            0.0000000            0.0000000
 Dipole Y            :          0.0000000            0.0000000            0.0000000
 Dipole Z            :          0.0000000            0.0000000            0.0000000
 Magnitude           :                                                    0.0000000
    Molecular point group: d2h

    Geometry (in Angstrom), charge = 1, multiplicity = 2:

       Center              X                  Y                   Z               Mass
    ------------   -----------------  -----------------  -----------------  -----------------
         H            0.000000000000     0.000000000000    -0.651215000000     1.007825032230
         H            0.000000000000     0.000000000000     0.651215000000     1.007825032230

  Charge       = 1
  Multiplicity = 2
  Basis Set: CC-PVTZ
    Blend: CC-PVTZ
  Basis Set: (CC-PVTZ AUX)
    Blend: CC-PVTZ-JKFIT

    Orbital Energies [Eh]
    ---------------------

    Alpha Occupied:

       1Ag    -0.841328

    Alpha Virtual:

       1B1u   -0.479458     2Ag    -0.069935     2B1u    0.019690
       1B2u    0.083439     1B3u    0.083439     3Ag     0.291098
       1B3g    0.416954     1B2g    0.416954     3B1u    0.830159
       4Ag     1.765055     4B1u    1.912880     5Ag     2.336481
       2B3u    2.350959     2B2u    2.350959     1B1g    2.592247
       6Ag     2.592247     1Au     2.863892     5B1u    2.863892
       3B2u    3.071863     3B3u    3.071863     2B3g    3.108479
       2B2g    3.108479     6B1u    3.276610     3B3g    3.541932
       3B2g    3.541932     7Ag     3.675470     7B1u    4.730634

    Beta Occupied:

    Beta Virtual:

       1Ag    -0.519691     1B1u   -0.274014     2Ag     0.022815
       2B1u    0.130054     1B2u    0.220124     1B3u    0.220124
       3Ag     0.437620     1B3g    0.536471     1B2g    0.536471
       3B1u    0.956917     4Ag     2.073762     4B1u    2.202901
       2B3u    2.546828     2B2u    2.546828     5Ag     2.573264
       1B1g    2.776413     6Ag     2.776415     1Au     3.047291
       5B1u    3.047293     3B3u    3.323091     3B2u    3.323091
       2B2g    3.363381     2B3g    3.363381     6B1u    3.525038
       3B3g    3.733120     3B2g    3.733120     7Ag     3.909209
       7B1u    4.952023

    Final Occupation by Irrep:
             Ag   B1g   B2g   B3g    Au   B1u   B2u   B3u
    DOCC [     0,    0,    0,    0,    0,    0,    0,    0 ]
    SOCC [     1,    0,    0,    0,    0,    0,    0,    0 ]
    NA   [     1,    0,    0,    0,    0,    0,    0,    0 ]
    NB   [     0,    0,    0,    0,    0,    0,    0,    0 ]

  @DF-UKS Final Energy:    -0.60665793634543

   => Energetics <=

    Nuclear Repulsion Energy =              0.4062999245026603
    One-Electron Energy =                  -0.9993117652006658
    Two-Electron Energy =                   0.2387213652497126
    DFT Exchange-Correlation Energy =      -0.2523674608971329
    Empirical Dispersion Energy =           0.0000000000000000
    VV10 Nonlocal Energy =                  0.0000000000000000
    Total Energy =                         -0.6066579363454256

  UHF NO Occupations:
  HONO-0 :    1 Ag 1.0000000
  LUNO+0 :    2 Ag 0.0000000
  LUNO+1 :    3 Ag 0.0000000
  LUNO+2 :    4 Ag 0.0000000
  LUNO+3 :    5 Ag 0.0000000

Computation Completed

Properties will be evaluated at   0.000000,   0.000000,   0.000000 [a0]

Properties computed using the B3LYP density matrix

 Multipole Moments:

 ------------------------------------------------------------------------------------
     Multipole            Electronic (a.u.)      Nuclear  (a.u.)        Total (a.u.)
 ------------------------------------------------------------------------------------

 L = 1.  Multiply by 2.5417464519 to convert [e a0] to [Debye]
 Dipole X            :          0.0000000            0.0000000            0.0000000
 Dipole Y            :          0.0000000            0.0000000            0.0000000
 Dipole Z            :          0.0000000            0.0000000            0.0000000
 Magnitude           :                                                    0.0000000

 L = 2.  Multiply by 1.3450342976 to convert [e a0^2] to [Debye ang]
 Quadrupole XX       :         -0.7024606            0.0000000           -0.7024606
 Quadrupole XY       :          0.0000000            0.0000000            0.0000000
 Quadrupole XZ       :          0.0000000            0.0000000            0.0000000
 Quadrupole YY       :         -0.7024606            0.0000000           -0.7024606
 Quadrupole YZ       :          0.0000000            0.0000000            0.0000000
 Quadrupole ZZ       :         -1.6041039            3.0288413            1.4247374
 Traceless XX        :          0.3005478           -1.0096138           -0.7090660
 Traceless YY        :          0.3005478           -1.0096138           -0.7090660
 Traceless ZZ        :         -0.6010955            2.0192275            1.4181320

 ------------------------------------------------------------------------------------
  ==> Computing MBIS Charges <==

  Electron Count from Grid (Expected Number):  1.00000 ( 1.00000)
  Difference:  0.00000

  MBIS Charges: (a.u.)
   Center  Symbol  Z      Pop.       Charge
      1       H    1    0.500000    0.500000
      2       H    1    0.500000    0.500000

  MBIS Dipoles: [e a0]
   Center  Symbol  Z        X           Y           Z
      1       H    1    0.000000   -0.000000   -0.126058
      2       H    1    0.000000    0.000000    0.126058

  MBIS Quadrupoles: [e a0^2]
   Center  Symbol  Z      XX        XY        XZ        YY        YZ        ZZ
      1       H    1   -0.3512   -0.0000   -0.0000   -0.3512   -0.0000   -0.3551
      2       H    1   -0.3512   -0.0000    0.0000   -0.3512    0.0000   -0.3551

  MBIS Octupoles: [e a0^3]
   Center  Symbol  Z      XXX       XXY       XXZ       XYY       XYZ       XZZ       YYY       YYZ       YZZ       ZZZ
      1       H    1    0.0000   -0.0000   -0.0955    0.0000    0.0000    0.0000   -0.0000   -0.0955    0.0000   -0.2114
      2       H    1    0.0000   -0.0000    0.0955    0.0000   -0.0000    0.0000   -0.0000    0.0955    0.0000    0.2114

  MBIS Radial Moments:
   Center  Symbol  Z      [a0^2]      [a0^3]      [a0^4]
      1       H    1    1.057560    2.128339    5.079508
      2       H    1    1.057560    2.128339    5.079508

  MBIS Valence Widths: [a0]
   Center  Symbol  Z     Width
      1       H    1    0.427493
      2       H    1    0.427493

*** tstop() called on Mac.lan at Sun Aug 10 18:11:41 2025
Module time:
	user time   =       0.54 seconds =       0.01 minutes
	system time =       1.35 seconds =       0.02 minutes
	total time  =          0 seconds =       0.00 minutes
Total time:
	user time   =       1.15 seconds =       0.02 minutes
	system time =       3.55 seconds =       0.06 minutes
	total time  =          0 seconds =       0.00 minutes

    Psi4 stopped on: Sunday, 10 August 2025 06:11PM
    Psi4 wall time for execution: 0:00:00.62

*** Psi4 exiting successfully. Buy a developer a beer!
