                               Psi4 1.9.1 release

  ==> Input File <==

--------------------------------------------------------------------------
molecule {
1 2
O           0.000000           0.000000           0.000000
C           0.000000           0.000000           1.216459
}

set {
basis              cc-pvtz
reference          uks
maxiter            500
DAMPING_PERCENTAGE 1
E_CONVERGENCE      1.0E-8
D_CONVERGENCE      1.0E-8
DIIS_MAX_VECS      400
MBIS_MAXITER       8000
guess              read
}

E, wfn = energy('b3lyp', restart_file='last_wfn', return_wfn=True)
properties('b3lyp','MBIS_CHARGES', wfn=wfn)
wfn.to_file('last_wfn')
--------------------------------------------------------------------------

    Molecular point group: c2v
  Charge       = 1
  Multiplicity = 2
  Basis Set: CC-PVTZ
    Blend: CC-PVTZ
  Basis Set: (CC-PVTZ AUX)
    Blend: CC-PVTZ-JKFIT
  @DF-UKS Final Energy:  -112.81592882507094
    Total Energy =                       -112.8159288250709409
 Dipole X            :          0.0000000            0.0000000            0.0000000
 Dipole Y            :          0.0000000            0.0000000            0.0000000
 Dipole Z            :          1.1295998           -0.0025055            1.1270944
 Magnitude           :                                                    1.1270944
    Molecular point group: c2v

    Geometry (in Angstrom), charge = 1, multiplicity = 2:

       Center              X                  Y                   Z               Mass
    ------------   -----------------  -----------------  -----------------  -----------------
         O            0.000000000000     0.000000000000    -0.521434274702    15.994914619570
         C            0.000000000000     0.000000000000     0.695024725298    12.000000000000

  Charge       = 1
  Multiplicity = 2
  Basis Set: CC-PVTZ
    Blend: CC-PVTZ
  Basis Set: (CC-PVTZ AUX)
    Blend: CC-PVTZ-JKFIT

    Orbital Energies [Eh]
    ---------------------

    Alpha Occupied:

       1A1   -19.664031     2A1   -10.821707     3A1    -1.516507
       4A1    -0.982662     5A1    -0.857881     1B2    -0.829710
       1B1    -0.829710

    Alpha Virtual:

       2B1    -0.468867     2B2    -0.468867     6A1    -0.135553
       7A1    -0.018543     3B2    -0.005604     3B1    -0.005604
       8A1     0.095170     9A1     0.250069    10A1     0.283806
       1A2     0.283806     4B2     0.327037     4B1     0.327037
       5B2     0.456801     5B1     0.456801    11A1     0.753588
      12A1     0.879492     2A2     1.140369    13A1     1.140370
       6B2     1.417787     6B1     1.417787    14A1     1.565522
       7B1     1.620553     7B2     1.620553    15A1     1.894388
       8B2     2.223162     8B1     2.223162    16A1     2.358074
       3A2     2.358074    17A1     2.463850     4A2     2.463850
       9B2     2.474503     9B1     2.474503    18A1     2.675630
      10B1     2.761280    10B2     2.761280    19A1     2.814302
      11B1     3.572375    11B2     3.572375    20A1     3.735582
      12B1     4.708672    12B2     4.708672    21A1     4.986740
       5A2     4.986740    22A1     5.472547    13B2     5.584877
      13B1     5.584877    23A1     5.829622     6A2     5.829645
      24A1     6.107190    14B1     6.322227    14B2     6.322227
      25A1     6.556091    26A1    10.513426

    Beta Occupied:

       1A1   -19.663989     2A1   -10.797887     3A1    -1.507416
       4A1    -0.933725     1B2    -0.828120     1B1    -0.828120

    Beta Virtual:

       5A1    -0.655617     2B1    -0.429016     2B2    -0.429016
       6A1    -0.114339     3B2     0.005054     3B1     0.005054
       7A1     0.017762     8A1     0.139508     9A1     0.258468
       1A2     0.304357    10A1     0.304357     4B2     0.324320
       4B1     0.324320     5B2     0.492762     5B1     0.492762
      11A1     0.783708    12A1     0.891862    13A1     1.138126
       2A2     1.138126     6B2     1.442052     6B1     1.442052
      14A1     1.618341     7B1     1.636138     7B2     1.636138
      15A1     1.939411     8B2     2.258203     8B1     2.258203
       3A2     2.384662    16A1     2.384662    17A1     2.529730
       4A2     2.529730     9B2     2.555489     9B1     2.555489
      18A1     2.763881    10B1     2.800427    10B2     2.800427
      19A1     2.867220    11B1     3.579677    11B2     3.579677
      20A1     3.766060    12B1     4.696149    12B2     4.696149
      21A1     4.988571     5A2     4.988571    22A1     5.492239
      13B2     5.600332    13B1     5.600332    23A1     5.814089
       6A2     5.814112    24A1     6.125670    14B1     6.333161
      14B2     6.333161    25A1     6.573380    26A1    10.529916

    Final Occupation by Irrep:
             A1    A2    B1    B2
    DOCC [     4,    0,    1,    1 ]
    SOCC [     1,    0,    0,    0 ]
    NA   [     5,    0,    1,    1 ]
    NB   [     4,    0,    1,    1 ]

  @DF-UKS Final Energy:  -112.81592882050448

   => Energetics <=

    Nuclear Repulsion Energy =             20.8806923309047008
    One-Electron Energy =                -189.5163678465917201
    Two-Electron Energy =                  66.6800044123079800
    DFT Exchange-Correlation Energy =     -10.8602577171254548
    Empirical Dispersion Energy =           0.0000000000000000
    VV10 Nonlocal Energy =                  0.0000000000000000
    Total Energy =                       -112.8159288205044817

  UHF NO Occupations:
  HONO-2 :    1 B2 1.9949067
  HONO-1 :    1 B1 1.9949067
  HONO-0 :    5 A1 1.0000000
  LUNO+0 :    2 B1 0.0050933
  LUNO+1 :    2 B2 0.0050933
  LUNO+2 :    6 A1 0.0006378
  LUNO+3 :    7 A1 0.0000338

Computation Completed

Properties will be evaluated at   0.000000,   0.000000,   0.000000 [a0]

Properties computed using the B3LYP density matrix

 Multipole Moments:

 ------------------------------------------------------------------------------------
     Multipole            Electronic (a.u.)      Nuclear  (a.u.)        Total (a.u.)
 ------------------------------------------------------------------------------------

 L = 1.  Multiply by 2.5417464519 to convert [e a0] to [Debye]
 Dipole X            :          0.0000000            0.0000000            0.0000000
 Dipole Y            :          0.0000000            0.0000000            0.0000000
 Dipole Z            :          1.1295998           -0.0025055            1.1270943
 Magnitude           :                                                    1.1270943

 L = 2.  Multiply by 1.3450342976 to convert [e a0^2] to [Debye ang]
 Quadrupole XX       :         -6.1164107            0.0000000           -6.1164107
 Quadrupole XY       :          0.0000000            0.0000000            0.0000000
 Quadrupole XZ       :          0.0000000            0.0000000            0.0000000
 Quadrupole YY       :         -6.1164107            0.0000000           -6.1164107
 Quadrupole YZ       :          0.0000000            0.0000000            0.0000000
 Quadrupole ZZ       :        -21.8199445           18.1178182           -3.7021263
 Traceless XX        :          5.2345113           -6.0392727           -0.8047615
 Traceless YY        :          5.2345113           -6.0392727           -0.8047615
 Traceless ZZ        :        -10.4690226           12.0785455            1.6095229

 ------------------------------------------------------------------------------------
  ==> Computing MBIS Charges <==

  Electron Count from Grid (Expected Number): 13.00000 (13.00000)
  Difference:  0.00000

  MBIS Charges: (a.u.)
   Center  Symbol  Z      Pop.       Charge
      1       O    8    7.987609    0.012391
      2       C    6    5.012391    0.987609

  MBIS Dipoles: [e a0]
   Center  Symbol  Z        X           Y           Z
      1       O    8   -0.000000   -0.000000   -0.305105
      2       C    6    0.000000    0.000000    0.147277

  MBIS Quadrupoles: [e a0^2]
   Center  Symbol  Z      XX        XY        XZ        YY        YZ        ZZ
      1       O    8   -3.4977   -0.0000    0.0000   -3.4977   -0.0000   -3.6183
      2       C    6   -2.6187   -0.0000    0.0000   -2.6187    0.0000   -2.7877

  MBIS Octupoles: [e a0^3]
   Center  Symbol  Z      XXX       XXY       XXZ       XYY       XYZ       XZZ       YYY       YYZ       YZZ       ZZZ
      1       O    8    0.0000   -0.0000   -0.2800   -0.0000   -0.0000   -0.0000    0.0000   -0.2800    0.0000   -0.7016
      2       C    6    0.0000   -0.0000    0.2046    0.0000    0.0000    0.0000    0.0000    0.2046    0.0000    0.3102

  MBIS Radial Moments:
   Center  Symbol  Z      [a0^2]      [a0^3]      [a0^4]
      1       O    8   10.613695   19.026742   40.726618
      2       C    6    8.025096   16.748254   41.604037

  MBIS Valence Widths: [a0]
   Center  Symbol  Z     Width
      1       O    8    0.375550
      2       C    6    0.450260

*** tstop() called on Mac.lan at Sun Aug 10 18:37:44 2025
Module time:
	user time   =       3.36 seconds =       0.06 minutes
	system time =       2.44 seconds =       0.04 minutes
	total time  =          1 seconds =       0.02 minutes
Total time:
	user time   =      19.18 seconds =       0.32 minutes
	system time =       4.53 seconds =       0.08 minutes
	total time  =          2 seconds =       0.03 minutes

    Psi4 stopped on: Sunday, 10 August 2025 06:37PM
    Psi4 wall time for execution: 0:00:02.31

*** Psi4 exiting successfully. Buy a developer a beer!
