                               Psi4 1.9.1 release

  ==> Input File <==

--------------------------------------------------------------------------
molecule {
1 1
C           0.000000           0.000000           0.000000
H           0.000000           0.000000           1.558923
}

set {
basis              cc-pvtz
reference          uks
maxiter            500
DAMPING_PERCENTAGE 1
E_CONVERGENCE      1.0E-8
D_CONVERGENCE      1.0E-8
DIIS_MAX_VECS      400
MBIS_MAXITER       8000
guess              read
}

E, wfn = energy('b3lyp', restart_file='last_wfn', return_wfn=True)
properties('b3lyp','MBIS_CHARGES', wfn=wfn)
wfn.to_file('last_wfn')
--------------------------------------------------------------------------

    Molecular point group: c2v
  Charge       = 1
  Multiplicity = 1
  Basis Set: CC-PVTZ
    Blend: CC-PVTZ
  Basis Set: (CC-PVTZ AUX)
    Blend: CC-PVTZ-JKFIT
  @DF-UKS Final Energy:   -38.04865290429825
    Total Energy =                        -38.0486529042982511
 Dipole X            :          0.0000000            0.0000000            0.0000000
 Dipole Y            :          0.0000000            0.0000000            0.0000000
 Dipole Z            :         -0.5563494            1.3482125            0.7918631
 Magnitude           :                                                    0.7918631
    Molecular point group: c2v

    Geometry (in Angstrom), charge = 1, multiplicity = 1:

       Center              X                  Y                   Z               Mass
    ------------   -----------------  -----------------  -----------------  -----------------
         C            0.000000000000     0.000000000000    -0.120782807182    12.000000000000
         H            0.000000000000     0.000000000000     1.438140192818     1.007825032230

  Charge       = 1
  Multiplicity = 1
  Basis Set: CC-PVTZ
    Blend: CC-PVTZ
  Basis Set: (CC-PVTZ AUX)
    Blend: CC-PVTZ-JKFIT

    Orbital Energies [Eh]
    ---------------------

    Alpha Occupied:

       1A1   -10.804222     2A1    -0.969436     3A1    -0.679467

    Alpha Virtual:

       1B1    -0.529496     1B2    -0.529496     4A1    -0.347516
       5A1    -0.009934     2B1     0.011469     2B2     0.011469
       6A1     0.038796     7A1     0.155313     3B2     0.218933
       3B1     0.218933     8A1     0.332806     1A2     0.332806
       9A1     0.503217     4B2     0.599605     4B1     0.599605
      10A1     0.885140     5B2     1.523879     5B1     1.523879
      11A1     1.690817    12A1     2.087610     6B1     2.173008
       6B2     2.173008    13A1     2.214740    14A1     2.230121
       2A2     2.230121     7B2     2.263018     7B1     2.263018
       3A2     2.495166    15A1     2.495166     8B2     2.567663
       8B1     2.567663    16A1     2.825525    17A1     2.928674
       4A2     2.928678    18A1     3.209595     9B1     3.247656
       9B2     3.247656    10B2     3.555065    10B1     3.555065
      19A1     3.736711    20A1     4.920874

    Beta Occupied:

       1A1   -10.804222     2A1    -0.969436     3A1    -0.679467

    Beta Virtual:

       1B1    -0.529496     1B2    -0.529496     4A1    -0.347516
       5A1    -0.009934     2B1     0.011469     2B2     0.011469
       6A1     0.038796     7A1     0.155313     3B1     0.218933
       3B2     0.218933     8A1     0.332806     1A2     0.332806
       9A1     0.503217     4B2     0.599605     4B1     0.599605
      10A1     0.885140     5B2     1.523879     5B1     1.523879
      11A1     1.690817    12A1     2.087610     6B1     2.173008
       6B2     2.173008    13A1     2.214740    14A1     2.230121
       2A2     2.230121     7B2     2.263018     7B1     2.263018
       3A2     2.495166    15A1     2.495166     8B2     2.567663
       8B1     2.567663    16A1     2.825525    17A1     2.928674
       4A2     2.928678    18A1     3.209595     9B2     3.247656
       9B1     3.247656    10B1     3.555065    10B2     3.555065
      19A1     3.736711    20A1     4.920874

    Final Occupation by Irrep:
             A1    A2    B1    B2
    DOCC [     3,    0,    0,    0 ]
    SOCC [     0,    0,    0,    0 ]
    NA   [     3,    0,    0,    0 ]
    NB   [     3,    0,    0,    0 ]

  @DF-UKS Final Energy:   -38.04865290437120

   => Energetics <=

    Nuclear Repulsion Energy =              2.0367030725828030
    One-Electron Energy =                 -52.2376660111559374
    Two-Electron Energy =                  16.3369157823801672
    DFT Exchange-Correlation Energy =      -4.1846057481782371
    Empirical Dispersion Energy =           0.0000000000000000
    VV10 Nonlocal Energy =                  0.0000000000000000
    Total Energy =                        -38.0486529043712025

  UHF NO Occupations:
  HONO-2 :    1 A1 2.0000000
  HONO-1 :    2 A1 2.0000000
  HONO-0 :    3 A1 2.0000000
  LUNO+0 :    4 A1 0.0000000
  LUNO+1 :    5 A1 0.0000000
  LUNO+2 :    6 A1 0.0000000
  LUNO+3 :    7 A1 0.0000000

Computation Completed

Properties will be evaluated at   0.000000,   0.000000,   0.000000 [a0]

Properties computed using the B3LYP density matrix

 Multipole Moments:

 ------------------------------------------------------------------------------------
     Multipole            Electronic (a.u.)      Nuclear  (a.u.)        Total (a.u.)
 ------------------------------------------------------------------------------------

 L = 1.  Multiply by 2.5417464519 to convert [e a0] to [Debye]
 Dipole X            :          0.0000000            0.0000000            0.0000000
 Dipole Y            :          0.0000000            0.0000000            0.0000000
 Dipole Z            :         -0.5563494            1.3482125            0.7918631
 Magnitude           :                                                    0.7918631

 L = 2.  Multiply by 1.3450342976 to convert [e a0^2] to [Debye ang]
 Quadrupole XX       :         -3.1620411            0.0000000           -3.1620411
 Quadrupole XY       :          0.0000000            0.0000000            0.0000000
 Quadrupole XZ       :          0.0000000            0.0000000            0.0000000
 Quadrupole YY       :         -3.1620411            0.0000000           -3.1620411
 Quadrupole YZ       :          0.0000000            0.0000000            0.0000000
 Quadrupole ZZ       :         -9.6321964            7.6984235           -1.9337729
 Traceless XX        :          2.1567184           -2.5661412           -0.4094228
 Traceless YY        :          2.1567184           -2.5661412           -0.4094228
 Traceless ZZ        :         -4.3134368            5.1322823            0.8188455

 ------------------------------------------------------------------------------------
  ==> Computing MBIS Charges <==

  Electron Count from Grid (Expected Number):  6.00000 ( 6.00000)
  Difference: -0.00000

  MBIS Charges: (a.u.)
   Center  Symbol  Z      Pop.       Charge
      1       C    6    5.249670    0.750330
      2       H    1    0.750330    0.249670

  MBIS Dipoles: [e a0]
   Center  Symbol  Z        X           Y           Z
      1       C    6   -0.000000   -0.000000    0.122036
      2       H    1   -0.000000    0.000000    0.162562

  MBIS Quadrupoles: [e a0^2]
   Center  Symbol  Z      XX        XY        XZ        YY        YZ        ZZ
      1       C    6   -2.6375    0.0000    0.0000   -2.6375    0.0000   -4.1050
      2       H    1   -0.5245   -0.0000   -0.0000   -0.5245    0.0000   -0.5398

  MBIS Octupoles: [e a0^3]
   Center  Symbol  Z      XXX       XXY       XXZ       XYY       XYZ       XZZ       YYY       YYZ       YZZ       ZZZ
      1       C    6    0.0000   -0.0000    0.1226   -0.0000   -0.0000   -0.0000   -0.0000    0.1226   -0.0000    0.2823
      2       H    1   -0.0000    0.0000    0.0667   -0.0000    0.0000   -0.0000    0.0000    0.0667    0.0000    0.2416

  MBIS Radial Moments:
   Center  Symbol  Z      [a0^2]      [a0^3]      [a0^4]
      1       C    6    9.379969   20.379609   52.646266
      2       H    1    1.588878    3.182409    7.569294

  MBIS Valence Widths: [a0]
   Center  Symbol  Z     Width
      1       C    6    0.472854
      2       H    1    0.429270

*** tstop() called on Mac.lan at Sun Aug 10 18:27:46 2025
Module time:
	user time   =       3.31 seconds =       0.06 minutes
	system time =       1.34 seconds =       0.02 minutes
	total time  =          1 seconds =       0.02 minutes
Total time:
	user time   =      11.53 seconds =       0.19 minutes
	system time =       3.52 seconds =       0.06 minutes
	total time  =          2 seconds =       0.03 minutes

    Psi4 stopped on: Sunday, 10 August 2025 06:27PM
    Psi4 wall time for execution: 0:00:01.47

*** Psi4 exiting successfully. Buy a developer a beer!
