                               Psi4 1.9.1 release

  ==> Input File <==

--------------------------------------------------------------------------
molecule {
1 2
N           0.000000           0.000000           0.000000
N           0.000000           0.000000           1.231034
}

set {
basis              cc-pvtz
reference          uks
maxiter            500
DAMPING_PERCENTAGE 1
E_CONVERGENCE      1.0E-8
D_CONVERGENCE      1.0E-8
DIIS_MAX_VECS      400
MBIS_MAXITER       8000
guess              read
}

E, wfn = energy('b3lyp', restart_file='last_wfn', return_wfn=True)
properties('b3lyp','MBIS_CHARGES', wfn=wfn)
wfn.to_file('last_wfn')
--------------------------------------------------------------------------

    Molecular point group: d2h
  Charge       = 1
  Multiplicity = 2
  Basis Set: CC-PVTZ
    Blend: CC-PVTZ
  Basis Set: (CC-PVTZ AUX)
    Blend: CC-PVTZ-JKFIT
  @DF-UKS Final Energy:  -108.95783566373524
    Total Energy =                       -108.9578356637352385
 Dipole X            :          0.0000000            0.0000000            0.0000000
 Dipole Y            :          0.0000000            0.0000000            0.0000000
 Dipole Z            :          0.0000000           -0.0000000           -0.0000000
 Magnitude           :                                                    0.0000000
    Molecular point group: d2h

    Geometry (in Angstrom), charge = 1, multiplicity = 2:

       Center              X                  Y                   Z               Mass
    ------------   -----------------  -----------------  -----------------  -----------------
         N            0.000000000000     0.000000000000    -0.615517000000    14.003074004430
         N            0.000000000000     0.000000000000     0.615517000000    14.003074004430

  Charge       = 1
  Multiplicity = 2
  Basis Set: CC-PVTZ
    Blend: CC-PVTZ
  Basis Set: (CC-PVTZ AUX)
    Blend: CC-PVTZ-JKFIT

    Orbital Energies [Eh]
    ---------------------

    Alpha Occupied:

       1Ag   -14.938394     1B1u  -14.937720     2Ag    -1.489249
       2B1u   -1.039643     3Ag    -0.894450     1B3u   -0.840647
       1B2u   -0.840647

    Alpha Virtual:

       1B2g   -0.496008     1B3g   -0.496008     3B1u   -0.075198
       2B2u    0.092493     2B3u    0.092493     4Ag     0.115962
       4B1u    0.120802     5Ag     0.132927     2B3g    0.213124
       2B2g    0.213124     1B1g    0.487847     6Ag     0.487847
       5B1u    0.536621     3B2u    0.623279     3B3u    0.623279
       1Au     0.858603     6B1u    0.858603     7Ag     1.274395
       3B2g    1.277880     3B3g    1.277880     7B1u    1.329440
       4B3u    2.309592     4B2u    2.309592     8Ag     2.425777
       4B2g    2.566319     4B3g    2.566319     2B1g    3.028013
       9Ag     3.028013     8B1u    3.068848     5B2u    3.094303
       5B3u    3.094303     6B3u    3.271174     6B2u    3.271174
      10Ag     3.329219     5B2g    3.589444     5B3g    3.589444
       9B1u    3.888126     3B1g    3.905445    11Ag     3.905447
       2Au     4.001000    10B1u    4.001001     6B2g    4.112934
       6B3g    4.112934     3Au     4.253057    11B1u    4.253059
       7B3u    4.352547     7B2u    4.352547    12B1u    4.833515
      12Ag     4.893477    13Ag     5.286633     7B2g    5.444179
       7B3g    5.444179    13B1u   11.492353

    Beta Occupied:

       1Ag   -14.925446     1B1u  -14.924951     2Ag    -1.458962
       2B1u   -0.953883     1B3u   -0.828146     1B2u   -0.828146

    Beta Virtual:

       3Ag    -0.713411     1B2g   -0.475242     1B3g   -0.475242
       3B1u   -0.050432     2B2u    0.096370     2B3u    0.096370
       4Ag     0.137303     5Ag     0.155218     4B1u    0.176972
       2B3g    0.218017     2B2g    0.218017     1B1g    0.490996
       6Ag     0.490996     5B1u    0.545095     3B2u    0.654478
       3B3u    0.654478     1Au     0.866763     6B1u    0.866763
       3B2g    1.305947     3B3g    1.305947     7Ag     1.314777
       7B1u    1.368495     4B3u    2.321645     4B2u    2.321645
       8Ag     2.469819     4B2g    2.574758     4B3g    2.574758
       2B1g    3.051156     9Ag     3.051156     8B1u    3.117770
       5B2u    3.125077     5B3u    3.125077     6B3u    3.275841
       6B2u    3.275841    10Ag     3.394331     5B2g    3.594682
       5B3g    3.594682     3B1g    3.916734    11Ag     3.916736
       9B1u    3.941610     2Au     4.003312    10B1u    4.003313
       6B2g    4.170898     6B3g    4.170898     3Au     4.285334
      11B1u    4.285336     7B3u    4.408853     7B2u    4.408853
      12B1u    4.896169    12Ag     4.916187    13Ag     5.347497
       7B2g    5.479962     7B3g    5.479962    13B1u   11.512307

    Final Occupation by Irrep:
             Ag   B1g   B2g   B3g    Au   B1u   B2u   B3u
    DOCC [     2,    0,    0,    0,    0,    2,    1,    1 ]
    SOCC [     1,    0,    0,    0,    0,    0,    0,    0 ]
    NA   [     3,    0,    0,    0,    0,    2,    1,    1 ]
    NB   [     2,    0,    0,    0,    0,    2,    1,    1 ]

  @DF-UKS Final Energy:  -108.95783566370555

   => Energetics <=

    Nuclear Repulsion Energy =             21.0633364495456696
    One-Electron Energy =                -183.4864037566611614
    Two-Electron Energy =                  64.0955990064567516
    DFT Exchange-Correlation Energy =     -10.6303673630467994
    Empirical Dispersion Energy =           0.0000000000000000
    VV10 Nonlocal Energy =                  0.0000000000000000
    Total Energy =                       -108.9578356637055521

  UHF NO Occupations:
  HONO-2 :    2 Ag 1.9998632
  HONO-1 :    2B1u 1.9975753
  HONO-0 :    3 Ag 1.0000000
  LUNO+0 :    3B1u 0.0024247
  LUNO+1 :    4 Ag 0.0001368
  LUNO+2 :    2B2u 0.0001024
  LUNO+3 :    2B3u 0.0001024

Computation Completed

Properties will be evaluated at   0.000000,   0.000000,   0.000000 [a0]

Properties computed using the B3LYP density matrix

 Multipole Moments:

 ------------------------------------------------------------------------------------
     Multipole            Electronic (a.u.)      Nuclear  (a.u.)        Total (a.u.)
 ------------------------------------------------------------------------------------

 L = 1.  Multiply by 2.5417464519 to convert [e a0] to [Debye]
 Dipole X            :          0.0000000            0.0000000            0.0000000
 Dipole Y            :          0.0000000            0.0000000            0.0000000
 Dipole Z            :          0.0000000           -0.0000000           -0.0000000
 Magnitude           :                                                    0.0000000

 L = 2.  Multiply by 1.3450342976 to convert [e a0^2] to [Debye ang]
 Quadrupole XX       :         -6.4233355            0.0000000           -6.4233355
 Quadrupole XY       :          0.0000000            0.0000000            0.0000000
 Quadrupole XZ       :          0.0000000            0.0000000            0.0000000
 Quadrupole YY       :         -6.4233355            0.0000000           -6.4233355
 Quadrupole YZ       :          0.0000000            0.0000000            0.0000000
 Quadrupole ZZ       :        -22.9269337           18.9411296           -3.9858042
 Traceless XX        :          5.5011994           -6.3137099           -0.8125105
 Traceless YY        :          5.5011994           -6.3137099           -0.8125105
 Traceless ZZ        :        -11.0023988           12.6274197            1.6250209

 ------------------------------------------------------------------------------------
  ==> Computing MBIS Charges <==

  Electron Count from Grid (Expected Number): 13.00000 (13.00000)
  Difference:  0.00000

  MBIS Charges: (a.u.)
   Center  Symbol  Z      Pop.       Charge
      1       N    7    6.500000    0.500000
      2       N    7    6.500000    0.500000

  MBIS Dipoles: [e a0]
   Center  Symbol  Z        X           Y           Z
      1       N    7    0.000000   -0.000000   -0.256528
      2       N    7   -0.000000   -0.000000    0.256528

  MBIS Quadrupoles: [e a0^2]
   Center  Symbol  Z      XX        XY        XZ        YY        YZ        ZZ
      1       N    7   -3.2117    0.0000   -0.0000   -3.2117   -0.0000   -3.2661
      2       N    7   -3.2117    0.0000    0.0000   -3.2117    0.0000   -3.2661

  MBIS Octupoles: [e a0^3]
   Center  Symbol  Z      XXX       XXY       XXZ       XYY       XYZ       XZZ       YYY       YYZ       YZZ       ZZZ
      1       N    7   -0.0000   -0.0000   -0.2755   -0.0000    0.0000    0.0000   -0.0000   -0.2755    0.0000   -0.6802
      2       N    7   -0.0000   -0.0000    0.2755   -0.0000   -0.0000    0.0000   -0.0000    0.2755   -0.0000    0.6802

  MBIS Radial Moments:
   Center  Symbol  Z      [a0^2]      [a0^3]      [a0^4]
      1       N    7    9.689473   18.727391   43.137498
      2       N    7    9.689473   18.727391   43.137498

  MBIS Valence Widths: [a0]
   Center  Symbol  Z     Width
      1       N    7    0.411113
      2       N    7    0.411113

*** tstop() called on Mac.lan at Sun Aug 10 18:25:13 2025
Module time:
	user time   =       4.73 seconds =       0.08 minutes
	system time =       1.64 seconds =       0.03 minutes
	total time  =          1 seconds =       0.02 minutes
Total time:
	user time   =      16.72 seconds =       0.28 minutes
	system time =       3.68 seconds =       0.06 minutes
	total time  =          2 seconds =       0.03 minutes

    Psi4 stopped on: Sunday, 10 August 2025 06:25PM
    Psi4 wall time for execution: 0:00:01.99

*** Psi4 exiting successfully. Buy a developer a beer!
