                               Psi4 1.9.1 release

  ==> Input File <==

--------------------------------------------------------------------------
molecule {
1 2
H           0.000000           0.000000           0.000000
H           0.000000           0.000000           1.056946
}

set {
basis              cc-pvtz
reference          uks
maxiter            500
DAMPING_PERCENTAGE 1
E_CONVERGENCE      1.0E-8
D_CONVERGENCE      1.0E-8
DIIS_MAX_VECS      400
MBIS_MAXITER       8000
guess              read
}

E, wfn = energy('b3lyp', restart_file='last_wfn', return_wfn=True)
properties('b3lyp','MBIS_CHARGES', wfn=wfn)
wfn.to_file('last_wfn')
--------------------------------------------------------------------------

    Molecular point group: d2h
  Charge       = 1
  Multiplicity = 2
  Basis Set: CC-PVTZ
    Blend: CC-PVTZ
  Basis Set: (CC-PVTZ AUX)
    Blend: CC-PVTZ-JKFIT
  @DF-UKS Final Energy:    -0.60975711749075
    Total Energy =                         -0.6097571174907459
 Dipole X            :          0.0000000            0.0000000            0.0000000
 Dipole Y            :          0.0000000            0.0000000            0.0000000
 Dipole Z            :          0.0000000            0.0000000            0.0000000
 Magnitude           :                                                    0.0000000
    Molecular point group: d2h

    Geometry (in Angstrom), charge = 1, multiplicity = 2:

       Center              X                  Y                   Z               Mass
    ------------   -----------------  -----------------  -----------------  -----------------
         H            0.000000000000     0.000000000000    -0.528473000000     1.007825032230
         H            0.000000000000     0.000000000000     0.528473000000     1.007825032230

  Charge       = 1
  Multiplicity = 2
  Basis Set: CC-PVTZ
    Blend: CC-PVTZ
  Basis Set: (CC-PVTZ AUX)
    Blend: CC-PVTZ-JKFIT

    Orbital Energies [Eh]
    ---------------------

    Alpha Occupied:

       1Ag    -0.918788

    Alpha Virtual:

       1B1u   -0.423512     2Ag    -0.092667     2B1u    0.036851
       1B2u    0.057745     1B3u    0.057745     3Ag     0.383486
       1B2g    0.466317     1B3g    0.466317     3B1u    0.901688
       4Ag     1.699704     4B1u    1.832012     2B3u    2.355723
       2B2u    2.355723     5Ag     2.445961     1B1g    2.445961
       6Ag     2.499254     5B1u    2.998288     1Au     2.998288
       3B3u    3.088464     3B2u    3.088464     2B2g    3.164272
       2B3g    3.164272     6B1u    3.299081     3B2g    3.961892
       3B3g    3.961892     7Ag     4.036992     7B1u    5.215401

    Beta Occupied:

    Beta Virtual:

       1Ag    -0.565100     1B1u   -0.240498     2Ag    -0.001964
       2B1u    0.156864     1B3u    0.199345     1B2u    0.199345
       3Ag     0.518801     1B2g    0.579446     1B3g    0.579446
       3B1u    1.014513     4Ag     1.992706     4B1u    2.120817
       2B3u    2.576522     2B2u    2.576522     5Ag     2.635455
       1B1g    2.635455     6Ag     2.780537     5B1u    3.183156
       1Au     3.183156     3B3u    3.329190     3B2u    3.329190
       2B2g    3.412569     2B3g    3.412569     6B1u    3.509683
       3B2g    4.163100     3B3g    4.163100     7Ag     4.262536
       7B1u    5.477183

    Final Occupation by Irrep:
             Ag   B1g   B2g   B3g    Au   B1u   B2u   B3u
    DOCC [     0,    0,    0,    0,    0,    0,    0,    0 ]
    SOCC [     1,    0,    0,    0,    0,    0,    0,    0 ]
    NA   [     1,    0,    0,    0,    0,    0,    0,    0 ]
    NB   [     0,    0,    0,    0,    0,    0,    0,    0 ]

  @DF-UKS Final Energy:    -0.60975711753534

   => Energetics <=

    Nuclear Repulsion Energy =              0.5006662692985261
    One-Electron Energy =                  -1.1020080966052990
    Two-Electron Energy =                   0.2649090122628824
    DFT Exchange-Correlation Energy =      -0.2733243024914492
    Empirical Dispersion Energy =           0.0000000000000000
    VV10 Nonlocal Energy =                  0.0000000000000000
    Total Energy =                         -0.6097571175353397

  UHF NO Occupations:
  HONO-0 :    1 Ag 1.0000000
  LUNO+0 :    2 Ag 0.0000000
  LUNO+1 :    3 Ag 0.0000000
  LUNO+2 :    4 Ag 0.0000000
  LUNO+3 :    5 Ag 0.0000000

Computation Completed

Properties will be evaluated at   0.000000,   0.000000,   0.000000 [a0]

Properties computed using the B3LYP density matrix

 Multipole Moments:

 ------------------------------------------------------------------------------------
     Multipole            Electronic (a.u.)      Nuclear  (a.u.)        Total (a.u.)
 ------------------------------------------------------------------------------------

 L = 1.  Multiply by 2.5417464519 to convert [e a0] to [Debye]
 Dipole X            :          0.0000000            0.0000000            0.0000000
 Dipole Y            :          0.0000000            0.0000000            0.0000000
 Dipole Z            :          0.0000000            0.0000000            0.0000000
 Magnitude           :                                                    0.0000000

 L = 2.  Multiply by 1.3450342976 to convert [e a0^2] to [Debye ang]
 Quadrupole XX       :         -0.6273800            0.0000000           -0.6273800
 Quadrupole XY       :          0.0000000            0.0000000            0.0000000
 Quadrupole XZ       :          0.0000000            0.0000000            0.0000000
 Quadrupole YY       :         -0.6273800            0.0000000           -0.6273800
 Quadrupole YZ       :          0.0000000            0.0000000            0.0000000
 Quadrupole ZZ       :         -1.1594534            1.9946805            0.8352271
 Traceless XX        :          0.1773578           -0.6648935           -0.4875357
 Traceless YY        :          0.1773578           -0.6648935           -0.4875357
 Traceless ZZ        :         -0.3547156            1.3297870            0.9750714

 ------------------------------------------------------------------------------------
  ==> Computing MBIS Charges <==

  Electron Count from Grid (Expected Number):  1.00000 ( 1.00000)
  Difference: -0.00000

  MBIS Charges: (a.u.)
   Center  Symbol  Z      Pop.       Charge
      1       H    1    0.500000    0.500000
      2       H    1    0.500000    0.500000

  MBIS Dipoles: [e a0]
   Center  Symbol  Z        X           Y           Z
      1       H    1    0.000000   -0.000000   -0.106718
      2       H    1    0.000000    0.000000    0.106718

  MBIS Quadrupoles: [e a0^2]
   Center  Symbol  Z      XX        XY        XZ        YY        YZ        ZZ
      1       H    1   -0.3137   -0.0000    0.0000   -0.3137   -0.0000   -0.2942
      2       H    1   -0.3137   -0.0000   -0.0000   -0.3137    0.0000   -0.2942

  MBIS Octupoles: [e a0^3]
   Center  Symbol  Z      XXX       XXY       XXZ       XYY       XYZ       XZZ       YYY       YYZ       YZZ       ZZZ
      1       H    1   -0.0000    0.0000   -0.0710   -0.0000    0.0000   -0.0000    0.0000   -0.0710    0.0000   -0.1412
      2       H    1   -0.0000    0.0000    0.0710   -0.0000   -0.0000    0.0000    0.0000    0.0710    0.0000    0.1412

  MBIS Radial Moments:
   Center  Symbol  Z      [a0^2]      [a0^3]      [a0^4]
      1       H    1    0.921588    1.734234    3.874646
      2       H    1    0.921588    1.734234    3.874646

  MBIS Valence Widths: [a0]
   Center  Symbol  Z     Width
      1       H    1    0.399028
      2       H    1    0.399028

*** tstop() called on Mac.lan at Sun Aug 10 18:11:11 2025
Module time:
	user time   =       0.72 seconds =       0.01 minutes
	system time =       1.13 seconds =       0.02 minutes
	total time  =          0 seconds =       0.00 minutes
Total time:
	user time   =       1.54 seconds =       0.03 minutes
	system time =       3.12 seconds =       0.05 minutes
	total time  =          1 seconds =       0.02 minutes

    Psi4 stopped on: Sunday, 10 August 2025 06:11PM
    Psi4 wall time for execution: 0:00:00.61

*** Psi4 exiting successfully. Buy a developer a beer!
