                               Psi4 1.9.1 release

  ==> Input File <==

--------------------------------------------------------------------------
molecule {
1 3
N           0.000000           0.000000           0.000000
C           0.000000           0.000000           1.417554
}

set {
basis              cc-pvtz
reference          uks
maxiter            500
DAMPING_PERCENTAGE 1
E_CONVERGENCE      1.0E-8
D_CONVERGENCE      1.0E-8
DIIS_MAX_VECS      400
MBIS_MAXITER       8000
guess              read
}

E, wfn = energy('b3lyp', restart_file='last_wfn', return_wfn=True)
properties('b3lyp','MBIS_CHARGES', wfn=wfn)
wfn.to_file('last_wfn')
--------------------------------------------------------------------------

    Molecular point group: c2v
  Charge       = 1
  Multiplicity = 3
  Basis Set: CC-PVTZ
    Blend: CC-PVTZ
  Basis Set: (CC-PVTZ AUX)
    Blend: CC-PVTZ-JKFIT
  @DF-UKS Final Energy:   -92.19889148605861
    Total Energy =                        -92.1988914860586135
 Dipole X            :          0.0000000            0.0000000            0.0000000
 Dipole Y            :          0.0000000            0.0000000            0.0000000
 Dipole Z            :          0.6316131            0.0019001            0.6335132
 Magnitude           :                                                    0.6335132
    Molecular point group: c2v

    Geometry (in Angstrom), charge = 1, multiplicity = 3:

       Center              X                  Y                   Z               Mass
    ------------   -----------------  -----------------  -----------------  -----------------
         N            0.000000000000     0.000000000000    -0.654178348187    14.003074004430
         C            0.000000000000     0.000000000000     0.763375651813    12.000000000000

  Charge       = 1
  Multiplicity = 3
  Basis Set: CC-PVTZ
    Blend: CC-PVTZ
  Basis Set: (CC-PVTZ AUX)
    Blend: CC-PVTZ-JKFIT

    Orbital Energies [Eh]
    ---------------------

    Alpha Occupied:

       1A1   -14.866541     2A1   -10.787022     3A1    -1.302788
       4A1    -0.927651     5A1    -0.781796     1B1    -0.772144
       1B2    -0.730978

    Alpha Virtual:

       2B1    -0.490825     2B2    -0.460445     6A1    -0.171041
       7A1    -0.003385     3B1     0.008617     3B2     0.018415
       8A1     0.021375     9A1     0.151690     4B1     0.192881
       4B2     0.211178     1A2     0.290856    10A1     0.291304
       5B1     0.386203     5B2     0.407652    11A1     0.561526
      12A1     0.733897     2A2     0.739570    13A1     0.741128
       6B1     1.050471     6B2     1.072690    14A1     1.273697
       7B1     1.573862     7B2     1.593425    15A1     1.760044
       8B1     2.222131     3A2     2.246580    16A1     2.246679
       8B2     2.249579     9B1     2.252410     9B2     2.253431
      17A1     2.477771    10B1     2.493191     4A2     2.507939
      18A1     2.509794    10B2     2.522370    19A1     2.572811
      11B1     2.839834    11B2     2.865446    20A1     2.925691
      12B1     3.468899    12B2     3.469036    21A1     3.690899
       5A2     3.691335    22A1     4.021138     6A2     4.037730
      23A1     4.038608    13B1     4.095880    13B2     4.132870
      24A1     4.515581    14B1     4.591968    14B2     4.621676
      25A1     5.049010    26A1     8.127365

    Beta Occupied:

       1A1   -14.842403     2A1   -10.769852     3A1    -1.230195
       4A1    -0.831980     1B2    -0.707361

    Beta Virtual:

       5A1    -0.604025     1B1    -0.598599     2B2    -0.431965
       2B1    -0.392997     6A1    -0.122129     3B2     0.022496
       7A1     0.023564     3B1     0.028274     8A1     0.063585
       9A1     0.178997     4B2     0.219925     4B1     0.231434
       1A2     0.313410    10A1     0.315354     5B2     0.437869
       5B1     0.443865    11A1     0.590701     2A2     0.776123
      12A1     0.777054    13A1     0.779872     6B2     1.099555
       6B1     1.105846    14A1     1.316221     7B2     1.604105
       7B1     1.612488    15A1     1.817158     8B2     2.276417
       9B2     2.280530     8B1     2.281153     3A2     2.285590
      16A1     2.287971     9B1     2.292084    17A1     2.543108
       4A2     2.549099    18A1     2.554359    10B2     2.560654
      10B1     2.577041    19A1     2.631123    11B2     2.913469
      11B1     2.921918    20A1     2.995464    12B2     3.519407
      12B1     3.520754     5A2     3.743461    21A1     3.747538
      22A1     4.076823     6A2     4.103941    23A1     4.111029
      13B2     4.173428    13B1     4.195334    24A1     4.579690
      14B2     4.661179    14B1     4.670560    25A1     5.095475
      26A1     8.166337

    Final Occupation by Irrep:
             A1    A2    B1    B2
    DOCC [     4,    0,    0,    1 ]
    SOCC [     1,    0,    1,    0 ]
    NA   [     5,    0,    1,    1 ]
    NB   [     4,    0,    0,    1 ]

  @DF-UKS Final Energy:   -92.19889149254089

   => Energetics <=

    Nuclear Repulsion Energy =             15.6787274757363733
    One-Electron Energy =                -150.4181092795280108
    Two-Electron Energy =                  51.9530446587253465
    DFT Exchange-Correlation Energy =      -9.4125543474745985
    Empirical Dispersion Energy =           0.0000000000000000
    VV10 Nonlocal Energy =                  0.0000000000000000
    Total Energy =                        -92.1988914925408949

  UHF NO Occupations:
  HONO-2 :    4 A1 1.9976816
  HONO-1 :    5 A1 1.0000000
  HONO-0 :    1 B1 1.0000000
  LUNO+0 :    6 A1 0.0023184
  LUNO+1 :    2 B2 0.0004498
  LUNO+2 :    7 A1 0.0003673
  LUNO+3 :    8 A1 0.0000006

Computation Completed

Properties will be evaluated at   0.000000,   0.000000,   0.000000 [a0]

Properties computed using the B3LYP density matrix

 Multipole Moments:

 ------------------------------------------------------------------------------------
     Multipole            Electronic (a.u.)      Nuclear  (a.u.)        Total (a.u.)
 ------------------------------------------------------------------------------------

 L = 1.  Multiply by 2.5417464519 to convert [e a0] to [Debye]
 Dipole X            :          0.0000000            0.0000000            0.0000000
 Dipole Y            :          0.0000000            0.0000000            0.0000000
 Dipole Z            :          0.6316146            0.0019001            0.6335146
 Magnitude           :                                                    0.6335146

 L = 2.  Multiply by 1.3450342976 to convert [e a0^2] to [Debye ang]
 Quadrupole XX       :         -5.9883800            0.0000000           -5.9883800
 Quadrupole XY       :          0.0000000            0.0000000            0.0000000
 Quadrupole XZ       :          0.0000000            0.0000000            0.0000000
 Quadrupole YY       :         -7.0840127            0.0000000           -7.0840127
 Quadrupole YZ       :          0.0000000            0.0000000            0.0000000
 Quadrupole ZZ       :        -27.2213316           23.1837082           -4.0376234
 Traceless XX        :          7.4428614           -7.7279027           -0.2850413
 Traceless YY        :          6.3472288           -7.7279027           -1.3806740
 Traceless ZZ        :        -13.7900902           15.4558054            1.6657153

 ------------------------------------------------------------------------------------
  ==> Computing MBIS Charges <==

  Electron Count from Grid (Expected Number): 12.00000 (12.00000)
  Difference:  0.00000

  MBIS Charges: (a.u.)
   Center  Symbol  Z      Pop.       Charge
      1       N    7    6.733479    0.266521
      2       C    6    5.266522    0.733478

  MBIS Dipoles: [e a0]
   Center  Symbol  Z        X           Y           Z
      1       N    7   -0.000000   -0.000000   -0.236128
      2       C    6   -0.000000    0.000000    0.141027

  MBIS Quadrupoles: [e a0^2]
   Center  Symbol  Z      XX        XY        XZ        YY        YZ        ZZ
      1       N    7   -3.2288   -0.0000    0.0000   -3.8015    0.0000   -3.6966
      2       C    6   -2.7596   -0.0000    0.0000   -3.2825    0.0000   -3.2654

  MBIS Octupoles: [e a0^3]
   Center  Symbol  Z      XXX       XXY       XXZ       XYY       XYZ       XZZ       YYY       YYZ       YZZ       ZZZ
      1       N    7   -0.0000   -0.0000   -0.1854   -0.0000   -0.0000   -0.0000   -0.0000   -0.3484   -0.0000   -0.7723
      2       C    6   -0.0000   -0.0000    0.1290   -0.0000   -0.0000   -0.0000    0.0000    0.3086    0.0000    0.4987

  MBIS Radial Moments:
   Center  Symbol  Z      [a0^2]      [a0^3]      [a0^4]
      1       N    7   10.726844   21.378736   50.775393
      2       C    6    9.307550   20.205122   52.200312

  MBIS Valence Widths: [a0]
   Center  Symbol  Z     Width
      1       N    7    0.422995
      2       C    6    0.468660

*** tstop() called on Mac.lan at Sun Aug 10 18:34:18 2025
Module time:
	user time   =       9.85 seconds =       0.16 minutes
	system time =       2.51 seconds =       0.04 minutes
	total time  =          1 seconds =       0.02 minutes
Total time:
	user time   =      63.63 seconds =       1.06 minutes
	system time =       6.67 seconds =       0.11 minutes
	total time  =          7 seconds =       0.12 minutes

    Psi4 stopped on: Sunday, 10 August 2025 06:34PM
    Psi4 wall time for execution: 0:00:07.29

*** Psi4 exiting successfully. Buy a developer a beer!
