                               Psi4 1.9.1 release

  ==> Input File <==

--------------------------------------------------------------------------
molecule {
1 2
N           0.000000           0.000000           0.000000
N           0.000000           0.000000           1.210742
}

set {
basis              cc-pvtz
reference          uks
maxiter            500
DAMPING_PERCENTAGE 1
E_CONVERGENCE      1.0E-8
D_CONVERGENCE      1.0E-8
DIIS_MAX_VECS      400
MBIS_MAXITER       8000
guess              read
}

E, wfn = energy('b3lyp', restart_file='last_wfn', return_wfn=True)
properties('b3lyp','MBIS_CHARGES', wfn=wfn)
wfn.to_file('last_wfn')
--------------------------------------------------------------------------

    Molecular point group: d2h
  Charge       = 1
  Multiplicity = 2
  Basis Set: CC-PVTZ
    Blend: CC-PVTZ
  Basis Set: (CC-PVTZ AUX)
    Blend: CC-PVTZ-JKFIT
  @DF-UKS Final Energy:  -108.96575441952787
    Total Energy =                       -108.9657544195278689
 Dipole X            :          0.0000000            0.0000000            0.0000000
 Dipole Y            :          0.0000000            0.0000000            0.0000000
 Dipole Z            :          0.0000000           -0.0000000           -0.0000000
 Magnitude           :                                                    0.0000000
    Molecular point group: d2h

    Geometry (in Angstrom), charge = 1, multiplicity = 2:

       Center              X                  Y                   Z               Mass
    ------------   -----------------  -----------------  -----------------  -----------------
         N            0.000000000000     0.000000000000    -0.605371000000    14.003074004430
         N            0.000000000000     0.000000000000     0.605371000000    14.003074004430

  Charge       = 1
  Multiplicity = 2
  Basis Set: CC-PVTZ
    Blend: CC-PVTZ
  Basis Set: (CC-PVTZ AUX)
    Blend: CC-PVTZ-JKFIT

    Orbital Energies [Eh]
    ---------------------

    Alpha Occupied:

       1Ag   -14.935885     1B1u  -14.935117     2Ag    -1.502106
       2B1u   -1.036163     3Ag    -0.896592     1B3u   -0.847465
       1B2u   -0.847465

    Alpha Virtual:

       1B2g   -0.489457     1B3g   -0.489457     3B1u   -0.056956
       2B2u    0.090257     2B3u    0.090257     4Ag     0.114241
       5Ag     0.131365     4B1u    0.132935     2B2g    0.213991
       2B3g    0.213991     1B1g    0.484509     6Ag     0.484509
       5B1u    0.535025     3B3u    0.633233     3B2u    0.633233
       1Au     0.864298     6B1u    0.864298     7Ag     1.281454
       3B2g    1.283812     3B3g    1.283812     7B1u    1.348513
       4B2u    2.312529     4B3u    2.312529     8Ag     2.431669
       4B2g    2.578230     4B3g    2.578230     2B1g    3.026888
       9Ag     3.026889     8B1u    3.042406     5B2u    3.098626
       5B3u    3.098626     6B2u    3.259956     6B3u    3.259956
      10Ag     3.351978     5B2g    3.600062     5B3g    3.600062
       3B1g    3.905216    11Ag     3.905219     9B1u    3.921216
       2Au     4.011706    10B1u    4.011708     6B2g    4.103659
       6B3g    4.103659     3Au     4.281839    11B1u    4.281841
       7B3u    4.378708     7B2u    4.378708    12Ag     4.866769
      12B1u    4.887212    13Ag     5.369825     7B2g    5.515044
       7B3g    5.515044    13B1u   12.003023

    Beta Occupied:

       1Ag   -14.922870     1B1u  -14.922292     2Ag    -1.471944
       2B1u   -0.949337     1B3u   -0.834889     1B2u   -0.834889

    Beta Virtual:

       3Ag    -0.715609     1B2g   -0.468299     1B3g   -0.468299
       3B1u   -0.036234     2B2u    0.094153     2B3u    0.094153
       4Ag     0.134564     5Ag     0.154792     4B1u    0.192013
       2B2g    0.218982     2B3g    0.218982     1B1g    0.487742
       6Ag     0.487742     5B1u    0.543090     3B3u    0.664526
       3B2u    0.664526     1Au     0.872771     6B1u    0.872771
       3B2g    1.311661     3B3g    1.311661     7Ag     1.321887
       7B1u    1.387363     4B2u    2.324325     4B3u    2.324325
       8Ag     2.474418     4B2g    2.586822     4B3g    2.586822
       2B1g    3.049383     9Ag     3.049383     8B1u    3.091926
       5B2u    3.129687     5B3u    3.129687     6B2u    3.264783
       6B3u    3.264783    10Ag     3.418837     5B2g    3.605593
       5B3g    3.605593     3B1g    3.917266    11Ag     3.917269
       9B1u    3.973805     2Au     4.015379    10B1u    4.015381
       6B2g    4.162573     6B3g    4.162573     3Au     4.313297
      11B1u    4.313299     7B2u    4.434965     7B3u    4.434965
      12Ag     4.893003    12B1u    4.949942    13Ag     5.425731
       7B2g    5.550213     7B3g    5.550213    13B1u   12.022631

    Final Occupation by Irrep:
             Ag   B1g   B2g   B3g    Au   B1u   B2u   B3u
    DOCC [     2,    0,    0,    0,    0,    2,    1,    1 ]
    SOCC [     1,    0,    0,    0,    0,    0,    0,    0 ]
    NA   [     3,    0,    0,    0,    0,    2,    1,    1 ]
    NB   [     2,    0,    0,    0,    0,    2,    1,    1 ]

  @DF-UKS Final Energy:  -108.96575441948900

   => Energetics <=

    Nuclear Repulsion Energy =             21.4163573435380954
    One-Electron Energy =                -184.1617015499722640
    Two-Electron Energy =                  64.4245090449377784
    DFT Exchange-Correlation Energy =     -10.6449192579926049
    Empirical Dispersion Energy =           0.0000000000000000
    VV10 Nonlocal Energy =                  0.0000000000000000
    Total Energy =                       -108.9657544194890022

  UHF NO Occupations:
  HONO-2 :    2 Ag 1.9998682
  HONO-1 :    2B1u 1.9977159
  HONO-0 :    3 Ag 1.0000000
  LUNO+0 :    3B1u 0.0022841
  LUNO+1 :    4 Ag 0.0001318
  LUNO+2 :    2B2u 0.0001011
  LUNO+3 :    2B3u 0.0001011

Computation Completed

Properties will be evaluated at   0.000000,   0.000000,   0.000000 [a0]

Properties computed using the B3LYP density matrix

 Multipole Moments:

 ------------------------------------------------------------------------------------
     Multipole            Electronic (a.u.)      Nuclear  (a.u.)        Total (a.u.)
 ------------------------------------------------------------------------------------

 L = 1.  Multiply by 2.5417464519 to convert [e a0] to [Debye]
 Dipole X            :          0.0000000            0.0000000            0.0000000
 Dipole Y            :          0.0000000            0.0000000            0.0000000
 Dipole Z            :          0.0000000           -0.0000000           -0.0000000
 Magnitude           :                                                    0.0000000

 L = 2.  Multiply by 1.3450342976 to convert [e a0^2] to [Debye ang]
 Quadrupole XX       :         -6.3850815            0.0000000           -6.3850815
 Quadrupole XY       :          0.0000000            0.0000000            0.0000000
 Quadrupole XZ       :          0.0000000            0.0000000            0.0000000
 Quadrupole YY       :         -6.3850815            0.0000000           -6.3850815
 Quadrupole YZ       :          0.0000000            0.0000000            0.0000000
 Quadrupole ZZ       :        -22.3752684           18.3218362           -4.0534322
 Traceless XX        :          5.3300623           -6.1072787           -0.7772164
 Traceless YY        :          5.3300623           -6.1072787           -0.7772164
 Traceless ZZ        :        -10.6601246           12.2145574            1.5544328

 ------------------------------------------------------------------------------------
  ==> Computing MBIS Charges <==

  Electron Count from Grid (Expected Number): 13.00000 (13.00000)
  Difference:  0.00000

  MBIS Charges: (a.u.)
   Center  Symbol  Z      Pop.       Charge
      1       N    7    6.500000    0.500000
      2       N    7    6.500000    0.500000

  MBIS Dipoles: [e a0]
   Center  Symbol  Z        X           Y           Z
      1       N    7   -0.000000   -0.000000   -0.252054
      2       N    7    0.000000    0.000000    0.252054

  MBIS Quadrupoles: [e a0^2]
   Center  Symbol  Z      XX        XY        XZ        YY        YZ        ZZ
      1       N    7   -3.1925    0.0000   -0.0000   -3.1925   -0.0000   -3.2578
      2       N    7   -3.1925    0.0000    0.0000   -3.1925    0.0000   -3.2578

  MBIS Octupoles: [e a0^3]
   Center  Symbol  Z      XXX       XXY       XXZ       XYY       XYZ       XZZ       YYY       YYZ       YZZ       ZZZ
      1       N    7   -0.0000   -0.0000   -0.2647   -0.0000    0.0000    0.0000   -0.0000   -0.2647   -0.0000   -0.6482
      2       N    7   -0.0000   -0.0000    0.2647   -0.0000   -0.0000    0.0000   -0.0000    0.2647   -0.0000    0.6482

  MBIS Radial Moments:
   Center  Symbol  Z      [a0^2]      [a0^3]      [a0^4]
      1       N    7    9.642840   18.585426   42.693485
      2       N    7    9.642840   18.585426   42.693485

  MBIS Valence Widths: [a0]
   Center  Symbol  Z     Width
      1       N    7    0.410050
      2       N    7    0.410050

*** tstop() called on Mac.lan at Sun Aug 10 18:25:10 2025
Module time:
	user time   =       3.64 seconds =       0.06 minutes
	system time =       1.97 seconds =       0.03 minutes
	total time  =          0 seconds =       0.00 minutes
Total time:
	user time   =      16.07 seconds =       0.27 minutes
	system time =       4.13 seconds =       0.07 minutes
	total time  =          2 seconds =       0.03 minutes

    Psi4 stopped on: Sunday, 10 August 2025 06:25PM
    Psi4 wall time for execution: 0:00:01.97

*** Psi4 exiting successfully. Buy a developer a beer!
