                               Psi4 1.9.1 release

  ==> Input File <==

--------------------------------------------------------------------------
molecule {
1 2
O           0.000000           0.000000           0.000000
C           0.000000           0.000000           1.644599
}

set {
basis              cc-pvtz
reference          uks
maxiter            500
DAMPING_PERCENTAGE 1
E_CONVERGENCE      1.0E-8
D_CONVERGENCE      1.0E-8
DIIS_MAX_VECS      400
MBIS_MAXITER       8000
guess              read
}

E, wfn = energy('b3lyp', restart_file='last_wfn', return_wfn=True)
properties('b3lyp','MBIS_CHARGES', wfn=wfn)
wfn.to_file('last_wfn')
--------------------------------------------------------------------------

    Molecular point group: c2v
  Charge       = 1
  Multiplicity = 2
  Basis Set: CC-PVTZ
    Blend: CC-PVTZ
  Basis Set: (CC-PVTZ AUX)
    Blend: CC-PVTZ-JKFIT
  @DF-UKS Final Energy:  -112.62929829071103
    Total Energy =                       -112.6292982907110343
 Dipole X            :          0.0000000            0.0000000            0.0000000
 Dipole Y            :          0.0000000            0.0000000            0.0000000
 Dipole Z            :          1.1534182           -0.0033873            1.1500309
 Magnitude           :                                                    1.1500309
    Molecular point group: c2v

    Geometry (in Angstrom), charge = 1, multiplicity = 2:

       Center              X                  Y                   Z               Mass
    ------------   -----------------  -----------------  -----------------  -----------------
         O            0.000000000000     0.000000000000    -0.704956177512    15.994914619570
         C            0.000000000000     0.000000000000     0.939642822488    12.000000000000

  Charge       = 1
  Multiplicity = 2
  Basis Set: CC-PVTZ
    Blend: CC-PVTZ
  Basis Set: (CC-PVTZ AUX)
    Blend: CC-PVTZ-JKFIT

    Orbital Energies [Eh]
    ---------------------

    Alpha Occupied:

       1A1   -19.673374     2A1   -10.847191     3A1    -1.392599
       4A1    -0.988143     5A1    -0.817799     1B1    -0.769329
       1B2    -0.769329

    Alpha Virtual:

       2B2    -0.516434     2B1    -0.516434     6A1    -0.388700
       7A1    -0.007394     3B2     0.021399     3B1     0.021399
       8A1     0.030756     9A1     0.246860     4B2     0.270443
       4B1     0.270443     1A2     0.330198    10A1     0.330198
       5B1     0.415352     5B2     0.415352    11A1     0.597925
      12A1     0.876750     2A2     1.100336    13A1     1.100337
       6B1     1.227653     6B2     1.227653    14A1     1.356038
       7B1     1.574610     7B2     1.574610    15A1     1.912941
       3A2     2.272875    16A1     2.272875     8B2     2.273284
       8B1     2.273284    17A1     2.384189     9B2     2.387645
       9B1     2.387645    18A1     2.509685     4A2     2.509687
      10B1     2.648509    10B2     2.648509    19A1     2.730983
      11B2     3.237176    11B1     3.237176    20A1     3.282213
      21A1     4.176402    12B1     4.701744    12B2     4.701744
      22A1     4.711130     5A2     4.711131    13B1     4.895202
      13B2     4.895202    23A1     5.200598     6A2     5.737162
      24A1     5.737202    14B1     5.984215    14B2     5.984215
      25A1     6.491331    26A1     7.746125

    Beta Occupied:

       1A1   -19.639180     2A1   -10.849905     3A1    -1.307317
       4A1    -0.957279     1B2    -0.708923     1B1    -0.708923

    Beta Virtual:

       5A1    -0.640232     2B1    -0.531450     2B2    -0.531450
       6A1    -0.326128     7A1     0.004066     3B2     0.010492
       3B1     0.010492     8A1     0.041241     9A1     0.277110
       4B2     0.293481     4B1     0.293481     1A2     0.306509
      10A1     0.306509     5B1     0.429891     5B2     0.429891
      11A1     0.627025    12A1     0.913947     2A2     1.134621
      13A1     1.134621     6B1     1.265596     6B2     1.265596
      14A1     1.401838     7B1     1.554773     7B2     1.554773
      15A1     1.939739     8B2     2.235624     8B1     2.235624
      16A1     2.261326     3A2     2.261326     9B1     2.383876
       9B2     2.383876    17A1     2.422846    18A1     2.466659
       4A2     2.466662    10B1     2.681763    10B2     2.681763
      19A1     2.782987    11B2     3.290963    11B1     3.290963
      20A1     3.311973    21A1     4.227124    12B1     4.747124
      12B2     4.747124    22A1     4.769500     5A2     4.769501
      13B1     4.962720    13B2     4.962720    23A1     5.280780
       6A2     5.809100    24A1     5.809141    14B1     6.081575
      14B2     6.081575    25A1     6.589764    26A1     7.797111

    Final Occupation by Irrep:
             A1    A2    B1    B2
    DOCC [     4,    0,    1,    1 ]
    SOCC [     1,    0,    0,    0 ]
    NA   [     5,    0,    1,    1 ]
    NB   [     4,    0,    1,    1 ]

  @DF-UKS Final Energy:  -112.62929828613818

   => Energetics <=

    Nuclear Repulsion Energy =             15.4448021141688656
    One-Electron Energy =                -179.0096212147571180
    Two-Electron Energy =                  61.6360558681592892
    DFT Exchange-Correlation Energy =     -10.7005350537092241
    Empirical Dispersion Energy =           0.0000000000000000
    VV10 Nonlocal Energy =                  0.0000000000000000
    Total Energy =                       -112.6292982861381802

  UHF NO Occupations:
  HONO-2 :    1 B2 1.9287542
  HONO-1 :    1 B1 1.9287542
  HONO-0 :    5 A1 1.0000000
  LUNO+0 :    2 B1 0.0712458
  LUNO+1 :    2 B2 0.0712458
  LUNO+2 :    6 A1 0.0121330
  LUNO+3 :    7 A1 0.0002736

Computation Completed

Properties will be evaluated at   0.000000,   0.000000,   0.000000 [a0]

Properties computed using the B3LYP density matrix

 Multipole Moments:

 ------------------------------------------------------------------------------------
     Multipole            Electronic (a.u.)      Nuclear  (a.u.)        Total (a.u.)
 ------------------------------------------------------------------------------------

 L = 1.  Multiply by 2.5417464519 to convert [e a0] to [Debye]
 Dipole X            :          0.0000000            0.0000000            0.0000000
 Dipole Y            :          0.0000000            0.0000000            0.0000000
 Dipole Z            :          1.1534192           -0.0033873            1.1500319
 Magnitude           :                                                    1.1500319

 L = 2.  Multiply by 1.3450342976 to convert [e a0^2] to [Debye ang]
 Quadrupole XX       :         -6.6888222            0.0000000           -6.6888222
 Quadrupole XY       :          0.0000000            0.0000000            0.0000000
 Quadrupole XZ       :          0.0000000            0.0000000            0.0000000
 Quadrupole YY       :         -6.6888222            0.0000000           -6.6888222
 Quadrupole YZ       :          0.0000000            0.0000000            0.0000000
 Quadrupole ZZ       :        -35.3138899           33.1154751           -2.1984148
 Traceless XX        :          9.5416892          -11.0384917           -1.4968025
 Traceless YY        :          9.5416892          -11.0384917           -1.4968025
 Traceless ZZ        :        -19.0833785           22.0769834            2.9936050

 ------------------------------------------------------------------------------------
  ==> Computing MBIS Charges <==

  Electron Count from Grid (Expected Number): 13.00000 (13.00000)
  Difference: -0.00000

  MBIS Charges: (a.u.)
   Center  Symbol  Z      Pop.       Charge
      1       O    8    7.858545    0.141455
      2       C    6    5.141454    0.858546

  MBIS Dipoles: [e a0]
   Center  Symbol  Z        X           Y           Z
      1       O    8   -0.000000    0.000000   -0.328358
      2       C    6    0.000000    0.000000    0.142337

  MBIS Quadrupoles: [e a0^2]
   Center  Symbol  Z      XX        XY        XZ        YY        YZ        ZZ
      1       O    8   -3.6610   -0.0000    0.0000   -3.6610    0.0000   -3.4129
      2       C    6   -3.0278    0.0000    0.0000   -3.0278    0.0000   -3.1239

  MBIS Octupoles: [e a0^3]
   Center  Symbol  Z      XXX       XXY       XXZ       XYY       XYZ       XZZ       YYY       YYZ       YZZ       ZZZ
      1       O    8   -0.0000   -0.0000   -0.3099   -0.0000    0.0000    0.0000   -0.0000   -0.3099   -0.0000   -0.9944
      2       C    6   -0.0000   -0.0000    0.3520    0.0000    0.0000    0.0000    0.0000    0.3520    0.0000    0.7588

  MBIS Radial Moments:
   Center  Symbol  Z      [a0^2]      [a0^3]      [a0^4]
      1       O    8   10.734951   19.795586   43.694014
      2       C    6    9.179484   20.205895   52.961633

  MBIS Valence Widths: [a0]
   Center  Symbol  Z     Width
      1       O    8    0.380934
      2       C    6    0.474454

*** tstop() called on Mac.lan at Sun Aug 10 18:39:17 2025
Module time:
	user time   =       4.87 seconds =       0.08 minutes
	system time =       1.46 seconds =       0.02 minutes
	total time  =          1 seconds =       0.02 minutes
Total time:
	user time   =      23.61 seconds =       0.39 minutes
	system time =       2.51 seconds =       0.04 minutes
	total time  =          3 seconds =       0.05 minutes

    Psi4 stopped on: Sunday, 10 August 2025 06:39PM
    Psi4 wall time for execution: 0:00:02.57

*** Psi4 exiting successfully. Buy a developer a beer!
