                               Psi4 1.9.1 release

  ==> Input File <==

--------------------------------------------------------------------------
molecule {
1 2
O           0.000000           0.000000           0.000000
O           0.000000           0.000000           0.988909
}

set {
basis              cc-pvtz
reference          uks
maxiter            500
DAMPING_PERCENTAGE 1
E_CONVERGENCE      1.0E-8
D_CONVERGENCE      1.0E-8
DIIS_MAX_VECS      400
MBIS_MAXITER       8000
guess              read
}

E, wfn = energy('b3lyp', restart_file='last_wfn', return_wfn=True)
properties('b3lyp','MBIS_CHARGES', wfn=wfn)
wfn.to_file('last_wfn')
--------------------------------------------------------------------------

    Molecular point group: d2h
  Charge       = 1
  Multiplicity = 2
  Basis Set: CC-PVTZ
    Blend: CC-PVTZ
  Basis Set: (CC-PVTZ AUX)
    Blend: CC-PVTZ-JKFIT
  @DF-UKS Final Energy:  -149.87925358336508
    Total Energy =                       -149.8792535833650277
 Dipole X            :          0.0000000            0.0000000            0.0000000
 Dipole Y            :          0.0000000            0.0000000            0.0000000
 Dipole Z            :          0.0000000            0.0000000            0.0000000
 Magnitude           :                                                    0.0000000
    Molecular point group: d2h

    Geometry (in Angstrom), charge = 1, multiplicity = 2:

       Center              X                  Y                   Z               Mass
    ------------   -----------------  -----------------  -----------------  -----------------
         O            0.000000000000     0.000000000000    -0.494454500000    15.994914619570
         O            0.000000000000     0.000000000000     0.494454500000    15.994914619570

  Charge       = 1
  Multiplicity = 2
  Basis Set: CC-PVTZ
    Blend: CC-PVTZ
  Basis Set: (CC-PVTZ AUX)
    Blend: CC-PVTZ-JKFIT

    Orbital Energies [Eh]
    ---------------------

    Alpha Occupied:

       1Ag   -19.807748     1B1u  -19.806207     2Ag    -2.012827
       2B1u   -1.218667     1B3u   -1.136034     1B2u   -1.103533
       3Ag    -1.047488     1B2g   -0.681824

    Alpha Virtual:

       1B3g   -0.553055     3B1u    0.017919     2B2u    0.118052
       2B3u    0.118300     4Ag     0.182870     5Ag     0.256438
       2B2g    0.292083     2B3g    0.301469     4B1u    0.322262
       1B1g    0.722665     6Ag     0.723951     5B1u    0.814097
       3B3u    1.012272     3B2u    1.012709     1Au     1.288078
       6B1u    1.289850     7Ag     1.788205     3B2g    1.855703
       3B3g    1.859779     7B1u    1.940599     4B3u    2.946589
       4B2u    2.962208     8Ag     3.249420     4B2g    3.388152
       4B3g    3.399892     8B1u    3.994065     2B1g    4.052009
       9Ag     4.053246     5B3u    4.254356     5B2u    4.254532
       6B2u    4.287147     6B3u    4.292561    10Ag     4.801599
       5B2g    4.825999     5B3g    4.826301     9B1u    5.490668
       3B1g    5.508213    11Ag     5.512269     2Au     5.661357
      10B1u    5.665453     6B2g    5.692754     6B3g    5.700032
       3Au     5.881637    11B1u    5.883462     7B3u    6.234571
       7B2u    6.236559    12Ag     6.409573    12B1u    6.995827
       7B3g    7.729383     7B2g    7.730532    13Ag     7.770992
      13B1u   19.215662

    Beta Occupied:

       1Ag   -19.791307     1B1u  -19.789643     2Ag    -1.989158
       2B1u   -1.172439     1B2u   -1.090128     1B3u   -1.044196
       3Ag    -1.022086

    Beta Virtual:

       1B3g   -0.534946     1B2g   -0.486211     3B1u    0.028987
       2B2u    0.121524     2B3u    0.140851     4Ag     0.184708
       5Ag     0.269503     2B3g    0.306722     2B2g    0.325976
       4B1u    0.342739     1B1g    0.743566     6Ag     0.743774
       5B1u    0.829475     3B2u    1.015785     3B3u    1.046740
       1Au     1.322130     6B1u    1.322180     7Ag     1.801345
       3B3g    1.864446     3B2g    1.890515     7B1u    1.953962
       4B2u    2.973796     4B3u    3.013759     8Ag     3.261239
       4B3g    3.412068     4B2g    3.453962     8B1u    4.016201
       2B1g    4.070537     9Ag     4.070844     5B2u    4.281853
       5B3u    4.287078     6B2u    4.297930     6B3u    4.326122
      10Ag     4.816726     5B3g    4.866198     5B2g    4.866219
       9B1u    5.509500    11Ag     5.567275     3B1g    5.567357
       6B3g    5.705395     2Au     5.718346    10B1u    5.718356
       6B2g    5.740848     3Au     5.912181    11B1u    5.913509
       7B2u    6.242179     7B3u    6.281064    12Ag     6.438464
      12B1u    7.014163     7B3g    7.734997     7B2g    7.771549
      13Ag     7.787546    13B1u   19.238262

    Final Occupation by Irrep:
             Ag   B1g   B2g   B3g    Au   B1u   B2u   B3u
    DOCC [     3,    0,    0,    0,    0,    2,    1,    1 ]
    SOCC [     0,    0,    1,    0,    0,    0,    0,    0 ]
    NA   [     3,    0,    1,    0,    0,    2,    1,    1 ]
    NB   [     3,    0,    0,    0,    0,    2,    1,    1 ]

  @DF-UKS Final Energy:  -149.87925358409908

   => Energetics <=

    Nuclear Repulsion Energy =             34.2471769221232805
    One-Electron Energy =                -265.7933064085519845
    Two-Electron Energy =                  95.2411658592715611
    DFT Exchange-Correlation Energy =     -13.5742899569419215
    Empirical Dispersion Energy =           0.0000000000000000
    VV10 Nonlocal Energy =                  0.0000000000000000
    Total Energy =                       -149.8792535840990467

  UHF NO Occupations:
  HONO-2 :    2B1u 1.9997449
  HONO-1 :    1B3u 1.9993867
  HONO-0 :    1B2g 1.0000000
  LUNO+0 :    2B3u 0.0006133
  LUNO+1 :    3B1u 0.0002551
  LUNO+2 :    4 Ag 0.0001412
  LUNO+3 :    2B2u 0.0000245

Computation Completed

Properties will be evaluated at   0.000000,   0.000000,   0.000000 [a0]

Properties computed using the B3LYP density matrix

 Multipole Moments:

 ------------------------------------------------------------------------------------
     Multipole            Electronic (a.u.)      Nuclear  (a.u.)        Total (a.u.)
 ------------------------------------------------------------------------------------

 L = 1.  Multiply by 2.5417464519 to convert [e a0] to [Debye]
 Dipole X            :          0.0000000            0.0000000            0.0000000
 Dipole Y            :          0.0000000            0.0000000            0.0000000
 Dipole Z            :          0.0000000            0.0000000            0.0000000
 Magnitude           :                                                    0.0000000

 L = 2.  Multiply by 1.3450342976 to convert [e a0^2] to [Debye ang]
 Quadrupole XX       :         -5.9594606            0.0000000           -5.9594606
 Quadrupole XY       :          0.0000000            0.0000000            0.0000000
 Quadrupole XZ       :          0.0000000            0.0000000            0.0000000
 Quadrupole YY       :         -5.3972654            0.0000000           -5.3972654
 Quadrupole YZ       :          0.0000000            0.0000000            0.0000000
 Quadrupole ZZ       :        -19.2951687           13.9691630           -5.3260057
 Traceless XX        :          4.2578376           -4.6563877           -0.3985501
 Traceless YY        :          4.8200329           -4.6563877            0.1636452
 Traceless ZZ        :         -9.0778705            9.3127753            0.2349049

 ------------------------------------------------------------------------------------
  ==> Computing MBIS Charges <==

  Electron Count from Grid (Expected Number): 15.00000 (15.00000)
  Difference:  0.00000

  MBIS Charges: (a.u.)
   Center  Symbol  Z      Pop.       Charge
      1       O    8    7.500000    0.500000
      2       O    8    7.500000    0.500000

  MBIS Dipoles: [e a0]
   Center  Symbol  Z        X           Y           Z
      1       O    8   -0.000000   -0.000000    0.040610
      2       O    8    0.000000   -0.000000   -0.040610

  MBIS Quadrupoles: [e a0^2]
   Center  Symbol  Z      XX        XY        XZ        YY        YZ        ZZ
      1       O    8   -2.9797    0.0000    0.0000   -2.6986    0.0000   -3.0236
      2       O    8   -2.9797    0.0000   -0.0000   -2.6986   -0.0000   -3.0236

  MBIS Octupoles: [e a0^3]
   Center  Symbol  Z      XXX       XXY       XXZ       XYY       XYZ       XZZ       YYY       YYZ       YZZ       ZZZ
      1       O    8   -0.0000   -0.0000    0.0961   -0.0000   -0.0000   -0.0000    0.0000    0.0069   -0.0000   -0.0684
      2       O    8   -0.0000   -0.0000   -0.0961   -0.0000    0.0000   -0.0000   -0.0000   -0.0069   -0.0000    0.0684

  MBIS Radial Moments:
   Center  Symbol  Z      [a0^2]      [a0^3]      [a0^4]
      1       O    8    8.702010   14.686067   29.757209
      2       O    8    8.702010   14.686067   29.757209

  MBIS Valence Widths: [a0]
   Center  Symbol  Z     Width
      1       O    8    0.352550
      2       O    8    0.352550

*** tstop() called on Mac.lan at Sun Aug 10 18:12:42 2025
Module time:
	user time   =       3.59 seconds =       0.06 minutes
	system time =       2.39 seconds =       0.04 minutes
	total time  =          0 seconds =       0.00 minutes
Total time:
	user time   =      14.14 seconds =       0.24 minutes
	system time =       4.46 seconds =       0.07 minutes
	total time  =          2 seconds =       0.03 minutes

    Psi4 stopped on: Sunday, 10 August 2025 06:12PM
    Psi4 wall time for execution: 0:00:01.82

*** Psi4 exiting successfully. Buy a developer a beer!
