                               Psi4 1.9.1 release

  ==> Input File <==

--------------------------------------------------------------------------
molecule {
1 4
C           0.000000           0.000000           0.000000
C           0.000000           0.000000           1.476798
}

set {
basis              cc-pvtz
reference          uks
maxiter            500
DAMPING_PERCENTAGE 1
E_CONVERGENCE      1.0E-8
D_CONVERGENCE      1.0E-8
DIIS_MAX_VECS      400
MBIS_MAXITER       8000
guess              read
}

E, wfn = energy('b3lyp', restart_file='last_wfn', return_wfn=True)
properties('b3lyp','MBIS_CHARGES', wfn=wfn)
wfn.to_file('last_wfn')
--------------------------------------------------------------------------

    Molecular point group: d2h
  Charge       = 1
  Multiplicity = 4
  Basis Set: CC-PVTZ
    Blend: CC-PVTZ
  Basis Set: (CC-PVTZ AUX)
    Blend: CC-PVTZ-JKFIT
  @DF-UKS Final Energy:   -75.50318178830216
    Total Energy =                        -75.5031817883021574
 Dipole X            :          0.0000000            0.0000000            0.0000000
 Dipole Y            :          0.0000000            0.0000000            0.0000000
 Dipole Z            :          0.0000000           -0.0000000           -0.0000000
 Magnitude           :                                                    0.0000000
    Molecular point group: d2h

    Geometry (in Angstrom), charge = 1, multiplicity = 4:

       Center              X                  Y                   Z               Mass
    ------------   -----------------  -----------------  -----------------  -----------------
         C            0.000000000000     0.000000000000    -0.738399000000    12.000000000000
         C            0.000000000000     0.000000000000     0.738399000000    12.000000000000

  Charge       = 1
  Multiplicity = 4
  Basis Set: CC-PVTZ
    Blend: CC-PVTZ
  Basis Set: (CC-PVTZ AUX)
    Blend: CC-PVTZ-JKFIT

    Orbital Energies [Eh]
    ---------------------

    Alpha Occupied:

       1Ag   -10.720672     1B1u  -10.720197     2Ag    -1.170022
       2B1u   -0.833925     3Ag    -0.703361     1B3u   -0.698582
       1B2u   -0.698582

    Alpha Virtual:

       1B3g   -0.437283     1B2g   -0.437283     3B1u   -0.126684
       2B2u    0.004065     2B3u    0.004065     4Ag     0.019197
       4B1u    0.032877     5Ag     0.039383     2B2g    0.095871
       2B3g    0.095871     1B1g    0.226333     6Ag     0.226333
       3B3u    0.335489     3B2u    0.335489     5B1u    0.340764
       1Au     0.491499     6B1u    0.491499     3B3g    0.800932
       3B2g    0.800932     7Ag     0.816351     7B1u    0.836796
       4B3u    1.525340     4B2u    1.525340     8Ag     1.607955
       4B2g    1.694265     4B3g    1.694265     2B1g    2.003130
       9Ag     2.003130     5B3u    2.012293     5B2u    2.012293
       8B1u    2.114066     6B3u    2.166277     6B2u    2.166277
      10Ag     2.182365     5B2g    2.388438     5B3g    2.388438
       3B1g    2.495023    11Ag     2.495025     2Au     2.568974
       9B1u    2.568976    10B1u    2.612622     6B3g    2.683058
       6B2g    2.683058     3Au     2.854411    11B1u    2.854412
       7B2u    2.859326     7B3u    2.859326    12B1u    3.215331
      12Ag     3.449786    13Ag     3.566731     7B3g    3.693332
       7B2g    3.693332    13B1u    7.887967

    Beta Occupied:

       1Ag   -10.695684     1B1u  -10.695489     2Ag    -1.070077
       2B1u   -0.715106

    Beta Virtual:

       1B2u   -0.537925     1B3u   -0.537925     3Ag    -0.534807
       1B3g   -0.339916     1B2g   -0.339916     3B1u   -0.074379
       2B2u    0.031219     2B3u    0.031219     4Ag     0.050108
       5Ag     0.073904     4B1u    0.088457     2B2g    0.119054
       2B3g    0.119054     1B1g    0.279558     6Ag     0.279558
       5B1u    0.364925     3B3u    0.397251     3B2u    0.397251
       1Au     0.536083     6B1u    0.536083     3B3g    0.843083
       3B2g    0.843083     7Ag     0.868388     7B1u    0.880102
       4B3u    1.583054     4B2u    1.583054     8Ag     1.670068
       4B2g    1.751027     4B3g    1.751027     2B1g    2.071701
       9Ag     2.071702     5B3u    2.080289     5B2u    2.080289
       8B1u    2.170476     6B3u    2.234223     6B2u    2.234223
      10Ag     2.258883     5B2g    2.455282     5B3g    2.455282
       3B1g    2.582192    11Ag     2.582195     2Au     2.651905
       9B1u    2.651907    10B1u    2.689600     6B3g    2.764752
       6B2g    2.764752     3Au     2.924372    11B1u    2.924374
       7B2u    2.942875     7B3u    2.942875    12B1u    3.285014
      12Ag     3.509184    13Ag     3.625080     7B3g    3.760792
       7B2g    3.760792    13B1u    7.931170

    Final Occupation by Irrep:
             Ag   B1g   B2g   B3g    Au   B1u   B2u   B3u
    DOCC [     2,    0,    0,    0,    0,    2,    0,    0 ]
    SOCC [     1,    0,    0,    0,    0,    0,    1,    1 ]
    NA   [     3,    0,    0,    0,    0,    2,    1,    1 ]
    NB   [     2,    0,    0,    0,    0,    2,    0,    0 ]

  @DF-UKS Final Energy:   -75.50318178853819

   => Energetics <=

    Nuclear Repulsion Energy =             12.8997869607894931
    One-Electron Energy =                -122.1422131558508113
    Two-Electron Energy =                  41.9767864185659505
    DFT Exchange-Correlation Energy =      -8.2375420120428267
    Empirical Dispersion Energy =           0.0000000000000000
    VV10 Nonlocal Energy =                  0.0000000000000000
    Total Energy =                        -75.5031817885381855

  UHF NO Occupations:
  HONO-2 :    3 Ag 1.0000000
  HONO-1 :    1B2u 1.0000000
  HONO-0 :    1B3u 1.0000000
  LUNO+0 :    3B1u 0.0013458
  LUNO+1 :    4 Ag 0.0000904
  LUNO+2 :    4B1u 0.0000008
  LUNO+3 :    5 Ag 0.0000007

Computation Completed

Properties will be evaluated at   0.000000,   0.000000,   0.000000 [a0]

Properties computed using the B3LYP density matrix

 Multipole Moments:

 ------------------------------------------------------------------------------------
     Multipole            Electronic (a.u.)      Nuclear  (a.u.)        Total (a.u.)
 ------------------------------------------------------------------------------------

 L = 1.  Multiply by 2.5417464519 to convert [e a0] to [Debye]
 Dipole X            :          0.0000000            0.0000000            0.0000000
 Dipole Y            :          0.0000000            0.0000000            0.0000000
 Dipole Z            :          0.0000000           -0.0000000           -0.0000000
 Magnitude           :                                                    0.0000000

 L = 2.  Multiply by 1.3450342976 to convert [e a0^2] to [Debye ang]
 Quadrupole XX       :         -6.5062331            0.0000000           -6.5062331
 Quadrupole XY       :          0.0000000            0.0000000            0.0000000
 Quadrupole XZ       :          0.0000000            0.0000000            0.0000000
 Quadrupole YY       :         -6.5062331            0.0000000           -6.5062331
 Quadrupole YZ       :          0.0000000            0.0000000            0.0000000
 Quadrupole ZZ       :        -28.3057780           23.3647522           -4.9410258
 Traceless XX        :          7.2665150           -7.7882507           -0.5217358
 Traceless YY        :          7.2665150           -7.7882507           -0.5217358
 Traceless ZZ        :        -14.5330300           15.5765015            1.0434715

 ------------------------------------------------------------------------------------
  ==> Computing MBIS Charges <==

  Electron Count from Grid (Expected Number): 11.00000 (11.00000)
  Difference:  0.00000

  MBIS Charges: (a.u.)
   Center  Symbol  Z      Pop.       Charge
      1       C    6    5.500000    0.500000
      2       C    6    5.500000    0.500000

  MBIS Dipoles: [e a0]
   Center  Symbol  Z        X           Y           Z
      1       C    6   -0.000000   -0.000000   -0.090052
      2       C    6   -0.000000    0.000000    0.090052

  MBIS Quadrupoles: [e a0^2]
   Center  Symbol  Z      XX        XY        XZ        YY        YZ        ZZ
      1       C    6   -3.2531   -0.0000    0.0000   -3.2531   -0.0000   -3.6954
      2       C    6   -3.2531   -0.0000   -0.0000   -3.2531   -0.0000   -3.6954

  MBIS Octupoles: [e a0^3]
   Center  Symbol  Z      XXX       XXY       XXZ       XYY       XYZ       XZZ       YYY       YYZ       YZZ       ZZZ
      1       C    6   -0.0000   -0.0000   -0.0997   -0.0000    0.0000   -0.0000    0.0000   -0.0997   -0.0000   -0.3876
      2       C    6   -0.0000   -0.0000    0.0997   -0.0000   -0.0000   -0.0000    0.0000    0.0997    0.0000    0.3876

  MBIS Radial Moments:
   Center  Symbol  Z      [a0^2]      [a0^3]      [a0^4]
      1       C    6   10.201590   22.463303   58.881308
      2       C    6   10.201590   22.463303   58.881308

  MBIS Valence Widths: [a0]
   Center  Symbol  Z     Width
      1       C    6    0.475663
      2       C    6    0.475663

*** tstop() called on Mac.lan at Sun Aug 10 18:22:35 2025
Module time:
	user time   =      14.23 seconds =       0.24 minutes
	system time =       2.27 seconds =       0.04 minutes
	total time  =          1 seconds =       0.02 minutes
Total time:
	user time   =      26.53 seconds =       0.44 minutes
	system time =       3.20 seconds =       0.05 minutes
	total time  =          3 seconds =       0.05 minutes

    Psi4 stopped on: Sunday, 10 August 2025 06:22PM
    Psi4 wall time for execution: 0:00:02.96

*** Psi4 exiting successfully. Buy a developer a beer!
