                               Psi4 1.9.1 release

  ==> Input File <==

--------------------------------------------------------------------------
molecule {
1 2
N           0.000000           0.000000           0.000000
N           0.000000           0.000000           0.703448
}

set {
basis              cc-pvtz
reference          uks
maxiter            500
DAMPING_PERCENTAGE 1
E_CONVERGENCE      1.0E-8
D_CONVERGENCE      1.0E-8
DIIS_MAX_VECS      400
MBIS_MAXITER       8000
guess              read
}

E, wfn = energy('b3lyp', restart_file='last_wfn', return_wfn=True)
properties('b3lyp','MBIS_CHARGES', wfn=wfn)
wfn.to_file('last_wfn')
--------------------------------------------------------------------------

    Molecular point group: d2h
  Charge       = 1
  Multiplicity = 2
  Basis Set: CC-PVTZ
    Blend: CC-PVTZ
  Basis Set: (CC-PVTZ AUX)
    Blend: CC-PVTZ-JKFIT
  @DF-UKS Final Energy:  -107.74094404372886
    Total Energy =                       -107.7409440437288595
 Dipole X            :          0.0000000            0.0000000            0.0000000
 Dipole Y            :          0.0000000            0.0000000            0.0000000
 Dipole Z            :          0.0000000            0.0000000            0.0000000
 Magnitude           :                                                    0.0000000
    Molecular point group: d2h

    Geometry (in Angstrom), charge = 1, multiplicity = 2:

       Center              X                  Y                   Z               Mass
    ------------   -----------------  -----------------  -----------------  -----------------
         N            0.000000000000     0.000000000000    -0.351724000000    14.003074004430
         N            0.000000000000     0.000000000000     0.351724000000    14.003074004430

  Charge       = 1
  Multiplicity = 2
  Basis Set: CC-PVTZ
    Blend: CC-PVTZ
  Basis Set: (CC-PVTZ AUX)
    Blend: CC-PVTZ-JKFIT

    Orbital Energies [Eh]
    ---------------------

    Alpha Occupied:

       1Ag   -14.931129     1B1u  -14.844903     2Ag    -1.760870
       1B3u   -1.149218     1B2u   -1.149218     3Ag    -0.960688
       2B1u   -0.918975

    Alpha Virtual:

       1B2g   -0.200791     1B3g   -0.200791     2B2u   -0.000636
       2B3u   -0.000636     3B1u    0.016708     4Ag     0.059445
       5Ag     0.154589     2B2g    0.293329     2B3g    0.293329
       1B1g    0.439557     6Ag     0.439557     4B1u    0.540894
       3B2u    0.942173     3B3u    0.942173     5B1u    1.021494
       1Au     1.027067     6B1u    1.027067     7Ag     1.133042
       3B2g    1.346604     3B3g    1.346604     4B2u    2.050348
       4B3u    2.050348     7B1u    2.679613     8Ag     2.785422
       5B2u    3.022609     5B3u    3.022609     4B3g    3.056530
       4B2g    3.056530     9Ag     3.151599     2B1g    3.151599
       8B1u    3.265078     6B2u    3.566742     6B3u    3.566742
      10Ag     3.772663     2Au     3.830700     9B1u    3.830700
       5B3g    4.026500     5B2g    4.026500     6B3g    4.034958
       6B2g    4.034958     3B1g    4.083616    11Ag     4.083616
      12Ag     4.291173    10B1u    4.872907     7B2u    5.429718
       7B3u    5.429718    11B1u    5.778057     3Au     5.778057
       7B3g    7.587916     7B2g    7.587916    12B1u    7.795826
      13Ag     8.342795    13B1u   28.014626

    Beta Occupied:

       1Ag   -14.913996     1B1u  -14.830086     2Ag    -1.723696
       1B3u   -1.133241     1B2u   -1.133241     2B1u   -0.823965

    Beta Virtual:

       3Ag    -0.771834     1B2g   -0.175034     1B3g   -0.175034
       2B2u    0.004591     2B3u    0.004591     3B1u    0.029598
       4Ag     0.077869     5Ag     0.182726     2B2g    0.304828
       2B3g    0.304828     1B1g    0.446963     6Ag     0.446963
       4B1u    0.564087     3B2u    0.972371     3B3u    0.972371
       1Au     1.040334     5B1u    1.040334     6B1u    1.049506
       7Ag     1.170236     3B2g    1.364406     3B3g    1.364406
       4B2u    2.062869     4B3u    2.062869     7B1u    2.760642
       8Ag     2.817439     5B2u    3.028665     5B3u    3.028665
       4B3g    3.072313     4B2g    3.072313     9Ag     3.156256
       2B1g    3.156256     8B1u    3.282756     6B2u    3.627554
       6B3u    3.627554    10Ag     3.843846     2Au     3.864095
       9B1u    3.864096     5B3g    4.048634     5B2g    4.048634
       6B3g    4.077702     6B2g    4.077702     3B1g    4.117071
      11Ag     4.117071    12Ag     4.335059    10B1u    4.923736
       7B2u    5.466098     7B3u    5.466098    11B1u    5.792611
       3Au     5.792611     7B3g    7.629431     7B2g    7.629431
      12B1u    7.856096    13Ag     8.375779    13B1u   28.038189

    Final Occupation by Irrep:
             Ag   B1g   B2g   B3g    Au   B1u   B2u   B3u
    DOCC [     2,    0,    0,    0,    0,    2,    1,    1 ]
    SOCC [     1,    0,    0,    0,    0,    0,    0,    0 ]
    NA   [     3,    0,    0,    0,    0,    2,    1,    1 ]
    NB   [     2,    0,    0,    0,    0,    2,    1,    1 ]

  @DF-UKS Final Energy:  -107.74094404354490

   => Energetics <=

    Nuclear Repulsion Energy =             36.8608387867049245
    One-Electron Energy =                -210.7531478498549404
    Two-Electron Energy =                  77.5400760786752556
    DFT Exchange-Correlation Energy =     -11.3887110590701504
    Empirical Dispersion Energy =           0.0000000000000000
    VV10 Nonlocal Energy =                  0.0000000000000000
    Total Energy =                       -107.7409440435449000

  UHF NO Occupations:
  HONO-2 :    2 Ag 1.9999066
  HONO-1 :    2B1u 1.9991993
  HONO-0 :    3 Ag 1.0000000
  LUNO+0 :    3B1u 0.0008007
  LUNO+1 :    4 Ag 0.0000934
  LUNO+2 :    2B3u 0.0000371
  LUNO+3 :    2B2u 0.0000371

Computation Completed

Properties will be evaluated at   0.000000,   0.000000,   0.000000 [a0]

Properties computed using the B3LYP density matrix

 Multipole Moments:

 ------------------------------------------------------------------------------------
     Multipole            Electronic (a.u.)      Nuclear  (a.u.)        Total (a.u.)
 ------------------------------------------------------------------------------------

 L = 1.  Multiply by 2.5417464519 to convert [e a0] to [Debye]
 Dipole X            :          0.0000000            0.0000000            0.0000000
 Dipole Y            :          0.0000000            0.0000000            0.0000000
 Dipole Z            :          0.0000000            0.0000000            0.0000000
 Magnitude           :                                                    0.0000000

 L = 2.  Multiply by 1.3450342976 to convert [e a0^2] to [Debye ang]
 Quadrupole XX       :         -5.0992721            0.0000000           -5.0992721
 Quadrupole XY       :          0.0000000            0.0000000            0.0000000
 Quadrupole XZ       :          0.0000000            0.0000000            0.0000000
 Quadrupole YY       :         -5.0992721            0.0000000           -5.0992721
 Quadrupole YZ       :          0.0000000            0.0000000            0.0000000
 Quadrupole ZZ       :        -11.3097816            6.1848586           -5.1249229
 Traceless XX        :          2.0701698           -2.0616195            0.0085503
 Traceless YY        :          2.0701698           -2.0616195            0.0085503
 Traceless ZZ        :         -4.1403397            4.1232391           -0.0171006

 ------------------------------------------------------------------------------------
  ==> Computing MBIS Charges <==

  Electron Count from Grid (Expected Number): 13.00000 (13.00000)
  Difference: -0.00000

  MBIS Charges: (a.u.)
   Center  Symbol  Z      Pop.       Charge
      1       N    7    6.499999    0.500001
      2       N    7    6.499999    0.500001

  MBIS Dipoles: [e a0]
   Center  Symbol  Z        X           Y           Z
      1       N    7    0.000000    0.000000   -0.075413
      2       N    7   -0.000000   -0.000000    0.075413

  MBIS Quadrupoles: [e a0^2]
   Center  Symbol  Z      XX        XY        XZ        YY        YZ        ZZ
      1       N    7   -2.5496   -0.0000   -0.0000   -2.5496   -0.0000   -2.8836
      2       N    7   -2.5496   -0.0000    0.0000   -2.5496    0.0000   -2.8836

  MBIS Octupoles: [e a0^3]
   Center  Symbol  Z      XXX       XXY       XXZ       XYY       XYZ       XZZ       YYY       YYZ       YZZ       ZZZ
      1       N    7    0.0000   -0.0000    0.0416    0.0000   -0.0000    0.0000   -0.0000    0.0416    0.0000    0.2445
      2       N    7    0.0000    0.0000   -0.0416    0.0000    0.0000    0.0000   -0.0000   -0.0416    0.0000   -0.2445

  MBIS Radial Moments:
   Center  Symbol  Z      [a0^2]      [a0^3]      [a0^4]
      1       N    7    7.982869   14.105128   29.989247
      2       N    7    7.982869   14.105128   29.989247

  MBIS Valence Widths: [a0]
   Center  Symbol  Z     Width
      1       N    7    0.368350
      2       N    7    0.368350

*** tstop() called on Mac.lan at Sun Aug 10 18:24:54 2025
Module time:
	user time   =       3.90 seconds =       0.06 minutes
	system time =       2.35 seconds =       0.04 minutes
	total time  =          1 seconds =       0.02 minutes
Total time:
	user time   =      15.88 seconds =       0.26 minutes
	system time =       4.72 seconds =       0.08 minutes
	total time  =          2 seconds =       0.03 minutes

    Psi4 stopped on: Sunday, 10 August 2025 06:24PM
    Psi4 wall time for execution: 0:00:02.00

*** Psi4 exiting successfully. Buy a developer a beer!
