                               Psi4 1.9.1 release

  ==> Input File <==

--------------------------------------------------------------------------
molecule {
1 1
O           0.000000           0.000000           0.000000
N           0.000000           0.000000           1.003317
}

set {
basis              cc-pvtz
reference          uks
maxiter            500
DAMPING_PERCENTAGE 1
E_CONVERGENCE      1.0E-8
D_CONVERGENCE      1.0E-8
DIIS_MAX_VECS      400
MBIS_MAXITER       8000
guess              read
}

E, wfn = energy('b3lyp', restart_file='last_wfn', return_wfn=True)
properties('b3lyp','MBIS_CHARGES', wfn=wfn)
wfn.to_file('last_wfn')
--------------------------------------------------------------------------

    Molecular point group: c2v
  Charge       = 1
  Multiplicity = 1
  Basis Set: CC-PVTZ
    Blend: CC-PVTZ
  Basis Set: (CC-PVTZ AUX)
    Blend: CC-PVTZ-JKFIT
  @DF-UKS Final Energy:  -129.57598966374186
    Total Energy =                       -129.5759896637418649
 Dipole X            :          0.0000000            0.0000000            0.0000000
 Dipole Y            :          0.0000000            0.0000000            0.0000000
 Dipole Z            :          0.1092085           -0.0038042            0.1054042
 Magnitude           :                                                    0.1054042
    Molecular point group: c2v

    Geometry (in Angstrom), charge = 1, multiplicity = 1:

       Center              X                  Y                   Z               Mass
    ------------   -----------------  -----------------  -----------------  -----------------
         O            0.000000000000     0.000000000000    -0.468348807548    15.994914619570
         N            0.000000000000     0.000000000000     0.534968192452    14.003074004430

  Charge       = 1
  Multiplicity = 1
  Basis Set: CC-PVTZ
    Blend: CC-PVTZ
  Basis Set: (CC-PVTZ AUX)
    Blend: CC-PVTZ-JKFIT

    Orbital Energies [Eh]
    ---------------------

    Alpha Occupied:

       1A1   -19.766417     2A1   -14.944470     3A1    -1.837010
       4A1    -1.090561     1B1    -1.021079     1B2    -1.021079
       5A1    -0.922540

    Alpha Virtual:

       2B1    -0.464346     2B2    -0.464346     6A1    -0.057159
       3B1     0.073441     3B2     0.073441     7A1     0.122340
       8A1     0.196818     4B1     0.285617     4B2     0.285617
       9A1     0.376945    10A1     0.519833     1A2     0.519833
       5B2     0.819694     5B1     0.819694    11A1     0.832516
       2A2     1.178818    12A1     1.178818    13A1     1.411580
       6B1     1.676553     6B2     1.676553    14A1     1.915033
       7B1     2.374405     7B2     2.374405    15A1     2.693302
       8B2     3.231353     8B1     3.231353    16A1     3.262024
       9B2     3.326194     9B1     3.326194    17A1     3.377603
       3A2     3.377603    10B1     3.656987    10B2     3.656987
      18A1     3.931298     4A2     3.931298    19A1     4.092773
      11B1     4.363898    11B2     4.363898    12B2     4.650886
      12B1     4.650886    20A1     4.826356     5A2     5.412429
      21A1     5.412429     6A2     5.713702    22A1     5.713707
      13B1     6.099504    13B2     6.099504    23A1     6.203482
      24A1     6.683123    14B1     7.026677    14B2     7.026677
      25A1     7.440644    26A1    17.165266

    Beta Occupied:

       1A1   -19.766417     2A1   -14.944470     3A1    -1.837010
       4A1    -1.090561     1B1    -1.021079     1B2    -1.021079
       5A1    -0.922540

    Beta Virtual:

       2B1    -0.464346     2B2    -0.464346     6A1    -0.057159
       3B1     0.073441     3B2     0.073441     7A1     0.122340
       8A1     0.196818     4B1     0.285617     4B2     0.285617
       9A1     0.376945    10A1     0.519833     1A2     0.519833
       5B2     0.819694     5B1     0.819694    11A1     0.832516
       2A2     1.178818    12A1     1.178818    13A1     1.411580
       6B1     1.676553     6B2     1.676553    14A1     1.915033
       7B1     2.374405     7B2     2.374405    15A1     2.693302
       8B2     3.231353     8B1     3.231353    16A1     3.262024
       9B2     3.326194     9B1     3.326194    17A1     3.377603
       3A2     3.377603    10B1     3.656987    10B2     3.656987
      18A1     3.931298     4A2     3.931298    19A1     4.092773
      11B1     4.363898    11B2     4.363898    12B2     4.650886
      12B1     4.650886    20A1     4.826356     5A2     5.412429
      21A1     5.412429     6A2     5.713702    22A1     5.713707
      13B1     6.099504    13B2     6.099504    23A1     6.203482
      24A1     6.683123    14B1     7.026677    14B2     7.026677
      25A1     7.440644    26A1    17.165266

    Final Occupation by Irrep:
             A1    A2    B1    B2
    DOCC [     5,    0,    1,    1 ]
    SOCC [     0,    0,    0,    0 ]
    NA   [     5,    0,    1,    1 ]
    NB   [     5,    0,    1,    1 ]

  @DF-UKS Final Energy:  -129.57598966411791

   => Energetics <=

    Nuclear Repulsion Energy =             29.5359530412820703
    One-Electron Energy =                -228.2559182221980336
    Two-Electron Energy =                  81.3345380925870529
    DFT Exchange-Correlation Energy =     -12.1905625757890110
    Empirical Dispersion Energy =           0.0000000000000000
    VV10 Nonlocal Energy =                  0.0000000000000000
    Total Energy =                       -129.5759896641179125

  UHF NO Occupations:
  HONO-2 :    3 A1 2.0000000
  HONO-1 :    4 A1 2.0000000
  HONO-0 :    5 A1 2.0000000
  LUNO+0 :    6 A1 0.0000000
  LUNO+1 :    7 A1 0.0000000
  LUNO+2 :    8 A1 0.0000000
  LUNO+3 :    9 A1 0.0000000

Computation Completed

Properties will be evaluated at   0.000000,   0.000000,   0.000000 [a0]

Properties computed using the B3LYP density matrix

 Multipole Moments:

 ------------------------------------------------------------------------------------
     Multipole            Electronic (a.u.)      Nuclear  (a.u.)        Total (a.u.)
 ------------------------------------------------------------------------------------

 L = 1.  Multiply by 2.5417464519 to convert [e a0] to [Debye]
 Dipole X            :          0.0000000            0.0000000            0.0000000
 Dipole Y            :          0.0000000            0.0000000            0.0000000
 Dipole Z            :          0.1092084           -0.0038042            0.1054042
 Magnitude           :                                                    0.1054042

 L = 2.  Multiply by 1.3450342976 to convert [e a0^2] to [Debye ang]
 Quadrupole XX       :         -5.7096774            0.0000000           -5.7096774
 Quadrupole XY       :          0.0000000            0.0000000            0.0000000
 Quadrupole XZ       :          0.0000000            0.0000000            0.0000000
 Quadrupole YY       :         -5.7096774            0.0000000           -5.7096774
 Quadrupole YZ       :          0.0000000            0.0000000            0.0000000
 Quadrupole ZZ       :        -18.9214142           13.4205673           -5.5008469
 Traceless XX        :          4.4039123           -4.4735224           -0.0696102
 Traceless YY        :          4.4039123           -4.4735224           -0.0696102
 Traceless ZZ        :         -8.8078245            8.9470449            0.1392204

 ------------------------------------------------------------------------------------
  ==> Computing MBIS Charges <==

  Electron Count from Grid (Expected Number): 14.00000 (14.00000)
  Difference:  0.00000

  MBIS Charges: (a.u.)
   Center  Symbol  Z      Pop.       Charge
      1       O    8    7.606293    0.393707
      2       N    7    6.393707    0.606293

  MBIS Dipoles: [e a0]
   Center  Symbol  Z        X           Y           Z
      1       O    8   -0.000000    0.000000   -0.072366
      2       N    7   -0.000000    0.000000   -0.086706

  MBIS Quadrupoles: [e a0^2]
   Center  Symbol  Z      XX        XY        XZ        YY        YZ        ZZ
      1       O    8   -2.8828   -0.0000   -0.0000   -2.8828    0.0000   -3.1204
      2       N    7   -2.8269   -0.0000   -0.0000   -2.8269   -0.0000   -3.2613

  MBIS Octupoles: [e a0^3]
   Center  Symbol  Z      XXX       XXY       XXZ       XYY       XYZ       XZZ       YYY       YYZ       YZZ       ZZZ
      1       O    8    0.0000   -0.0000   -0.0396    0.0000   -0.0000    0.0000   -0.0000   -0.0396   -0.0000   -0.1169
      2       N    7    0.0000   -0.0000   -0.0271   -0.0000    0.0000    0.0000   -0.0000   -0.0271   -0.0000   -0.1400

  MBIS Radial Moments:
   Center  Symbol  Z      [a0^2]      [a0^3]      [a0^4]
      1       O    8    8.885902   14.954924   30.150760
      2       N    7    8.915116   16.703899   37.346638

  MBIS Valence Widths: [a0]
   Center  Symbol  Z     Width
      1       O    8    0.353389
      2       N    7    0.397419

*** tstop() called on Mac.lan at Sun Aug 10 18:40:01 2025
Module time:
	user time   =       8.98 seconds =       0.15 minutes
	system time =       2.83 seconds =       0.05 minutes
	total time  =          2 seconds =       0.03 minutes
Total time:
	user time   =      58.57 seconds =       0.98 minutes
	system time =       9.57 seconds =       0.16 minutes
	total time  =          8 seconds =       0.13 minutes

    Psi4 stopped on: Sunday, 10 August 2025 06:40PM
    Psi4 wall time for execution: 0:00:07.36

*** Psi4 exiting successfully. Buy a developer a beer!
