                               Psi4 1.9.1 release

  ==> Input File <==

--------------------------------------------------------------------------
molecule {
1 2
O           0.000000           0.000000           0.000000
O           0.000000           0.000000           0.948269
}

set {
basis              cc-pvtz
reference          uks
maxiter            500
DAMPING_PERCENTAGE 1
E_CONVERGENCE      1.0E-8
D_CONVERGENCE      1.0E-8
DIIS_MAX_VECS      400
MBIS_MAXITER       8000
guess              read
}

E, wfn = energy('b3lyp', restart_file='last_wfn', return_wfn=True)
properties('b3lyp','MBIS_CHARGES', wfn=wfn)
wfn.to_file('last_wfn')
--------------------------------------------------------------------------

    Molecular point group: d2h
  Charge       = 1
  Multiplicity = 2
  Basis Set: CC-PVTZ
    Blend: CC-PVTZ
  Basis Set: (CC-PVTZ AUX)
    Blend: CC-PVTZ-JKFIT
  @DF-UKS Final Energy:  -149.83445911617594
    Total Energy =                       -149.8344591161759922
 Dipole X            :          0.0000000            0.0000000            0.0000000
 Dipole Y            :          0.0000000            0.0000000            0.0000000
 Dipole Z            :          0.0000000            0.0000000            0.0000000
 Magnitude           :                                                    0.0000000
    Molecular point group: d2h

    Geometry (in Angstrom), charge = 1, multiplicity = 2:

       Center              X                  Y                   Z               Mass
    ------------   -----------------  -----------------  -----------------  -----------------
         O            0.000000000000     0.000000000000    -0.474134500000    15.994914619570
         O            0.000000000000     0.000000000000     0.474134500000    15.994914619570

  Charge       = 1
  Multiplicity = 2
  Basis Set: CC-PVTZ
    Blend: CC-PVTZ
  Basis Set: (CC-PVTZ AUX)
    Blend: CC-PVTZ-JKFIT

    Orbital Energies [Eh]
    ---------------------

    Alpha Occupied:

       1Ag   -19.803581     1B1u  -19.801258     2Ag    -2.063977
       2B1u   -1.207349     1B3u   -1.164555     1B2u   -1.133717
       3Ag    -1.057273     1B2g   -0.658400

    Alpha Virtual:

       1B3g   -0.529524     3B1u    0.033644     2B2u    0.108848
       2B3u    0.109747     4Ag     0.175706     5Ag     0.255141
       2B2g    0.294863     2B3g    0.304846     4B1u    0.413893
       1B1g    0.711160     6Ag     0.712453     5B1u    0.819854
       3B3u    1.047766     3B2u    1.048753     1Au     1.307053
       6B1u    1.308860     7Ag     1.775816     3B2g    1.862681
       3B3g    1.867437     7B1u    2.033508     4B3u    2.939473
       4B2u    2.953830     8Ag     3.291981     4B2g    3.434510
       4B3g    3.445729     8B1u    3.953275     2B1g    4.065503
       9Ag     4.066741     5B3u    4.214233     5B2u    4.214457
       6B2u    4.332291     6B3u    4.337065     5B2g    4.864632
       5B3g    4.864932    10Ag     4.878667     3B1g    5.505659
      11Ag     5.509639     6B2g    5.605920     6B3g    5.612491
       9B1u    5.643312     2Au     5.690279    10B1u    5.694802
       3Au     5.979093    11B1u    5.980714    12Ag     6.284069
       7B3u    6.301002     7B2u    6.302035    12B1u    7.185811
       7B3g    7.997720     7B2g    7.998093    13Ag     8.134793
      13B1u   21.296081

    Beta Occupied:

       1Ag   -19.787264     1B1u  -19.784805     2Ag    -2.041452
       2B1u   -1.161222     1B2u   -1.120471     1B3u   -1.074279
       3Ag    -1.030962

    Beta Virtual:

       1B3g   -0.511470     1B2g   -0.462992     3B1u    0.042395
       2B2u    0.112157     2B3u    0.131364     4Ag     0.177538
       5Ag     0.268377     2B3g    0.310231     2B2g    0.329730
       4B1u    0.436236     1B1g    0.731932     6Ag     0.732156
       5B1u    0.836009     3B2u    1.052100     3B3u    1.083508
       1Au     1.341601     6B1u    1.341691     7Ag     1.788095
       3B3g    1.872283     3B2g    1.898254     7B1u    2.047748
       4B2u    2.965229     4B3u    3.005094     8Ag     3.303966
       4B3g    3.457841     4B2g    3.499676     8B1u    3.976395
       2B1g    4.083676     9Ag     4.084041     5B2u    4.247192
       5B3u    4.247372     6B2u    4.337026     6B3u    4.371066
      10Ag     4.893655     5B3g    4.905003     5B2g    4.905025
      11Ag     5.563989     3B1g    5.564097     6B3g    5.617540
       6B2g    5.652237     9B1u    5.661234     2Au     5.750367
      10B1u    5.751583     3Au     6.006560    11B1u    6.007834
       7B2u    6.307473    12Ag     6.310892     7B3u    6.346122
      12B1u    7.204340     7B3g    8.003728     7B2g    8.041148
      13Ag     8.153602    13B1u   21.318018

    Final Occupation by Irrep:
             Ag   B1g   B2g   B3g    Au   B1u   B2u   B3u
    DOCC [     3,    0,    0,    0,    0,    2,    1,    1 ]
    SOCC [     0,    0,    1,    0,    0,    0,    0,    0 ]
    NA   [     3,    0,    1,    0,    0,    2,    1,    1 ]
    NB   [     3,    0,    0,    0,    0,    2,    1,    1 ]

  @DF-UKS Final Energy:  -149.83445911709092

   => Energetics <=

    Nuclear Repulsion Energy =             35.7149094643819396
    One-Electron Energy =                -268.4236594539817702
    Two-Electron Energy =                  96.5048669675363726
    DFT Exchange-Correlation Energy =     -13.6305760950274717
    Empirical Dispersion Energy =           0.0000000000000000
    VV10 Nonlocal Energy =                  0.0000000000000000
    Total Energy =                       -149.8344591170909155

  UHF NO Occupations:
  HONO-2 :    2B1u 1.9997553
  HONO-1 :    1B3u 1.9994599
  HONO-0 :    1B2g 1.0000000
  LUNO+0 :    2B3u 0.0005401
  LUNO+1 :    3B1u 0.0002447
  LUNO+2 :    4 Ag 0.0001402
  LUNO+3 :    2B2u 0.0000225

Computation Completed

Properties will be evaluated at   0.000000,   0.000000,   0.000000 [a0]

Properties computed using the B3LYP density matrix

 Multipole Moments:

 ------------------------------------------------------------------------------------
     Multipole            Electronic (a.u.)      Nuclear  (a.u.)        Total (a.u.)
 ------------------------------------------------------------------------------------

 L = 1.  Multiply by 2.5417464519 to convert [e a0] to [Debye]
 Dipole X            :          0.0000000            0.0000000            0.0000000
 Dipole Y            :          0.0000000            0.0000000            0.0000000
 Dipole Z            :          0.0000000            0.0000000            0.0000000
 Magnitude           :                                                    0.0000000

 L = 2.  Multiply by 1.3450342976 to convert [e a0^2] to [Debye ang]
 Quadrupole XX       :         -5.8948101            0.0000000           -5.8948101
 Quadrupole XY       :          0.0000000            0.0000000            0.0000000
 Quadrupole XZ       :          0.0000000            0.0000000            0.0000000
 Quadrupole YY       :         -5.3233313            0.0000000           -5.3233313
 Quadrupole YZ       :          0.0000000            0.0000000            0.0000000
 Quadrupole ZZ       :        -18.2534654           12.8446073           -5.4088581
 Traceless XX        :          3.9290588           -4.2815358           -0.3524769
 Traceless YY        :          4.5005376           -4.2815358            0.2190018
 Traceless ZZ        :         -8.4295965            8.5630716            0.1334751

 ------------------------------------------------------------------------------------
  ==> Computing MBIS Charges <==

  Electron Count from Grid (Expected Number): 15.00000 (15.00000)
  Difference: -0.00000

  MBIS Charges: (a.u.)
   Center  Symbol  Z      Pop.       Charge
      1       O    8    7.500000    0.500000
      2       O    8    7.500000    0.500000

  MBIS Dipoles: [e a0]
   Center  Symbol  Z        X           Y           Z
      1       O    8    0.000000   -0.000000    0.053189
      2       O    8    0.000000    0.000000   -0.053189

  MBIS Quadrupoles: [e a0^2]
   Center  Symbol  Z      XX        XY        XZ        YY        YZ        ZZ
      1       O    8   -2.9474   -0.0000    0.0000   -2.6617   -0.0000   -3.0105
      2       O    8   -2.9474   -0.0000   -0.0000   -2.6617    0.0000   -3.0105

  MBIS Octupoles: [e a0^3]
   Center  Symbol  Z      XXX       XXY       XXZ       XYY       XYZ       XZZ       YYY       YYZ       YZZ       ZZZ
      1       O    8    0.0000   -0.0000    0.1192   -0.0000   -0.0000   -0.0000    0.0000    0.0238   -0.0000   -0.0286
      2       O    8    0.0000   -0.0000   -0.1192    0.0000    0.0000   -0.0000    0.0000   -0.0238   -0.0000    0.0286

  MBIS Radial Moments:
   Center  Symbol  Z      [a0^2]      [a0^3]      [a0^4]
      1       O    8    8.619580   14.484818   29.239014
      2       O    8    8.619580   14.484818   29.239014

  MBIS Valence Widths: [a0]
   Center  Symbol  Z     Width
      1       O    8    0.350647
      2       O    8    0.350647

*** tstop() called on Mac.lan at Sun Aug 10 18:12:47 2025
Module time:
	user time   =       3.97 seconds =       0.07 minutes
	system time =       2.19 seconds =       0.04 minutes
	total time  =          1 seconds =       0.02 minutes
Total time:
	user time   =      14.93 seconds =       0.25 minutes
	system time =       4.08 seconds =       0.07 minutes
	total time  =          2 seconds =       0.03 minutes

    Psi4 stopped on: Sunday, 10 August 2025 06:12PM
    Psi4 wall time for execution: 0:00:01.86

*** Psi4 exiting successfully. Buy a developer a beer!
