                               Psi4 1.9.1 release

  ==> Input File <==

--------------------------------------------------------------------------
molecule {
1 1
C           0.000000           0.000000           0.000000
H           0.000000           0.000000           1.538045
}

set {
basis              cc-pvtz
reference          uks
maxiter            500
DAMPING_PERCENTAGE 1
E_CONVERGENCE      1.0E-8
D_CONVERGENCE      1.0E-8
DIIS_MAX_VECS      400
MBIS_MAXITER       8000
guess              read
}

E, wfn = energy('b3lyp', restart_file='last_wfn', return_wfn=True)
properties('b3lyp','MBIS_CHARGES', wfn=wfn)
wfn.to_file('last_wfn')
--------------------------------------------------------------------------

    Molecular point group: c2v
  Charge       = 1
  Multiplicity = 1
  Basis Set: CC-PVTZ
    Blend: CC-PVTZ
  Basis Set: (CC-PVTZ AUX)
    Blend: CC-PVTZ-JKFIT
  @DF-UKS Final Energy:   -38.05163083015042
    Total Energy =                        -38.0516308301504154
 Dipole X            :          0.0000000            0.0000000            0.0000000
 Dipole Y            :          0.0000000            0.0000000            0.0000000
 Dipole Z            :         -0.5449560            1.3301565            0.7852005
 Magnitude           :                                                    0.7852005
    Molecular point group: c2v

    Geometry (in Angstrom), charge = 1, multiplicity = 1:

       Center              X                  Y                   Z               Mass
    ------------   -----------------  -----------------  -----------------  -----------------
         C            0.000000000000     0.000000000000    -0.119165213851    12.000000000000
         H            0.000000000000     0.000000000000     1.418879786149     1.007825032230

  Charge       = 1
  Multiplicity = 1
  Basis Set: CC-PVTZ
    Blend: CC-PVTZ
  Basis Set: (CC-PVTZ AUX)
    Blend: CC-PVTZ-JKFIT

    Orbital Energies [Eh]
    ---------------------

    Alpha Occupied:

       1A1   -10.804592     2A1    -0.972001     3A1    -0.681911

    Alpha Virtual:

       1B2    -0.530281     1B1    -0.530281     4A1    -0.342292
       5A1    -0.010696     2B1     0.011212     2B2     0.011212
       6A1     0.038196     7A1     0.156305     3B1     0.218457
       3B2     0.218457     8A1     0.332065     1A2     0.332065
       9A1     0.511178     4B2     0.604853     4B1     0.604853
      10A1     0.885365     5B1     1.523452     5B2     1.523452
      11A1     1.698112    12A1     2.089939     6B1     2.171186
       6B2     2.171186    13A1     2.219332     2A2     2.225064
      14A1     2.225064     7B1     2.262303     7B2     2.262303
       3A2     2.494731    15A1     2.494731     8B1     2.572110
       8B2     2.572110    16A1     2.821093    17A1     2.934999
       4A2     2.935001    18A1     3.210091     9B2     3.258828
       9B1     3.258828    10B1     3.576912    10B2     3.576912
      19A1     3.758457    20A1     5.004237

    Beta Occupied:

       1A1   -10.804592     2A1    -0.972001     3A1    -0.681911

    Beta Virtual:

       1B2    -0.530281     1B1    -0.530281     4A1    -0.342292
       5A1    -0.010696     2B1     0.011212     2B2     0.011212
       6A1     0.038196     7A1     0.156305     3B1     0.218457
       3B2     0.218457     8A1     0.332065     1A2     0.332065
       9A1     0.511178     4B2     0.604853     4B1     0.604853
      10A1     0.885365     5B1     1.523452     5B2     1.523452
      11A1     1.698112    12A1     2.089939     6B1     2.171186
       6B2     2.171186    13A1     2.219332     2A2     2.225064
      14A1     2.225064     7B1     2.262303     7B2     2.262303
       3A2     2.494731    15A1     2.494731     8B1     2.572110
       8B2     2.572110    16A1     2.821093    17A1     2.934999
       4A2     2.935001    18A1     3.210091     9B2     3.258828
       9B1     3.258828    10B1     3.576912    10B2     3.576912
      19A1     3.758457    20A1     5.004237

    Final Occupation by Irrep:
             A1    A2    B1    B2
    DOCC [     3,    0,    0,    0 ]
    SOCC [     0,    0,    0,    0 ]
    NA   [     3,    0,    0,    0 ]
    NB   [     3,    0,    0,    0 ]

  @DF-UKS Final Energy:   -38.05163083022450

   => Energetics <=

    Nuclear Repulsion Energy =              2.0643500443875178
    One-Electron Energy =                 -52.2862031042961348
    Two-Electron Energy =                  16.3576407608247543
    DFT Exchange-Correlation Energy =      -4.1874185311406462
    Empirical Dispersion Energy =           0.0000000000000000
    VV10 Nonlocal Energy =                  0.0000000000000000
    Total Energy =                        -38.0516308302245037

  UHF NO Occupations:
  HONO-2 :    1 A1 2.0000000
  HONO-1 :    2 A1 2.0000000
  HONO-0 :    3 A1 2.0000000
  LUNO+0 :    4 A1 0.0000000
  LUNO+1 :    5 A1 0.0000000
  LUNO+2 :    6 A1 0.0000000
  LUNO+3 :    7 A1 0.0000000

Computation Completed

Properties will be evaluated at   0.000000,   0.000000,   0.000000 [a0]

Properties computed using the B3LYP density matrix

 Multipole Moments:

 ------------------------------------------------------------------------------------
     Multipole            Electronic (a.u.)      Nuclear  (a.u.)        Total (a.u.)
 ------------------------------------------------------------------------------------

 L = 1.  Multiply by 2.5417464519 to convert [e a0] to [Debye]
 Dipole X            :          0.0000000            0.0000000            0.0000000
 Dipole Y            :          0.0000000            0.0000000            0.0000000
 Dipole Z            :         -0.5449560            1.3301565            0.7852005
 Magnitude           :                                                    0.7852005

 L = 2.  Multiply by 1.3450342976 to convert [e a0^2] to [Debye ang]
 Quadrupole XX       :         -3.1508811            0.0000000           -3.1508811
 Quadrupole XY       :          0.0000000            0.0000000            0.0000000
 Quadrupole XZ       :          0.0000000            0.0000000            0.0000000
 Quadrupole YY       :         -3.1508811            0.0000000           -3.1508811
 Quadrupole YZ       :          0.0000000            0.0000000            0.0000000
 Quadrupole ZZ       :         -9.5027404            7.4936008           -2.0091396
 Traceless XX        :          2.1172864           -2.4978669           -0.3805805
 Traceless YY        :          2.1172864           -2.4978669           -0.3805805
 Traceless ZZ        :         -4.2345729            4.9957339            0.7611610

 ------------------------------------------------------------------------------------
  ==> Computing MBIS Charges <==

  Electron Count from Grid (Expected Number):  6.00000 ( 6.00000)
  Difference: -0.00000

  MBIS Charges: (a.u.)
   Center  Symbol  Z      Pop.       Charge
      1       C    6    5.247001    0.752999
      2       H    1    0.752999    0.247001

  MBIS Dipoles: [e a0]
   Center  Symbol  Z        X           Y           Z
      1       C    6    0.000000   -0.000000    0.132345
      2       H    1   -0.000000    0.000000    0.160141

  MBIS Quadrupoles: [e a0^2]
   Center  Symbol  Z      XX        XY        XZ        YY        YZ        ZZ
      1       C    6   -2.6320   -0.0000    0.0000   -2.6320    0.0000   -4.0888
      2       H    1   -0.5189   -0.0000   -0.0000   -0.5189    0.0000   -0.5335

  MBIS Octupoles: [e a0^3]
   Center  Symbol  Z      XXX       XXY       XXZ       XYY       XYZ       XZZ       YYY       YYZ       YZZ       ZZZ
      1       C    6   -0.0000    0.0000    0.1357    0.0000    0.0000   -0.0000   -0.0000    0.1357   -0.0000    0.3226
      2       H    1   -0.0000    0.0000    0.0630   -0.0000   -0.0000   -0.0000    0.0000    0.0630    0.0000    0.2312

  MBIS Radial Moments:
   Center  Symbol  Z      [a0^2]      [a0^3]      [a0^4]
      1       C    6    9.352851   20.295800   52.371295
      2       H    1    1.571173    3.124779    7.384103

  MBIS Valence Widths: [a0]
   Center  Symbol  Z     Width
      1       C    6    0.472308
      2       H    1    0.426133

*** tstop() called on Mac.lan at Sun Aug 10 18:27:44 2025
Module time:
	user time   =       3.15 seconds =       0.05 minutes
	system time =       1.77 seconds =       0.03 minutes
	total time  =          1 seconds =       0.02 minutes
Total time:
	user time   =      11.56 seconds =       0.19 minutes
	system time =       3.87 seconds =       0.06 minutes
	total time  =          2 seconds =       0.03 minutes

    Psi4 stopped on: Sunday, 10 August 2025 06:27PM
    Psi4 wall time for execution: 0:00:01.51

*** Psi4 exiting successfully. Buy a developer a beer!
