                               Psi4 1.9.1 release

  ==> Input File <==

--------------------------------------------------------------------------
molecule {
1 4
C           0.000000           0.000000           0.000000
C           0.000000           0.000000           1.773680
}

set {
basis              cc-pvtz
reference          uks
maxiter            500
DAMPING_PERCENTAGE 1
E_CONVERGENCE      1.0E-8
D_CONVERGENCE      1.0E-8
DIIS_MAX_VECS      400
MBIS_MAXITER       8000
guess              read
}

E, wfn = energy('b3lyp', restart_file='last_wfn', return_wfn=True)
properties('b3lyp','MBIS_CHARGES', wfn=wfn)
wfn.to_file('last_wfn')
--------------------------------------------------------------------------

    Molecular point group: d2h
  Charge       = 1
  Multiplicity = 4
  Basis Set: CC-PVTZ
    Blend: CC-PVTZ
  Basis Set: (CC-PVTZ AUX)
    Blend: CC-PVTZ-JKFIT
  @DF-UKS Final Energy:   -75.45842889066529
    Total Energy =                        -75.4584288906652887
 Dipole X            :          0.0000000            0.0000000            0.0000000
 Dipole Y            :          0.0000000            0.0000000            0.0000000
 Dipole Z            :          0.0000000            0.0000000            0.0000000
 Magnitude           :                                                    0.0000000
    Molecular point group: d2h

    Geometry (in Angstrom), charge = 1, multiplicity = 4:

       Center              X                  Y                   Z               Mass
    ------------   -----------------  -----------------  -----------------  -----------------
         C            0.000000000000     0.000000000000    -0.886840000000    12.000000000000
         C            0.000000000000     0.000000000000     0.886840000000    12.000000000000

  Charge       = 1
  Multiplicity = 4
  Basis Set: CC-PVTZ
    Blend: CC-PVTZ
  Basis Set: (CC-PVTZ AUX)
    Blend: CC-PVTZ-JKFIT

    Orbital Energies [Eh]
    ---------------------

    Alpha Occupied:

       1Ag   -10.724624     1B1u  -10.724456     2Ag    -1.063279
       2B1u   -0.859873     3Ag    -0.677100     1B2u   -0.639067
       1B3u   -0.639067

    Alpha Virtual:

       1B3g   -0.472331     1B2g   -0.472331     3B1u   -0.290082
       4B1u    0.017090     2B3u    0.019985     2B2u    0.019985
       4Ag     0.043117     5Ag     0.054448     2B3g    0.094018
       2B2g    0.094018     6Ag     0.266751     1B1g    0.266751
       3B3u    0.279708     3B2u    0.279708     5B1u    0.339848
       6B1u    0.454903     1Au     0.454903     7Ag     0.685786
       3B2g    0.733347     3B3g    0.733347     7B1u    0.819275
       4B3u    1.509718     4B2u    1.509718     8Ag     1.570307
       4B2g    1.640316     4B3g    1.640316     5B3u    2.050749
       5B2u    2.050749     9Ag     2.071524    10Ag     2.085222
       2B1g    2.085223     8B1u    2.092956     6B2u    2.250983
       6B3u    2.250983     5B3g    2.335310     5B2g    2.335310
       9B1u    2.491577     2Au     2.491580    11Ag     2.507466
       3B1g    2.507475     6B2g    2.635437     6B3g    2.635437
       7B3u    2.666156     7B2u    2.666156    10B1u    2.666348
       3Au     2.666355    11B1u    2.688537    12B1u    3.042680
      12Ag     3.079206     7B2g    3.243567     7B3g    3.243567
      13Ag     3.600398    13B1u    5.149955

    Beta Occupied:

       1Ag   -10.700464     1B1u  -10.700442     2Ag    -0.969852
       2B1u   -0.747426

    Beta Virtual:

       3Ag    -0.511321     1B2u   -0.491607     1B3u   -0.491607
       1B3g   -0.374259     1B2g   -0.374259     3B1u   -0.208022
       4B1u    0.048499     2B3u    0.049021     2B2u    0.049021
       4Ag     0.077176     5Ag     0.083885     2B3g    0.116720
       2B2g    0.116720     1B1g    0.315071     6Ag     0.315071
       3B3u    0.338499     3B2u    0.338499     5B1u    0.368924
       1Au     0.499521     6B1u    0.499521     7Ag     0.744835
       3B2g    0.779957     3B3g    0.779957     7B1u    0.862097
       4B3u    1.566048     4B2u    1.566048     8Ag     1.630172
       4B2g    1.694754     4B3g    1.694754     5B3u    2.111671
       5B2u    2.111671     9Ag     2.134312    10Ag     2.152395
       2B1g    2.152396     8B1u    2.153766     6B2u    2.314687
       6B3u    2.314687     5B3g    2.398574     5B2g    2.398574
       9B1u    2.558710     2Au     2.558714    11Ag     2.588190
       3B1g    2.588199     6B2g    2.711907     6B3g    2.711907
      10B1u    2.744426     3Au     2.744434     7B3u    2.751092
       7B2u    2.751092    11B1u    2.766773    12B1u    3.100227
      12Ag     3.149598     7B2g    3.312651     7B3g    3.312651
      13Ag     3.655784    13B1u    5.197222

    Final Occupation by Irrep:
             Ag   B1g   B2g   B3g    Au   B1u   B2u   B3u
    DOCC [     2,    0,    0,    0,    0,    2,    0,    0 ]
    SOCC [     1,    0,    0,    0,    0,    0,    1,    1 ]
    NA   [     3,    0,    0,    0,    0,    2,    1,    1 ]
    NB   [     2,    0,    0,    0,    0,    2,    0,    0 ]

  @DF-UKS Final Energy:   -75.45842889052209

   => Energetics <=

    Nuclear Repulsion Energy =             10.7405955888999145
    One-Electron Energy =                -118.0658447311067647
    Two-Electron Energy =                  40.0225330778187214
    DFT Exchange-Correlation Energy =      -8.1557128261339624
    Empirical Dispersion Energy =           0.0000000000000000
    VV10 Nonlocal Energy =                  0.0000000000000000
    Total Energy =                        -75.4584288905220859

  UHF NO Occupations:
  HONO-2 :    1B2u 1.0000000
  HONO-1 :    3 Ag 1.0000000
  HONO-0 :    1B3u 1.0000000
  LUNO+0 :    3B1u 0.0019106
  LUNO+1 :    4 Ag 0.0001617
  LUNO+2 :    4B1u 0.0000008
  LUNO+3 :    5 Ag 0.0000006

Computation Completed

Properties will be evaluated at   0.000000,   0.000000,   0.000000 [a0]

Properties computed using the B3LYP density matrix

 Multipole Moments:

 ------------------------------------------------------------------------------------
     Multipole            Electronic (a.u.)      Nuclear  (a.u.)        Total (a.u.)
 ------------------------------------------------------------------------------------

 L = 1.  Multiply by 2.5417464519 to convert [e a0] to [Debye]
 Dipole X            :          0.0000000            0.0000000            0.0000000
 Dipole Y            :          0.0000000            0.0000000            0.0000000
 Dipole Z            :          0.0000000            0.0000000            0.0000000
 Magnitude           :                                                    0.0000000

 L = 2.  Multiply by 1.3450342976 to convert [e a0^2] to [Debye ang]
 Quadrupole XX       :         -6.8587934            0.0000000           -6.8587934
 Quadrupole XY       :          0.0000000            0.0000000            0.0000000
 Quadrupole XZ       :          0.0000000            0.0000000            0.0000000
 Quadrupole YY       :         -6.8587934            0.0000000           -6.8587934
 Quadrupole YZ       :          0.0000000            0.0000000            0.0000000
 Quadrupole ZZ       :        -37.2546925           33.7030750           -3.5516175
 Traceless XX        :         10.1319664          -11.2343583           -1.1023920
 Traceless YY        :         10.1319664          -11.2343583           -1.1023920
 Traceless ZZ        :        -20.2639327           22.4687167            2.2047839

 ------------------------------------------------------------------------------------
  ==> Computing MBIS Charges <==

  Electron Count from Grid (Expected Number): 11.00000 (11.00000)
  Difference: -0.00000

  MBIS Charges: (a.u.)
   Center  Symbol  Z      Pop.       Charge
      1       C    6    5.500000    0.500000
      2       C    6    5.500000    0.500000

  MBIS Dipoles: [e a0]
   Center  Symbol  Z        X           Y           Z
      1       C    6   -0.000000   -0.000000   -0.173249
      2       C    6   -0.000000    0.000000    0.173249

  MBIS Quadrupoles: [e a0^2]
   Center  Symbol  Z      XX        XY        XZ        YY        YZ        ZZ
      1       C    6   -3.4294    0.0000   -0.0000   -3.4294   -0.0000   -3.7608
      2       C    6   -3.4294    0.0000    0.0000   -3.4294    0.0000   -3.7608

  MBIS Octupoles: [e a0^3]
   Center  Symbol  Z      XXX       XXY       XXZ       XYY       XYZ       XZZ       YYY       YYZ       YZZ       ZZZ
      1       C    6   -0.0000   -0.0000   -0.2646   -0.0000    0.0000   -0.0000    0.0000   -0.2646    0.0000   -0.8674
      2       C    6   -0.0000   -0.0000    0.2646   -0.0000   -0.0000   -0.0000    0.0000    0.2646    0.0000    0.8674

  MBIS Radial Moments:
   Center  Symbol  Z      [a0^2]      [a0^3]      [a0^4]
      1       C    6   10.619588   23.934846   64.194385
      2       C    6   10.619588   23.934846   64.194385

  MBIS Valence Widths: [a0]
   Center  Symbol  Z     Width
      1       C    6    0.486177
      2       C    6    0.486177

*** tstop() called on Mac.lan at Sun Aug 10 18:23:11 2025
Module time:
	user time   =       3.92 seconds =       0.07 minutes
	system time =       2.58 seconds =       0.04 minutes
	total time  =          1 seconds =       0.02 minutes
Total time:
	user time   =      17.96 seconds =       0.30 minutes
	system time =       5.10 seconds =       0.09 minutes
	total time  =          2 seconds =       0.03 minutes

    Psi4 stopped on: Sunday, 10 August 2025 06:23PM
    Psi4 wall time for execution: 0:00:02.30

*** Psi4 exiting successfully. Buy a developer a beer!
