                               Psi4 1.9.1 release

  ==> Input File <==

--------------------------------------------------------------------------
molecule {
1 3
N           0.000000           0.000000           0.000000
C           0.000000           0.000000           0.987764
}

set {
basis              cc-pvtz
reference          uks
maxiter            500
DAMPING_PERCENTAGE 1
E_CONVERGENCE      1.0E-8
D_CONVERGENCE      1.0E-8
DIIS_MAX_VECS      400
MBIS_MAXITER       8000
guess              read
}

E, wfn = energy('b3lyp', restart_file='last_wfn', return_wfn=True)
properties('b3lyp','MBIS_CHARGES', wfn=wfn)
wfn.to_file('last_wfn')
--------------------------------------------------------------------------

    Molecular point group: c2v
  Charge       = 1
  Multiplicity = 3
  Basis Set: CC-PVTZ
    Blend: CC-PVTZ
  Basis Set: (CC-PVTZ AUX)
    Blend: CC-PVTZ-JKFIT
  @DF-UKS Final Energy:   -92.07847297374892
    Total Energy =                        -92.0784729737489158
 Dipole X            :          0.0000000            0.0000000            0.0000000
 Dipole Y            :          0.0000000            0.0000000            0.0000000
 Dipole Z            :          0.8601158            0.0013240            0.8614397
 Magnitude           :                                                    0.8614397
    Molecular point group: c2v

    Geometry (in Angstrom), charge = 1, multiplicity = 3:

       Center              X                  Y                   Z               Mass
    ------------   -----------------  -----------------  -----------------  -----------------
         N            0.000000000000     0.000000000000    -0.455837182865    14.003074004430
         C            0.000000000000     0.000000000000     0.531926817135    12.000000000000

  Charge       = 1
  Multiplicity = 3
  Basis Set: CC-PVTZ
    Blend: CC-PVTZ
  Basis Set: (CC-PVTZ AUX)
    Blend: CC-PVTZ-JKFIT

    Orbital Energies [Eh]
    ---------------------

    Alpha Occupied:

       1A1   -14.802368     2A1   -10.735341     3A1    -1.511032
       1B1    -0.920745     4A1    -0.874935     1B2    -0.871857
       5A1    -0.803080

    Alpha Virtual:

       2B1    -0.357083     2B2    -0.323512     6A1    -0.097851
       3B1    -0.032142     3B2    -0.020450     7A1    -0.017767
       8A1     0.151953     4B1     0.214378     4B2     0.230594
       1A2     0.243871     9A1     0.244359    10A1     0.402095
       5B1     0.524817     5B2     0.546819    11A1     0.602249
       2A2     0.836156    12A1     0.837124    13A1     1.113540
       6B1     1.211036     6B2     1.233382     7B1     1.468868
       7B2     1.495602    14A1     1.505864    15A1     1.916055
       8B1     2.176745     8B2     2.177022    16A1     2.324189
       3A2     2.328643    17A1     2.356713     9B1     2.414057
       9B2     2.439956     4A2     2.504024    18A1     2.504859
      10B1     2.628913    10B2     2.669017    19A1     2.795717
      11B1     3.089732    11B2     3.120830    12B1     3.561946
      12B2     3.562101    20A1     3.951561     5A2     4.064723
      21A1     4.065068     6A2     4.362508    22A1     4.363240
      13B1     4.484501    13B2     4.517913    23A1     4.885756
      24A1     5.118420    14B1     5.555551    14B2     5.592160
      25A1     6.668448    26A1    14.970474

    Beta Occupied:

       1A1   -14.788709     2A1   -10.704755     3A1    -1.440692
       1B2    -0.845250     4A1    -0.788445

    Beta Virtual:

       1B1    -0.720907     5A1    -0.608218     2B2    -0.282903
       2B1    -0.253922     6A1    -0.081031     3B2    -0.010986
       3B1    -0.002765     7A1     0.025372     8A1     0.167464
       4B2     0.236126     4B1     0.245241     1A2     0.280762
       9A1     0.284478    10A1     0.469573     5B2     0.580887
       5B1     0.587503    11A1     0.619968     2A2     0.864044
      12A1     0.867052    13A1     1.178774     6B2     1.244012
       6B1     1.247641     7B2     1.523788     7B1     1.535260
      14A1     1.552490    15A1     1.977708     8B2     2.232022
       8B1     2.234479     3A2     2.379093    16A1     2.383412
      17A1     2.415051     9B2     2.524857     9B1     2.547472
       4A2     2.596411    18A1     2.606535    10B2     2.689801
      10B1     2.705539    19A1     2.910073    11B2     3.158782
      11B1     3.170837    12B2     3.601155    12B1     3.602532
      20A1     3.996102     5A2     4.111466    21A1     4.118119
       6A2     4.400720    22A1     4.404767    13B2     4.529282
      13B1     4.534969    23A1     4.925304    24A1     5.153782
      14B2     5.624857    14B1     5.639026    25A1     6.706183
      26A1    15.013759

    Final Occupation by Irrep:
             A1    A2    B1    B2
    DOCC [     4,    0,    0,    1 ]
    SOCC [     1,    0,    1,    0 ]
    NA   [     5,    0,    1,    1 ]
    NB   [     4,    0,    0,    1 ]

  @DF-UKS Final Energy:   -92.07847297610050

   => Energetics <=

    Nuclear Repulsion Energy =             22.5007621741023200
    One-Electron Energy =                -163.0526037869013010
    Two-Electron Energy =                  58.2236954043651451
    DFT Exchange-Correlation Energy =      -9.7503267676666709
    Empirical Dispersion Energy =           0.0000000000000000
    VV10 Nonlocal Energy =                  0.0000000000000000
    Total Energy =                        -92.0784729761004996

  UHF NO Occupations:
  HONO-2 :    1 B2 1.9986006
  HONO-1 :    1 B1 1.0000000
  HONO-0 :    5 A1 1.0000000
  LUNO+0 :    2 B2 0.0013994
  LUNO+1 :    6 A1 0.0003570
  LUNO+2 :    7 A1 0.0002499
  LUNO+3 :    8 A1 0.0000006

Computation Completed

Properties will be evaluated at   0.000000,   0.000000,   0.000000 [a0]

Properties computed using the B3LYP density matrix

 Multipole Moments:

 ------------------------------------------------------------------------------------
     Multipole            Electronic (a.u.)      Nuclear  (a.u.)        Total (a.u.)
 ------------------------------------------------------------------------------------

 L = 1.  Multiply by 2.5417464519 to convert [e a0] to [Debye]
 Dipole X            :          0.0000000            0.0000000            0.0000000
 Dipole Y            :          0.0000000            0.0000000            0.0000000
 Dipole Z            :          0.8601158            0.0013240            0.8614397
 Magnitude           :                                                    0.8614397

 L = 2.  Multiply by 1.3450342976 to convert [e a0^2] to [Debye ang]
 Quadrupole XX       :         -5.2626531            0.0000000           -5.2626531
 Quadrupole XY       :          0.0000000            0.0000000            0.0000000
 Quadrupole XZ       :          0.0000000            0.0000000            0.0000000
 Quadrupole YY       :         -6.1270027            0.0000000           -6.1270027
 Quadrupole YZ       :          0.0000000            0.0000000            0.0000000
 Quadrupole ZZ       :        -16.4617793           11.2566734           -5.2051059
 Traceless XX        :          4.0211586           -3.7522245            0.2689342
 Traceless YY        :          3.1568090           -3.7522245           -0.5954155
 Traceless ZZ        :         -7.1779676            7.5044489            0.3264813

 ------------------------------------------------------------------------------------
  ==> Computing MBIS Charges <==

  Electron Count from Grid (Expected Number): 12.00000 (12.00000)
  Difference: -0.00000

  MBIS Charges: (a.u.)
   Center  Symbol  Z      Pop.       Charge
      1       N    7    6.906634    0.093366
      2       C    6    5.093366    0.906634

  MBIS Dipoles: [e a0]
   Center  Symbol  Z        X           Y           Z
      1       N    7   -0.000000   -0.000000   -0.065903
      2       C    6   -0.000000    0.000000    0.096423

  MBIS Quadrupoles: [e a0^2]
   Center  Symbol  Z      XX        XY        XZ        YY        YZ        ZZ
      1       N    7   -3.0270    0.0000   -0.0000   -3.5182    0.0000   -3.8193
      2       C    6   -2.2356    0.0000    0.0000   -2.6088    0.0000   -2.6786

  MBIS Octupoles: [e a0^3]
   Center  Symbol  Z      XXX       XXY       XXZ       XYY       XYZ       XZZ       YYY       YYZ       YZZ       ZZZ
      1       N    7   -0.0000   -0.0000    0.0220   -0.0000    0.0000   -0.0000   -0.0000   -0.1268    0.0000    0.0567
      2       C    6   -0.0000   -0.0000   -0.0531   -0.0000    0.0000    0.0000    0.0000    0.0488    0.0000   -0.0744

  MBIS Radial Moments:
   Center  Symbol  Z      [a0^2]      [a0^3]      [a0^4]
      1       N    7   10.364513   19.974621   45.995152
      2       C    6    7.522995   15.108975   36.363939

  MBIS Valence Widths: [a0]
   Center  Symbol  Z     Width
      1       N    7    0.406948
      2       C    6    0.427066

*** tstop() called on Mac.lan at Sun Aug 10 18:33:02 2025
Module time:
	user time   =       3.75 seconds =       0.06 minutes
	system time =       2.24 seconds =       0.04 minutes
	total time  =          1 seconds =       0.02 minutes
Total time:
	user time   =      17.04 seconds =       0.28 minutes
	system time =       4.64 seconds =       0.08 minutes
	total time  =          2 seconds =       0.03 minutes

    Psi4 stopped on: Sunday, 10 August 2025 06:33PM
    Psi4 wall time for execution: 0:00:02.10

*** Psi4 exiting successfully. Buy a developer a beer!
