                               Psi4 1.9.1 release

  ==> Input File <==

--------------------------------------------------------------------------
molecule {
1 3
N           0.000000           0.000000           0.000000
C           0.000000           0.000000           1.734242
}

set {
basis              cc-pvtz
reference          uks
maxiter            500
DAMPING_PERCENTAGE 1
E_CONVERGENCE      1.0E-8
D_CONVERGENCE      1.0E-8
DIIS_MAX_VECS      400
MBIS_MAXITER       8000
guess              read
}

E, wfn = energy('b3lyp', restart_file='last_wfn', return_wfn=True)
properties('b3lyp','MBIS_CHARGES', wfn=wfn)
wfn.to_file('last_wfn')
--------------------------------------------------------------------------

    Molecular point group: c2v
  Charge       = 1
  Multiplicity = 3
  Basis Set: CC-PVTZ
    Blend: CC-PVTZ
  Basis Set: (CC-PVTZ AUX)
    Blend: CC-PVTZ-JKFIT
  @DF-UKS Final Energy:   -92.12519635057791
    Total Energy =                        -92.1251963505779088
 Dipole X            :          0.0000000            0.0000000            0.0000000
 Dipole Y            :          0.0000000            0.0000000            0.0000000
 Dipole Z            :          0.5332723            0.0023246            0.5355968
 Magnitude           :                                                    0.5355968
    Molecular point group: c2v

    Geometry (in Angstrom), charge = 1, multiplicity = 3:

       Center              X                  Y                   Z               Mass
    ------------   -----------------  -----------------  -----------------  -----------------
         N            0.000000000000     0.000000000000    -0.800324761467    14.003074004430
         C            0.000000000000     0.000000000000     0.933917238533    12.000000000000

  Charge       = 1
  Multiplicity = 3
  Basis Set: CC-PVTZ
    Blend: CC-PVTZ
  Basis Set: (CC-PVTZ AUX)
    Blend: CC-PVTZ-JKFIT

    Orbital Energies [Eh]
    ---------------------

    Alpha Occupied:

       1A1   -14.849378     2A1   -10.764583     3A1    -1.211045
       4A1    -0.919737     5A1    -0.737705     1B1    -0.724569
       1B2    -0.710893

    Alpha Virtual:

       2B1    -0.495447     2B2    -0.447568     6A1    -0.347187
       7A1     0.010829     3B1     0.032107     3B2     0.051832
       8A1     0.060909     9A1     0.161620     4B1     0.181301
       4B2     0.190175    10A1     0.345538     1A2     0.345618
       5B1     0.346770     5B2     0.369376    11A1     0.500348
      12A1     0.697729     2A2     0.698013    13A1     0.705698
       6B1     0.935901     6B2     0.952272    14A1     1.110321
       7B1     1.572823     7B2     1.613001    15A1     1.827853
       8B1     2.208177    16A1     2.214954     8B2     2.232466
       3A2     2.285415    17A1     2.289399     9B1     2.315655
       9B2     2.316131    10B1     2.504136    10B2     2.526828
      18A1     2.560739     4A2     2.563506    19A1     2.670777
      11B1     2.677779    11B2     2.713190    20A1     3.056911
      21A1     3.421785    12B1     3.457343    12B2     3.457349
       5A2     3.509509    22A1     3.509823    13B1     3.743615
      13B2     3.757621    23A1     3.983237     6A2     3.983301
      24A1     4.066072    14B1     4.285356    14B2     4.297172
      25A1     5.053464    26A1     5.778722

    Beta Occupied:

       1A1   -14.800768     2A1   -10.769516     3A1    -1.095404
       4A1    -0.866541     1B2    -0.649830

    Beta Virtual:

       5A1    -0.566915     1B1    -0.541798     2B2    -0.448346
       2B1    -0.421206     6A1    -0.272854     3B2     0.026664
       7A1     0.029319     3B1     0.039111     8A1     0.071971
       9A1     0.199833     4B2     0.237106     4B1     0.238888
       1A2     0.325050    10A1     0.329599     5B2     0.379625
       5B1     0.389077    11A1     0.547565    12A1     0.739784
       2A2     0.773327    13A1     0.774038     6B2     1.000063
       6B1     1.003068    14A1     1.172381     7B2     1.553987
       7B1     1.580056    15A1     1.869279    16A1     2.251804
       8B2     2.256356     8B1     2.266939     9B2     2.275136
       3A2     2.277186     9B1     2.277793    17A1     2.283721
       4A2     2.510149    18A1     2.521027    10B2     2.571725
      10B1     2.584329    11B2     2.726177    19A1     2.729211
      11B1     2.742275    20A1     3.093050    21A1     3.473752
      12B2     3.567480    12B1     3.567544     5A2     3.607656
      22A1     3.608298    13B2     3.843412    13B1     3.846951
       6A2     4.134303    23A1     4.135187    24A1     4.165659
      14B2     4.412185    14B1     4.415357    25A1     5.132252
      26A1     5.853303

    Final Occupation by Irrep:
             A1    A2    B1    B2
    DOCC [     4,    0,    0,    1 ]
    SOCC [     1,    0,    1,    0 ]
    NA   [     5,    0,    1,    1 ]
    NB   [     4,    0,    0,    1 ]

  @DF-UKS Final Energy:   -92.12519635077706

   => Energetics <=

    Nuclear Repulsion Energy =             12.8156525145510276
    One-Electron Energy =                -145.0127691329783488
    Two-Electron Energy =                  49.4582354895777385
    DFT Exchange-Correlation Energy =      -9.3863152219274824
    Empirical Dispersion Energy =           0.0000000000000000
    VV10 Nonlocal Energy =                  0.0000000000000000
    Total Energy =                        -92.1251963507770597

  UHF NO Occupations:
  HONO-2 :    1 B2 1.6378390
  HONO-1 :    1 B1 1.0000000
  HONO-0 :    5 A1 1.0000000
  LUNO+0 :    2 B2 0.3621610
  LUNO+1 :    6 A1 0.0084023
  LUNO+2 :    7 A1 0.0007128
  LUNO+3 :    8 A1 0.0000014

Computation Completed

Properties will be evaluated at   0.000000,   0.000000,   0.000000 [a0]

Properties computed using the B3LYP density matrix

 Multipole Moments:

 ------------------------------------------------------------------------------------
     Multipole            Electronic (a.u.)      Nuclear  (a.u.)        Total (a.u.)
 ------------------------------------------------------------------------------------

 L = 1.  Multiply by 2.5417464519 to convert [e a0] to [Debye]
 Dipole X            :          0.0000000            0.0000000            0.0000000
 Dipole Y            :          0.0000000            0.0000000            0.0000000
 Dipole Z            :          0.5332722            0.0023246            0.5355967
 Magnitude           :                                                    0.5355967

 L = 2.  Multiply by 1.3450342976 to convert [e a0^2] to [Debye ang]
 Quadrupole XX       :         -6.1847165            0.0000000           -6.1847165
 Quadrupole XY       :          0.0000000            0.0000000            0.0000000
 Quadrupole XZ       :          0.0000000            0.0000000            0.0000000
 Quadrupole YY       :         -7.3587942            0.0000000           -7.3587942
 Quadrupole YZ       :          0.0000000            0.0000000            0.0000000
 Quadrupole ZZ       :        -37.7039781           34.6994888           -3.0044893
 Traceless XX        :         10.8977797          -11.5664963           -0.6687165
 Traceless YY        :          9.7237021          -11.5664963           -1.8427942
 Traceless ZZ        :        -20.6214819           23.1329926            2.5115107

 ------------------------------------------------------------------------------------
  ==> Computing MBIS Charges <==

  Electron Count from Grid (Expected Number): 12.00000 (12.00000)
  Difference: -0.00000

  MBIS Charges: (a.u.)
   Center  Symbol  Z      Pop.       Charge
      1       N    7    6.666588    0.333412
      2       C    6    5.333411    0.666589

  MBIS Dipoles: [e a0]
   Center  Symbol  Z        X           Y           Z
      1       N    7    0.000000   -0.000000   -0.236971
      2       C    6    0.000000   -0.000000    0.100389

  MBIS Quadrupoles: [e a0^2]
   Center  Symbol  Z      XX        XY        XZ        YY        YZ        ZZ
      1       N    7   -3.3816    0.0000    0.0000   -3.6686   -0.0000   -3.5202
      2       C    6   -2.8031    0.0000    0.0000   -3.6902    0.0000   -3.3942

  MBIS Octupoles: [e a0^3]
   Center  Symbol  Z      XXX       XXY       XXZ       XYY       XYZ       XZZ       YYY       YYZ       YZZ       ZZZ
      1       N    7   -0.0000   -0.0000   -0.1565   -0.0000    0.0000   -0.0000   -0.0000   -0.3325   -0.0000   -0.8937
      2       C    6   -0.0000   -0.0000    0.1739    0.0000   -0.0000   -0.0000    0.0000    0.2435    0.0000    0.6946

  MBIS Radial Moments:
   Center  Symbol  Z      [a0^2]      [a0^3]      [a0^4]
      1       N    7   10.570376   21.143736   50.475147
      2       C    6    9.887596   22.005309   58.328838

  MBIS Valence Widths: [a0]
   Center  Symbol  Z     Width
      1       N    7    0.422360
      2       C    6    0.479283

*** tstop() called on Mac.lan at Sun Aug 10 18:35:03 2025
Module time:
	user time   =       4.04 seconds =       0.07 minutes
	system time =       2.29 seconds =       0.04 minutes
	total time  =          1 seconds =       0.02 minutes
Total time:
	user time   =      25.95 seconds =       0.43 minutes
	system time =       4.59 seconds =       0.08 minutes
	total time  =          3 seconds =       0.05 minutes

    Psi4 stopped on: Sunday, 10 August 2025 06:35PM
    Psi4 wall time for execution: 0:00:03.02

*** Psi4 exiting successfully. Buy a developer a beer!
