                               Psi4 1.9.1 release

  ==> Input File <==

--------------------------------------------------------------------------
molecule {
1 1
O           0.000000           0.000000           0.000000
N           0.000000           0.000000           1.061575
}

set {
basis              cc-pvtz
reference          uks
maxiter            500
DAMPING_PERCENTAGE 1
E_CONVERGENCE      1.0E-8
D_CONVERGENCE      1.0E-8
DIIS_MAX_VECS      400
MBIS_MAXITER       8000
guess              read
}

E, wfn = energy('b3lyp', restart_file='last_wfn', return_wfn=True)
properties('b3lyp','MBIS_CHARGES', wfn=wfn)
wfn.to_file('last_wfn')
--------------------------------------------------------------------------

    Molecular point group: c2v
  Charge       = 1
  Multiplicity = 1
  Basis Set: CC-PVTZ
    Blend: CC-PVTZ
  Basis Set: (CC-PVTZ AUX)
    Blend: CC-PVTZ-JKFIT
  @DF-UKS Final Energy:  -129.58636375547277
    Total Energy =                       -129.5863637554727745
 Dipole X            :          0.0000000            0.0000000            0.0000000
 Dipole Y            :          0.0000000            0.0000000            0.0000000
 Dipole Z            :          0.1611177           -0.0040251            0.1570925
 Magnitude           :                                                    0.1570925
    Molecular point group: c2v

    Geometry (in Angstrom), charge = 1, multiplicity = 1:

       Center              X                  Y                   Z               Mass
    ------------   -----------------  -----------------  -----------------  -----------------
         O            0.000000000000     0.000000000000    -0.495543667030    15.994914619570
         N            0.000000000000     0.000000000000     0.566031332970    14.003074004430

  Charge       = 1
  Multiplicity = 1
  Basis Set: CC-PVTZ
    Blend: CC-PVTZ
  Basis Set: (CC-PVTZ AUX)
    Blend: CC-PVTZ-JKFIT

    Orbital Energies [Eh]
    ---------------------

    Alpha Occupied:

       1A1   -19.768971     2A1   -14.961210     3A1    -1.782429
       4A1    -1.096736     1B2    -0.988026     1B1    -0.988026
       5A1    -0.919840

    Alpha Virtual:

       2B1    -0.494131     2B2    -0.494131     6A1    -0.059285
       3B2     0.081725     3B1     0.081725     7A1     0.122679
       8A1     0.192225     9A1     0.269322     4B2     0.283393
       4B1     0.283393     1A2     0.528058    10A1     0.528058
       5B2     0.782992     5B1     0.782992    11A1     0.829353
       2A2     1.159812    12A1     1.159812    13A1     1.336843
       6B2     1.655466     6B1     1.655466    14A1     1.875869
       7B1     2.387745     7B2     2.387745    15A1     2.656455
       8B1     3.170300     8B2     3.170300    16A1     3.317635
       9B2     3.340882     9B1     3.340882     3A2     3.351714
      17A1     3.351714    10B2     3.631358    10B1     3.631358
       4A2     3.927402    18A1     3.927403    19A1     3.998238
      11B2     4.339999    11B1     4.339999    20A1     4.615139
      12B1     4.635154    12B2     4.635154     5A2     5.275571
      21A1     5.275572     6A2     5.713875    22A1     5.713876
      13B1     6.061271    13B2     6.061271    23A1     6.096450
      24A1     6.628695    14B2     6.770835    14B1     6.770835
      25A1     6.990522    26A1    15.315562

    Beta Occupied:

       1A1   -19.768971     2A1   -14.961210     3A1    -1.782429
       4A1    -1.096736     1B2    -0.988026     1B1    -0.988026
       5A1    -0.919840

    Beta Virtual:

       2B1    -0.494131     2B2    -0.494131     6A1    -0.059285
       3B2     0.081725     3B1     0.081725     7A1     0.122679
       8A1     0.192225     9A1     0.269322     4B2     0.283393
       4B1     0.283393     1A2     0.528058    10A1     0.528058
       5B2     0.782992     5B1     0.782992    11A1     0.829353
       2A2     1.159812    12A1     1.159812    13A1     1.336843
       6B2     1.655466     6B1     1.655466    14A1     1.875869
       7B1     2.387745     7B2     2.387745    15A1     2.656455
       8B1     3.170300     8B2     3.170300    16A1     3.317635
       9B2     3.340882     9B1     3.340882     3A2     3.351714
      17A1     3.351714    10B2     3.631358    10B1     3.631358
       4A2     3.927402    18A1     3.927403    19A1     3.998238
      11B2     4.339999    11B1     4.339999    20A1     4.615139
      12B1     4.635154    12B2     4.635154     5A2     5.275571
      21A1     5.275572     6A2     5.713875    22A1     5.713876
      13B1     6.061271    13B2     6.061271    23A1     6.096450
      24A1     6.628695    14B2     6.770835    14B1     6.770835
      25A1     6.990522    26A1    15.315562

    Final Occupation by Irrep:
             A1    A2    B1    B2
    DOCC [     5,    0,    1,    1 ]
    SOCC [     0,    0,    0,    0 ]
    NA   [     5,    0,    1,    1 ]
    NB   [     5,    0,    1,    1 ]

  @DF-UKS Final Energy:  -129.58636375625474

   => Energetics <=

    Nuclear Repulsion Energy =             27.9150543273155520
    One-Electron Energy =                -225.2773462683301204
    Two-Electron Energy =                  79.8982548396689083
    DFT Exchange-Correlation Energy =     -12.1223266549090845
    Empirical Dispersion Energy =           0.0000000000000000
    VV10 Nonlocal Energy =                  0.0000000000000000
    Total Energy =                       -129.5863637562547410

  UHF NO Occupations:
  HONO-2 :    3 A1 2.0000000
  HONO-1 :    4 A1 2.0000000
  HONO-0 :    5 A1 2.0000000
  LUNO+0 :    6 A1 0.0000000
  LUNO+1 :    7 A1 0.0000000
  LUNO+2 :    8 A1 0.0000000
  LUNO+3 :    9 A1 0.0000000

Computation Completed

Properties will be evaluated at   0.000000,   0.000000,   0.000000 [a0]

Properties computed using the B3LYP density matrix

 Multipole Moments:

 ------------------------------------------------------------------------------------
     Multipole            Electronic (a.u.)      Nuclear  (a.u.)        Total (a.u.)
 ------------------------------------------------------------------------------------

 L = 1.  Multiply by 2.5417464519 to convert [e a0] to [Debye]
 Dipole X            :          0.0000000            0.0000000            0.0000000
 Dipole Y            :          0.0000000            0.0000000            0.0000000
 Dipole Z            :          0.1611177           -0.0040251            0.1570925
 Magnitude           :                                                    0.1570925

 L = 2.  Multiply by 1.3450342976 to convert [e a0^2] to [Debye ang]
 Quadrupole XX       :         -5.8159913            0.0000000           -5.8159913
 Quadrupole XY       :          0.0000000            0.0000000            0.0000000
 Quadrupole XZ       :          0.0000000            0.0000000            0.0000000
 Quadrupole YY       :         -5.8159913            0.0000000           -5.8159913
 Quadrupole YZ       :          0.0000000            0.0000000            0.0000000
 Quadrupole ZZ       :        -20.4210752           15.0243571           -5.3967180
 Traceless XX        :          4.8683613           -5.0081190           -0.1397577
 Traceless YY        :          4.8683613           -5.0081190           -0.1397577
 Traceless ZZ        :         -9.7367226           10.0162381            0.2795155

 ------------------------------------------------------------------------------------
  ==> Computing MBIS Charges <==

  Electron Count from Grid (Expected Number): 14.00000 (14.00000)
  Difference:  0.00000

  MBIS Charges: (a.u.)
   Center  Symbol  Z      Pop.       Charge
      1       O    8    7.626317    0.373683
      2       N    7    6.373683    0.626317

  MBIS Dipoles: [e a0]
   Center  Symbol  Z        X           Y           Z
      1       O    8   -0.000000   -0.000000   -0.088044
      2       N    7   -0.000000    0.000000   -0.074867

  MBIS Quadrupoles: [e a0^2]
   Center  Symbol  Z      XX        XY        XZ        YY        YZ        ZZ
      1       O    8   -2.9570   -0.0000    0.0000   -2.9570   -0.0000   -3.1730
      2       N    7   -2.8590   -0.0000    0.0000   -2.8590   -0.0000   -3.2727

  MBIS Octupoles: [e a0^3]
   Center  Symbol  Z      XXX       XXY       XXZ       XYY       XYZ       XZZ       YYY       YYZ       YZZ       ZZZ
      1       O    8    0.0000   -0.0000   -0.0599    0.0000   -0.0000   -0.0000   -0.0000   -0.0599   -0.0000   -0.1773
      2       N    7    0.0000   -0.0000    0.0018    0.0000    0.0000    0.0000   -0.0000    0.0018   -0.0000   -0.0630

  MBIS Radial Moments:
   Center  Symbol  Z      [a0^2]      [a0^3]      [a0^4]
      1       O    8    9.087052   15.450731   31.463423
      2       N    7    8.990667   16.940890   38.074588

  MBIS Valence Widths: [a0]
   Center  Symbol  Z     Width
      1       O    8    0.357043
      2       N    7    0.400374

*** tstop() called on Mac.lan at Sun Aug 10 18:39:48 2025
Module time:
	user time   =       3.87 seconds =       0.06 minutes
	system time =       2.29 seconds =       0.04 minutes
	total time  =          1 seconds =       0.02 minutes
Total time:
	user time   =      15.74 seconds =       0.26 minutes
	system time =       4.39 seconds =       0.07 minutes
	total time  =          2 seconds =       0.03 minutes

    Psi4 stopped on: Sunday, 10 August 2025 06:39PM
    Psi4 wall time for execution: 0:00:01.95

*** Psi4 exiting successfully. Buy a developer a beer!
