                               Psi4 1.9.1 release

  ==> Input File <==

--------------------------------------------------------------------------
molecule {
1 3
O           0.000000           0.000000           0.000000
H           0.000000           0.000000           0.985350
}

set {
basis              cc-pvtz
reference          uks
maxiter            500
DAMPING_PERCENTAGE 1
E_CONVERGENCE      1.0E-8
D_CONVERGENCE      1.0E-8
DIIS_MAX_VECS      400
MBIS_MAXITER       8000
guess              read
}

E, wfn = energy('b3lyp', restart_file='last_wfn', return_wfn=True)
properties('b3lyp','MBIS_CHARGES', wfn=wfn)
wfn.to_file('last_wfn')
--------------------------------------------------------------------------

    Molecular point group: c2v
  Charge       = 1
  Multiplicity = 3
  Basis Set: CC-PVTZ
    Blend: CC-PVTZ
  Basis Set: (CC-PVTZ AUX)
    Blend: CC-PVTZ-JKFIT
  @DF-UKS Final Energy:   -75.27929403986022
    Total Energy =                        -75.2792940398602042
 Dipole X            :          0.0000000            0.0000000            0.0000000
 Dipole Y            :          0.0000000            0.0000000            0.0000000
 Dipole Z            :         -0.0148714            0.8687012            0.8538297
 Magnitude           :                                                    0.8538297
    Molecular point group: c2v

    Geometry (in Angstrom), charge = 1, multiplicity = 3:

       Center              X                  Y                   Z               Mass
    ------------   -----------------  -----------------  -----------------  -----------------
         O            0.000000000000     0.000000000000    -0.058405904921    15.994914619570
         H            0.000000000000     0.000000000000     0.926944095079     1.007825032230

  Charge       = 1
  Multiplicity = 3
  Basis Set: CC-PVTZ
    Blend: CC-PVTZ
  Basis Set: (CC-PVTZ AUX)
    Blend: CC-PVTZ-JKFIT

    Orbital Energies [Eh]
    ---------------------

    Alpha Occupied:

       1A1   -19.822238     2A1    -1.581074     3A1    -0.993136
       1B1    -0.954486     1B2    -0.954486

    Alpha Virtual:

       4A1    -0.305219     5A1     0.004896     2B1     0.134716
       2B2     0.134716     6A1     0.165052     3B1     0.322775
       3B2     0.322775     7A1     0.469826     8A1     0.849296
       9A1     0.918461     1A2     0.918461     4B1     1.280780
       4B2     1.280780    10A1     1.468088    11A1     1.976446
      12A1     2.752587     2A2     2.752587     5B2     2.808027
       5B1     2.808027     6B1     3.155122     6B2     3.155122
      13A1     3.214144     7B1     3.575154     7B2     3.575154
      14A1     3.786132    15A1     4.176262     8B1     4.496493
       8B2     4.496493    16A1     4.782595     3A2     4.782595
       4A2     5.525345    17A1     5.525346     9B1     5.689935
       9B2     5.689935    18A1     5.799420    10B1     6.039158
      10B2     6.039158    19A1     6.412550    20A1     9.500658

    Beta Occupied:

       1A1   -19.766092     2A1    -1.429577     3A1    -0.937944

    Beta Virtual:

       1B1    -0.651364     1B2    -0.651364     4A1    -0.288584
       5A1     0.013404     6A1     0.178363     2B1     0.202782
       2B2     0.202782     3B1     0.337276     3B2     0.337276
       7A1     0.521911     8A1     0.867971     9A1     1.030265
       1A2     1.030265     4B1     1.334433     4B2     1.334433
      10A1     1.496162    11A1     1.986981    12A1     2.762898
       2A2     2.762898     5B2     2.887701     5B1     2.887701
       6B1     3.200187     6B2     3.200187    13A1     3.224443
       7B1     3.617332     7B2     3.617332    14A1     3.828603
      15A1     4.235105     8B1     4.648719     8B2     4.648719
      16A1     4.879494     3A2     4.879495     4A2     5.737719
      17A1     5.737720     9B1     5.797167     9B2     5.797167
      18A1     5.850823    10B1     6.102833    10B2     6.102833
      19A1     6.473221    20A1     9.573644

    Final Occupation by Irrep:
             A1    A2    B1    B2
    DOCC [     3,    0,    0,    0 ]
    SOCC [     0,    0,    1,    1 ]
    NA   [     3,    0,    1,    1 ]
    NB   [     3,    0,    0,    0 ]

  @DF-UKS Final Energy:   -75.27929403982006

   => Energetics <=

    Nuclear Repulsion Energy =              4.2963593498350843
    One-Electron Energy =                -107.7669696689487182
    Two-Electron Energy =                  35.0720632054665344
    DFT Exchange-Correlation Energy =      -6.8807469261729590
    Empirical Dispersion Energy =           0.0000000000000000
    VV10 Nonlocal Energy =                  0.0000000000000000
    Total Energy =                        -75.2792940398200585

  UHF NO Occupations:
  HONO-2 :    3 A1 1.9983228
  HONO-1 :    1 B1 1.0000000
  HONO-0 :    1 B2 1.0000000
  LUNO+0 :    4 A1 0.0016772
  LUNO+1 :    5 A1 0.0005884
  LUNO+2 :    6 A1 0.0000015
  LUNO+3 :    7 A1 0.0000000

Computation Completed

Properties will be evaluated at   0.000000,   0.000000,   0.000000 [a0]

Properties computed using the B3LYP density matrix

 Multipole Moments:

 ------------------------------------------------------------------------------------
     Multipole            Electronic (a.u.)      Nuclear  (a.u.)        Total (a.u.)
 ------------------------------------------------------------------------------------

 L = 1.  Multiply by 2.5417464519 to convert [e a0] to [Debye]
 Dipole X            :          0.0000000            0.0000000            0.0000000
 Dipole Y            :          0.0000000            0.0000000            0.0000000
 Dipole Z            :         -0.0148714            0.8687012            0.8538297
 Magnitude           :                                                    0.8538297

 L = 2.  Multiply by 1.3450342976 to convert [e a0^2] to [Debye ang]
 Quadrupole XX       :         -3.0152343            0.0000000           -3.0152343
 Quadrupole XY       :          0.0000000            0.0000000            0.0000000
 Quadrupole XZ       :          0.0000000            0.0000000            0.0000000
 Quadrupole YY       :         -3.0152343            0.0000000           -3.0152343
 Quadrupole YZ       :          0.0000000            0.0000000            0.0000000
 Quadrupole ZZ       :         -4.8611476            3.1658038           -1.6953438
 Traceless XX        :          0.6153044           -1.0552679           -0.4399635
 Traceless YY        :          0.6153044           -1.0552679           -0.4399635
 Traceless ZZ        :         -1.2306089            2.1105359            0.8799270

 ------------------------------------------------------------------------------------
  ==> Computing MBIS Charges <==

  Electron Count from Grid (Expected Number):  8.00000 ( 8.00000)
  Difference: -0.00000

  MBIS Charges: (a.u.)
   Center  Symbol  Z      Pop.       Charge
      1       O    8    7.509520    0.490480
      2       H    1    0.490480    0.509520

  MBIS Dipoles: [e a0]
   Center  Symbol  Z        X           Y           Z
      1       O    8   -0.000000   -0.000000   -0.032955
      2       H    1    0.000000    0.000000    0.048408

  MBIS Quadrupoles: [e a0^2]
   Center  Symbol  Z      XX        XY        XZ        YY        YZ        ZZ
      1       O    8   -2.8178   -0.0000    0.0000   -2.8178   -0.0000   -3.2528
      2       H    1   -0.1974    0.0000    0.0000   -0.1974    0.0000   -0.1888

  MBIS Octupoles: [e a0^3]
   Center  Symbol  Z      XXX       XXY       XXZ       XYY       XYZ       XZZ       YYY       YYZ       YZZ       ZZZ
      1       O    8   -0.0000   -0.0000   -0.0129    0.0000   -0.0000    0.0000   -0.0000   -0.0129    0.0000   -0.0945
      2       H    1    0.0000    0.0000    0.0076   -0.0000    0.0000    0.0000    0.0000    0.0076    0.0000    0.0342

  MBIS Radial Moments:
   Center  Symbol  Z      [a0^2]      [a0^3]      [a0^4]
      1       O    8    8.888348   15.090476   30.676661
      2       H    1    0.583690    0.898970    1.656125

  MBIS Valence Widths: [a0]
   Center  Symbol  Z     Width
      1       O    8    0.356916
      2       H    1    0.318872

*** tstop() called on Mac.lan at Sun Aug 10 18:28:27 2025
Module time:
	user time   =       3.10 seconds =       0.05 minutes
	system time =       1.45 seconds =       0.02 minutes
	total time  =          0 seconds =       0.00 minutes
Total time:
	user time   =      12.79 seconds =       0.21 minutes
	system time =       3.79 seconds =       0.06 minutes
	total time  =          1 seconds =       0.02 minutes

    Psi4 stopped on: Sunday, 10 August 2025 06:28PM
    Psi4 wall time for execution: 0:00:01.64

*** Psi4 exiting successfully. Buy a developer a beer!
