                               Psi4 1.9.1 release

  ==> Input File <==

--------------------------------------------------------------------------
molecule {
1 2
N           0.000000           0.000000           0.000000
N           0.000000           0.000000           1.616577
}

set {
basis              cc-pvtz
reference          uks
maxiter            500
DAMPING_PERCENTAGE 1
E_CONVERGENCE      1.0E-8
D_CONVERGENCE      1.0E-8
DIIS_MAX_VECS      400
MBIS_MAXITER       8000
guess              read
}

E, wfn = energy('b3lyp', restart_file='last_wfn', return_wfn=True)
properties('b3lyp','MBIS_CHARGES', wfn=wfn)
wfn.to_file('last_wfn')
--------------------------------------------------------------------------

    Molecular point group: d2h
  Charge       = 1
  Multiplicity = 2
  Basis Set: CC-PVTZ
    Blend: CC-PVTZ
  Basis Set: (CC-PVTZ AUX)
    Blend: CC-PVTZ-JKFIT
  @DF-UKS Final Energy:  -108.76685122971537
    Total Energy =                       -108.7668512297153711
 Dipole X            :          0.0000000            0.0000000            0.0000000
 Dipole Y            :          0.0000000            0.0000000            0.0000000
 Dipole Z            :          0.0000000            0.0000000            0.0000000
 Magnitude           :                                                    0.0000000
    Molecular point group: d2h

    Geometry (in Angstrom), charge = 1, multiplicity = 2:

       Center              X                  Y                   Z               Mass
    ------------   -----------------  -----------------  -----------------  -----------------
         N            0.000000000000     0.000000000000    -0.808288500000    14.003074004430
         N            0.000000000000     0.000000000000     0.808288500000    14.003074004430

  Charge       = 1
  Multiplicity = 2
  Basis Set: CC-PVTZ
    Blend: CC-PVTZ
  Basis Set: (CC-PVTZ AUX)
    Blend: CC-PVTZ-JKFIT

    Orbital Energies [Eh]
    ---------------------

    Alpha Occupied:

       1Ag   -14.951322     1B1u  -14.951171     2Ag    -1.300980
       2B1u   -1.090051     3Ag    -0.842135     1B2u   -0.744620
       1B3u   -0.744620

    Alpha Virtual:

       1B3g   -0.569474     1B2g   -0.569474     3B1u   -0.408403
       4B1u    0.089928     2B2u    0.114221     2B3u    0.114221
       4Ag     0.139026     5Ag     0.180789     2B3g    0.207943
       2B2g    0.207943     3B3u    0.506491     3B2u    0.506491
       5B1u    0.532104     6Ag     0.561350     1B1g    0.561350
       1Au     0.773936     6B1u    0.773936     7Ag     0.966371
       3B3g    1.115552     3B2g    1.115552     7B1u    1.318501
       8Ag     2.264122     4B2u    2.283925     4B3u    2.283925
       4B3g    2.447953     4B2g    2.447953     8B1u    2.929930
       5B2u    3.111995     5B3u    3.111995     9Ag     3.156141
      10Ag     3.212477     2B1g    3.212478     6B2u    3.416276
       6B3u    3.416276     5B3g    3.479476     5B2g    3.479476
       9B1u    3.649919     2Au     3.649921     6B3g    3.909601
       6B2g    3.909601     3B1g    3.917993    11Ag     3.917993
       7B2u    4.013599     7B3u    4.013599     3Au     4.046215
      10B1u    4.046218    11B1u    4.062354    12Ag     4.387431
       7B3g    4.591651     7B2g    4.591651    12B1u    4.601174
      13Ag     5.133393    13B1u    6.366576

    Beta Occupied:

       1Ag   -14.939660     1B1u  -14.939582     2Ag    -1.266187
       2B1u   -1.028931     1B2u   -0.732752     1B3u   -0.732752

    Beta Virtual:

       3Ag    -0.666997     1B3g   -0.554502     1B2g   -0.554502
       3B1u   -0.333755     2B2u    0.118470     2B3u    0.118470
       4B1u    0.121456     4Ag     0.167346     5Ag     0.194238
       2B3g    0.211561     2B2g    0.211561     3B3u    0.536699
       3B2u    0.536699     5B1u    0.543145     6Ag     0.564005
       1B1g    0.564006     1Au     0.777658     6B1u    0.777659
       7Ag     1.009212     3B3g    1.143856     3B2g    1.143856
       7B1u    1.362990     4B2u    2.298428     4B3u    2.298428
       8Ag     2.326940     4B3g    2.455081     4B2g    2.455081
       8B1u    2.975533     5B2u    3.148299     5B3u    3.148299
       9Ag     3.196652    10Ag     3.240603     2B1g    3.240603
       6B2u    3.418125     6B3u    3.418125     5B3g    3.481195
       5B2g    3.481195     9B1u    3.664044     2Au     3.664046
       3B1g    3.921318    11Ag     3.921319     6B3g    3.943636
       6B2g    3.943636     3Au     4.060674    10B1u    4.060677
       7B2u    4.062909     7B3u    4.062909    11B1u    4.128600
      12Ag     4.459425     7B3g    4.644769     7B2g    4.644769
      12B1u    4.649475    13Ag     5.158156    13B1u    6.396845

    Final Occupation by Irrep:
             Ag   B1g   B2g   B3g    Au   B1u   B2u   B3u
    DOCC [     2,    0,    0,    0,    0,    2,    1,    1 ]
    SOCC [     1,    0,    0,    0,    0,    0,    0,    0 ]
    NA   [     3,    0,    0,    0,    0,    2,    1,    1 ]
    NB   [     2,    0,    0,    0,    0,    2,    1,    1 ]

  @DF-UKS Final Energy:  -108.76685122923098

   => Energetics <=

    Nuclear Repulsion Energy =             16.0398690089182274
    One-Electron Energy =                -173.8008471997100344
    Two-Electron Energy =                  59.4617057212817954
    DFT Exchange-Correlation Energy =     -10.4675787597209737
    Empirical Dispersion Energy =           0.0000000000000000
    VV10 Nonlocal Energy =                  0.0000000000000000
    Total Energy =                       -108.7668512292309941

  UHF NO Occupations:
  HONO-2 :    2 Ag 1.9997583
  HONO-1 :    2B1u 1.9954501
  HONO-0 :    3 Ag 1.0000000
  LUNO+0 :    3B1u 0.0045499
  LUNO+1 :    4 Ag 0.0002417
  LUNO+2 :    2B3u 0.0000953
  LUNO+3 :    2B2u 0.0000953

Computation Completed

Properties will be evaluated at   0.000000,   0.000000,   0.000000 [a0]

Properties computed using the B3LYP density matrix

 Multipole Moments:

 ------------------------------------------------------------------------------------
     Multipole            Electronic (a.u.)      Nuclear  (a.u.)        Total (a.u.)
 ------------------------------------------------------------------------------------

 L = 1.  Multiply by 2.5417464519 to convert [e a0] to [Debye]
 Dipole X            :          0.0000000            0.0000000            0.0000000
 Dipole Y            :          0.0000000            0.0000000            0.0000000
 Dipole Z            :          0.0000000            0.0000000            0.0000000
 Magnitude           :                                                    0.0000000

 L = 2.  Multiply by 1.3450342976 to convert [e a0^2] to [Debye ang]
 Quadrupole XX       :         -6.9477038            0.0000000           -6.9477038
 Quadrupole XY       :          0.0000000            0.0000000            0.0000000
 Quadrupole XZ       :          0.0000000            0.0000000            0.0000000
 Quadrupole YY       :         -6.9477038            0.0000000           -6.9477038
 Quadrupole YZ       :          0.0000000            0.0000000            0.0000000
 Quadrupole ZZ       :        -35.1804298           32.6631879           -2.5172418
 Traceless XX        :          9.4109087          -10.8877293           -1.4768207
 Traceless YY        :          9.4109087          -10.8877293           -1.4768207
 Traceless ZZ        :        -18.8218173           21.7754586            2.9536413

 ------------------------------------------------------------------------------------
  ==> Computing MBIS Charges <==

  Electron Count from Grid (Expected Number): 13.00000 (13.00000)
  Difference: -0.00000

  MBIS Charges: (a.u.)
   Center  Symbol  Z      Pop.       Charge
      1       N    7    6.500000    0.500000
      2       N    7    6.500000    0.500000

  MBIS Dipoles: [e a0]
   Center  Symbol  Z        X           Y           Z
      1       N    7   -0.000000   -0.000000   -0.299843
      2       N    7   -0.000000   -0.000000    0.299843

  MBIS Quadrupoles: [e a0^2]
   Center  Symbol  Z      XX        XY        XZ        YY        YZ        ZZ
      1       N    7   -3.4739   -0.0000    0.0000   -3.4739   -0.0000   -3.3412
      2       N    7   -3.4739   -0.0000   -0.0000   -3.4739    0.0000   -3.3412

  MBIS Octupoles: [e a0^3]
   Center  Symbol  Z      XXX       XXY       XXZ       XYY       XYZ       XZZ       YYY       YYZ       YZZ       ZZZ
      1       N    7   -0.0000   -0.0000   -0.4099    0.0000   -0.0000    0.0000   -0.0000   -0.4099   -0.0000   -1.0828
      2       N    7   -0.0000   -0.0000    0.4099    0.0000    0.0000   -0.0000   -0.0000    0.4099   -0.0000    1.0828

  MBIS Radial Moments:
   Center  Symbol  Z      [a0^2]      [a0^3]      [a0^4]
      1       N    7   10.288854   20.699602   49.706634
      2       N    7   10.288854   20.699602   49.706634

  MBIS Valence Widths: [a0]
   Center  Symbol  Z     Width
      1       N    7    0.423856
      2       N    7    0.423856

*** tstop() called on Mac.lan at Sun Aug 10 18:26:01 2025
Module time:
	user time   =       3.48 seconds =       0.06 minutes
	system time =       2.37 seconds =       0.04 minutes
	total time  =          1 seconds =       0.02 minutes
Total time:
	user time   =      15.94 seconds =       0.27 minutes
	system time =       4.45 seconds =       0.07 minutes
	total time  =          2 seconds =       0.03 minutes

    Psi4 stopped on: Sunday, 10 August 2025 06:26PM
    Psi4 wall time for execution: 0:00:01.99

*** Psi4 exiting successfully. Buy a developer a beer!
