                               Psi4 1.9.1 release

  ==> Input File <==

--------------------------------------------------------------------------
molecule {
1 2
H           0.000000           0.000000           0.000000
H           0.000000           0.000000           1.650199
}

set {
basis              cc-pvtz
reference          uks
maxiter            500
DAMPING_PERCENTAGE 1
E_CONVERGENCE      1.0E-8
D_CONVERGENCE      1.0E-8
DIIS_MAX_VECS      400
MBIS_MAXITER       8000
guess              read
}

E, wfn = energy('b3lyp', restart_file='last_wfn', return_wfn=True)
properties('b3lyp','MBIS_CHARGES', wfn=wfn)
wfn.to_file('last_wfn')
--------------------------------------------------------------------------

    Molecular point group: d2h
  Charge       = 1
  Multiplicity = 2
  Basis Set: CC-PVTZ
    Blend: CC-PVTZ
  Basis Set: (CC-PVTZ AUX)
    Blend: CC-PVTZ-JKFIT
  @DF-UKS Final Energy:    -0.59235083220395
    Total Energy =                         -0.5923508322039492
 Dipole X            :          0.0000000            0.0000000            0.0000000
 Dipole Y            :          0.0000000            0.0000000            0.0000000
 Dipole Z            :          0.0000000            0.0000000            0.0000000
 Magnitude           :                                                    0.0000000
    Molecular point group: d2h

    Geometry (in Angstrom), charge = 1, multiplicity = 2:

       Center              X                  Y                   Z               Mass
    ------------   -----------------  -----------------  -----------------  -----------------
         H            0.000000000000     0.000000000000    -0.825099500000     1.007825032230
         H            0.000000000000     0.000000000000     0.825099500000     1.007825032230

  Charge       = 1
  Multiplicity = 2
  Basis Set: CC-PVTZ
    Blend: CC-PVTZ
  Basis Set: (CC-PVTZ AUX)
    Blend: CC-PVTZ-JKFIT

    Orbital Energies [Eh]
    ---------------------

    Alpha Occupied:

       1Ag    -0.762821

    Alpha Virtual:

       1B1u   -0.529648     2Ag    -0.039488     2B1u    0.010854
       1B2u    0.131714     1B3u    0.131714     3Ag     0.180557
       1B3g    0.358567     1B2g    0.358567     3B1u    0.718926
       4Ag     1.697921     4B1u    1.890814     5Ag     2.465844
       2B2u    2.536128     2B3u    2.536128     6Ag     2.719686
       1B1g    2.719686     5B1u    2.781735     1Au     2.781735
       2B3g    2.917108     2B2g    2.917108     3B3u    3.078334
       3B2u    3.078334     6B1u    3.082791     3B3g    3.268971
       3B2g    3.268971     7Ag     3.338808     7B1u    4.047136

    Beta Occupied:

    Beta Virtual:

       1Ag    -0.471974     1B1u   -0.307286     2Ag     0.056165
       2B1u    0.114463     1B2u    0.261751     1B3u    0.261751
       3Ag     0.334209     1B3g    0.484077     1B2g    0.484077
       3B1u    0.850863     4Ag     2.006178     4B1u    2.185574
       5Ag     2.661700     2B2u    2.724848     2B3u    2.724848
       6Ag     2.903357     1B1g    2.903362     5B1u    2.965411
       1Au     2.965415     2B3g    3.129781     2B2g    3.129781
       3B2u    3.330722     3B3u    3.330722     6B1u    3.338558
       3B2g    3.497395     3B3g    3.497395     7Ag     3.593344
       7B1u    4.256967

    Final Occupation by Irrep:
             Ag   B1g   B2g   B3g    Au   B1u   B2u   B3u
    DOCC [     0,    0,    0,    0,    0,    0,    0,    0 ]
    SOCC [     1,    0,    0,    0,    0,    0,    0,    0 ]
    NA   [     1,    0,    0,    0,    0,    0,    0,    0 ]
    NB   [     0,    0,    0,    0,    0,    0,    0,    0 ]

  @DF-UKS Final Energy:    -0.59235083218138

   => Energetics <=

    Nuclear Repulsion Energy =              0.3206747856894835
    One-Electron Energy =                  -0.8909976271385301
    Two-Electron Energy =                   0.2113932323063310
    DFT Exchange-Correlation Energy =      -0.2334212230386599
    Empirical Dispersion Energy =           0.0000000000000000
    VV10 Nonlocal Energy =                  0.0000000000000000
    Total Energy =                         -0.5923508321813755

  UHF NO Occupations:
  HONO-0 :    1 Ag 1.0000000
  LUNO+0 :    2 Ag 0.0000000
  LUNO+1 :    3 Ag 0.0000000
  LUNO+2 :    4 Ag 0.0000000
  LUNO+3 :    3B3u 0.0000000

Computation Completed

Properties will be evaluated at   0.000000,   0.000000,   0.000000 [a0]

Properties computed using the B3LYP density matrix

 Multipole Moments:

 ------------------------------------------------------------------------------------
     Multipole            Electronic (a.u.)      Nuclear  (a.u.)        Total (a.u.)
 ------------------------------------------------------------------------------------

 L = 1.  Multiply by 2.5417464519 to convert [e a0] to [Debye]
 Dipole X            :          0.0000000            0.0000000            0.0000000
 Dipole Y            :          0.0000000            0.0000000            0.0000000
 Dipole Z            :          0.0000000            0.0000000            0.0000000
 Magnitude           :                                                    0.0000000

 L = 2.  Multiply by 1.3450342976 to convert [e a0^2] to [Debye ang]
 Quadrupole XX       :         -0.7879643            0.0000000           -0.7879643
 Quadrupole XY       :          0.0000000            0.0000000            0.0000000
 Quadrupole XZ       :          0.0000000            0.0000000            0.0000000
 Quadrupole YY       :         -0.7879643            0.0000000           -0.7879643
 Quadrupole YZ       :          0.0000000            0.0000000            0.0000000
 Quadrupole ZZ       :         -2.4430947            4.8622846            2.4191900
 Traceless XX        :          0.5517101           -1.6207615           -1.0690514
 Traceless YY        :          0.5517101           -1.6207615           -1.0690514
 Traceless ZZ        :         -1.1034203            3.2415231            2.1381028

 ------------------------------------------------------------------------------------
  ==> Computing MBIS Charges <==

  Electron Count from Grid (Expected Number):  1.00000 ( 1.00000)
  Difference: -0.00000

  MBIS Charges: (a.u.)
   Center  Symbol  Z      Pop.       Charge
      1       H    1    0.500000    0.500000
      2       H    1    0.500000    0.500000

  MBIS Dipoles: [e a0]
   Center  Symbol  Z        X           Y           Z
      1       H    1   -0.000000   -0.000000   -0.135744
      2       H    1    0.000000   -0.000000    0.135744

  MBIS Quadrupoles: [e a0^2]
   Center  Symbol  Z      XX        XY        XZ        YY        YZ        ZZ
      1       H    1   -0.3940   -0.0000   -0.0000   -0.3940    0.0000   -0.4293
      2       H    1   -0.3940    0.0000    0.0000   -0.3940   -0.0000   -0.4293

  MBIS Octupoles: [e a0^3]
   Center  Symbol  Z      XXX       XXY       XXZ       XYY       XYZ       XZZ       YYY       YYZ       YZZ       ZZZ
      1       H    1    0.0000    0.0000   -0.1188    0.0000    0.0000   -0.0000   -0.0000   -0.1188   -0.0000   -0.3028
      2       H    1   -0.0000   -0.0000    0.1188   -0.0000   -0.0000    0.0000   -0.0000    0.1188   -0.0000    0.3028

  MBIS Radial Moments:
   Center  Symbol  Z      [a0^2]      [a0^3]      [a0^4]
      1       H    1    1.217248    2.641497    6.789231
      2       H    1    1.217248    2.641497    6.789231

  MBIS Valence Widths: [a0]
   Center  Symbol  Z     Width
      1       H    1    0.457121
      2       H    1    0.457121

*** tstop() called on Mac.lan at Sun Aug 10 18:11:59 2025
Module time:
	user time   =       0.40 seconds =       0.01 minutes
	system time =       1.43 seconds =       0.02 minutes
	total time  =          0 seconds =       0.00 minutes
Total time:
	user time   =       1.12 seconds =       0.02 minutes
	system time =       3.54 seconds =       0.06 minutes
	total time  =          0 seconds =       0.00 minutes

    Psi4 stopped on: Sunday, 10 August 2025 06:11PM
    Psi4 wall time for execution: 0:00:00.61

*** Psi4 exiting successfully. Buy a developer a beer!
