                               Psi4 1.9.1 release

  ==> Input File <==

--------------------------------------------------------------------------
molecule {
1 2
N           0.000000           0.000000           0.000000
N           0.000000           0.000000           0.804907
}

set {
basis              cc-pvtz
reference          uks
maxiter            500
DAMPING_PERCENTAGE 1
E_CONVERGENCE      1.0E-8
D_CONVERGENCE      1.0E-8
DIIS_MAX_VECS      400
MBIS_MAXITER       8000
guess              read
}

E, wfn = energy('b3lyp', restart_file='last_wfn', return_wfn=True)
properties('b3lyp','MBIS_CHARGES', wfn=wfn)
wfn.to_file('last_wfn')
--------------------------------------------------------------------------

    Molecular point group: d2h
  Charge       = 1
  Multiplicity = 2
  Basis Set: CC-PVTZ
    Blend: CC-PVTZ
  Basis Set: (CC-PVTZ AUX)
    Blend: CC-PVTZ-JKFIT
  @DF-UKS Final Energy:  -108.47385176439224
    Total Energy =                       -108.4738517643922364
 Dipole X            :          0.0000000            0.0000000            0.0000000
 Dipole Y            :          0.0000000            0.0000000            0.0000000
 Dipole Z            :          0.0000000            0.0000000            0.0000000
 Magnitude           :                                                    0.0000000
    Molecular point group: d2h

    Geometry (in Angstrom), charge = 1, multiplicity = 2:

       Center              X                  Y                   Z               Mass
    ------------   -----------------  -----------------  -----------------  -----------------
         N            0.000000000000     0.000000000000    -0.402453500000    14.003074004430
         N            0.000000000000     0.000000000000     0.402453500000    14.003074004430

  Charge       = 1
  Multiplicity = 2
  Basis Set: CC-PVTZ
    Blend: CC-PVTZ
  Basis Set: (CC-PVTZ AUX)
    Blend: CC-PVTZ-JKFIT

    Orbital Energies [Eh]
    ---------------------

    Alpha Occupied:

       1Ag   -14.880385     1B1u  -14.850025     2Ag    -1.754721
       1B2u   -1.056586     1B3u   -1.056586     2B1u   -0.947707
       3Ag    -0.942614

    Alpha Virtual:

       1B3g   -0.275478     1B2g   -0.275478     3B1u    0.019832
       2B3u    0.022989     2B2u    0.022989     4Ag     0.071017
       5Ag     0.141031     2B3g    0.262595     2B2g    0.262595
       6Ag     0.441399     1B1g    0.441399     4B1u    0.495738
       3B3u    0.881690     3B2u    0.881690     5B1u    0.910594
       6B1u    0.996417     1Au     0.996417     7Ag     1.181294
       3B3g    1.328379     3B2g    1.328379     4B2u    2.167119
       4B3u    2.167119     7B1u    2.330814     8Ag     2.746345
       4B3g    2.955725     4B2g    2.955725     8B1u    3.031063
       5B3u    3.045818     5B2u    3.045818     9Ag     3.138047
       2B1g    3.138047     6B2u    3.473856     6B3u    3.473856
      10Ag     3.704239     5B3g    3.875425     5B2g    3.875425
       6B2g    3.926115     6B3g    3.926115     9B1u    3.948205
       2Au     3.948205    11Ag     4.004137     3B1g    4.004137
      12Ag     4.304957    10B1u    4.746865     7B2u    5.055525
       7B3u    5.055525    11B1u    5.327842     3Au     5.327843
      12B1u    6.671336     7B3g    7.196652     7B2g    7.196652
      13Ag     8.276329    13B1u   25.870356

    Beta Occupied:

       1Ag   -14.865458     1B1u  -14.836245     2Ag    -1.721586
       1B2u   -1.041527     1B3u   -1.041527     2B1u   -0.851685

    Beta Virtual:

       3Ag    -0.760392     1B3g   -0.248344     1B2g   -0.248344
       2B3u    0.027910     2B2u    0.027910     3B1u    0.032569
       4Ag     0.088049     5Ag     0.170677     2B3g    0.271446
       2B2g    0.271446     6Ag     0.448201     1B1g    0.448201
       4B1u    0.521822     3B3u    0.913700     3B2u    0.913700
       5B1u    0.938602     6B1u    1.010094     1Au     1.010094
       7Ag     1.218584     3B3g    1.348423     3B2g    1.348423
       4B2u    2.178523     4B3u    2.178523     7B1u    2.392008
       8Ag     2.776425     4B3g    2.968449     4B2g    2.968449
       5B3u    3.052279     5B2u    3.052279     8B1u    3.061537
       9Ag     3.144694     2B1g    3.144695     6B2u    3.525156
       6B3u    3.525156    10Ag     3.783605     5B3g    3.931358
       5B2g    3.931358     6B2g    3.938769     6B3g    3.938769
       9B1u    3.979409     2Au     3.979409    11Ag     4.035024
       3B1g    4.035024    12Ag     4.345522    10B1u    4.802033
       7B2u    5.098488     7B3u    5.098488    11B1u    5.344069
       3Au     5.344069    12B1u    6.728762     7B3g    7.235914
       7B2g    7.235914    13Ag     8.303437    13B1u   25.893133

    Final Occupation by Irrep:
             Ag   B1g   B2g   B3g    Au   B1u   B2u   B3u
    DOCC [     2,    0,    0,    0,    0,    2,    1,    1 ]
    SOCC [     1,    0,    0,    0,    0,    0,    0,    0 ]
    NA   [     3,    0,    0,    0,    0,    2,    1,    1 ]
    NB   [     2,    0,    0,    0,    0,    2,    1,    1 ]

  @DF-UKS Final Energy:  -108.47385176459339

   => Energetics <=

    Nuclear Repulsion Energy =             32.2145084125619405
    One-Electron Energy =                -203.5069330083848911
    Two-Electron Energy =                  73.9840732162940498
    DFT Exchange-Correlation Energy =     -11.1655003850644903
    Empirical Dispersion Energy =           0.0000000000000000
    VV10 Nonlocal Energy =                  0.0000000000000000
    Total Energy =                       -108.4738517645933911

  UHF NO Occupations:
  HONO-2 :    2 Ag 1.9999197
  HONO-1 :    2B1u 1.9991637
  HONO-0 :    3 Ag 1.0000000
  LUNO+0 :    3B1u 0.0008363
  LUNO+1 :    4 Ag 0.0000803
  LUNO+2 :    2B2u 0.0000512
  LUNO+3 :    2B3u 0.0000512

Computation Completed

Properties will be evaluated at   0.000000,   0.000000,   0.000000 [a0]

Properties computed using the B3LYP density matrix

 Multipole Moments:

 ------------------------------------------------------------------------------------
     Multipole            Electronic (a.u.)      Nuclear  (a.u.)        Total (a.u.)
 ------------------------------------------------------------------------------------

 L = 1.  Multiply by 2.5417464519 to convert [e a0] to [Debye]
 Dipole X            :          0.0000000            0.0000000            0.0000000
 Dipole Y            :          0.0000000            0.0000000            0.0000000
 Dipole Z            :          0.0000000            0.0000000            0.0000000
 Magnitude           :                                                    0.0000000

 L = 2.  Multiply by 1.3450342976 to convert [e a0^2] to [Debye ang]
 Quadrupole XX       :         -5.4015635            0.0000000           -5.4015635
 Quadrupole XY       :          0.0000000            0.0000000            0.0000000
 Quadrupole XZ       :          0.0000000            0.0000000            0.0000000
 Quadrupole YY       :         -5.4015635            0.0000000           -5.4015635
 Quadrupole YZ       :          0.0000000            0.0000000            0.0000000
 Quadrupole ZZ       :        -13.0999023            8.0976162           -5.0022861
 Traceless XX        :          2.5661129           -2.6992054           -0.1330924
 Traceless YY        :          2.5661129           -2.6992054           -0.1330924
 Traceless ZZ        :         -5.1322259            5.3984108            0.2661849

 ------------------------------------------------------------------------------------
  ==> Computing MBIS Charges <==

  Electron Count from Grid (Expected Number): 13.00000 (13.00000)
  Difference:  0.00000

  MBIS Charges: (a.u.)
   Center  Symbol  Z      Pop.       Charge
      1       N    7    6.500001    0.499999
      2       N    7    6.500001    0.499999

  MBIS Dipoles: [e a0]
   Center  Symbol  Z        X           Y           Z
      1       N    7    0.000000   -0.000000   -0.122304
      2       N    7   -0.000000    0.000000    0.122304

  MBIS Quadrupoles: [e a0^2]
   Center  Symbol  Z      XX        XY        XZ        YY        YZ        ZZ
      1       N    7   -2.7008   -0.0000    0.0000   -2.7008   -0.0000   -2.9764
      2       N    7   -2.7008    0.0000   -0.0000   -2.7008    0.0000   -2.9764

  MBIS Octupoles: [e a0^3]
   Center  Symbol  Z      XXX       XXY       XXZ       XYY       XYZ       XZZ       YYY       YYZ       YZZ       ZZZ
      1       N    7    0.0000    0.0000   -0.0172   -0.0000    0.0000   -0.0000    0.0000   -0.0172    0.0000    0.0721
      2       N    7    0.0000    0.0000    0.0172    0.0000   -0.0000   -0.0000    0.0000    0.0172    0.0000   -0.0721

  MBIS Radial Moments:
   Center  Symbol  Z      [a0^2]      [a0^3]      [a0^4]
      1       N    7    8.377938   15.087079   32.565940
      2       N    7    8.377938   15.087079   32.565940

  MBIS Valence Widths: [a0]
   Center  Symbol  Z     Width
      1       N    7    0.378828
      2       N    7    0.378828

*** tstop() called on Mac.lan at Sun Aug 10 18:24:42 2025
Module time:
	user time   =       4.16 seconds =       0.07 minutes
	system time =       2.45 seconds =       0.04 minutes
	total time  =          1 seconds =       0.02 minutes
Total time:
	user time   =      15.78 seconds =       0.26 minutes
	system time =       4.95 seconds =       0.08 minutes
	total time  =          2 seconds =       0.03 minutes

    Psi4 stopped on: Sunday, 10 August 2025 06:24PM
    Psi4 wall time for execution: 0:00:02.02

*** Psi4 exiting successfully. Buy a developer a beer!
