                               Psi4 1.9.1 release

  ==> Input File <==

--------------------------------------------------------------------------
molecule {
1 3
N           0.000000           0.000000           0.000000
C           0.000000           0.000000           1.711622
}

set {
basis              cc-pvtz
reference          uks
maxiter            500
DAMPING_PERCENTAGE 1
E_CONVERGENCE      1.0E-8
D_CONVERGENCE      1.0E-8
DIIS_MAX_VECS      400
MBIS_MAXITER       8000
guess              read
}

E, wfn = energy('b3lyp', restart_file='last_wfn', return_wfn=True)
properties('b3lyp','MBIS_CHARGES', wfn=wfn)
wfn.to_file('last_wfn')
--------------------------------------------------------------------------

    Molecular point group: c2v
  Charge       = 1
  Multiplicity = 3
  Basis Set: CC-PVTZ
    Blend: CC-PVTZ
  Basis Set: (CC-PVTZ AUX)
    Blend: CC-PVTZ-JKFIT
  @DF-UKS Final Energy:   -92.12879828630966
    Total Energy =                        -92.1287982863096744
 Dipole X            :          0.0000000            0.0000000            0.0000000
 Dipole Y            :          0.0000000            0.0000000            0.0000000
 Dipole Z            :          0.5312921            0.0022942            0.5335863
 Magnitude           :                                                    0.5335863
    Molecular point group: c2v

    Geometry (in Angstrom), charge = 1, multiplicity = 3:

       Center              X                  Y                   Z               Mass
    ------------   -----------------  -----------------  -----------------  -----------------
         N            0.000000000000     0.000000000000    -0.789885995652    14.003074004430
         C            0.000000000000     0.000000000000     0.921736004348    12.000000000000

  Charge       = 1
  Multiplicity = 3
  Basis Set: CC-PVTZ
    Blend: CC-PVTZ
  Basis Set: (CC-PVTZ AUX)
    Blend: CC-PVTZ-JKFIT

    Orbital Energies [Eh]
    ---------------------

    Alpha Occupied:

       1A1   -14.851741     2A1   -10.767016     3A1    -1.216053
       4A1    -0.921697     5A1    -0.740831     1B1    -0.727317
       1B2    -0.712092

    Alpha Virtual:

       2B1    -0.496305     2B2    -0.449508     6A1    -0.338141
       7A1     0.008666     3B1     0.030920     3B2     0.050207
       8A1     0.058167     9A1     0.160238     4B1     0.181778
       4B2     0.190913    10A1     0.342331     1A2     0.342343
       5B1     0.347908     5B2     0.370689    11A1     0.505755
      12A1     0.699330     2A2     0.699464    13A1     0.709532
       6B1     0.943465     6B2     0.960199    14A1     1.117121
       7B1     1.572781     7B2     1.612110    15A1     1.826271
       8B1     2.204199    16A1     2.226621     8B2     2.228458
       3A2     2.281934    17A1     2.286701     9B1     2.312540
       9B2     2.312987    10B1     2.506460    10B2     2.530052
      18A1     2.558360     4A2     2.560674    19A1     2.678526
      11B1     2.686655    11B2     2.720908    20A1     3.027511
      21A1     3.447271    12B1     3.456578    12B2     3.456585
       5A2     3.516091    22A1     3.516575    13B1     3.763210
      13B2     3.778296    23A1     3.984547     6A2     3.984614
      24A1     4.093145    14B1     4.300635    14B2     4.313484
      25A1     5.077690    26A1     5.855390

    Beta Occupied:

       1A1   -14.804035     2A1   -10.771073     3A1    -1.103424
       4A1    -0.864503     1B2    -0.651979

    Beta Virtual:

       5A1    -0.569885     1B1    -0.545109     2B2    -0.449785
       2B1    -0.420737     6A1    -0.264667     3B2     0.026177
       7A1     0.027323     3B1     0.038405     8A1     0.070688
       9A1     0.197704     4B2     0.236508     4B1     0.238659
       1A2     0.323723    10A1     0.328113     5B2     0.381620
       5B1     0.391165    11A1     0.552773    12A1     0.743293
       2A2     0.772922    13A1     0.773722     6B2     1.006837
       6B1     1.010091    14A1     1.178886     7B2     1.555877
       7B1     1.581365    15A1     1.867916     8B2     2.253398
       8B1     2.264286    16A1     2.264325     9B2     2.274493
       3A2     2.276192     9B1     2.276961    17A1     2.283048
       4A2     2.510752    18A1     2.521255    10B2     2.572635
      10B1     2.585803    11B2     2.737468    19A1     2.739014
      11B1     2.753021    20A1     3.063969    21A1     3.501776
      12B2     3.564505    12B1     3.564594     5A2     3.612066
      22A1     3.612825    13B2     3.862378    13B1     3.866590
       6A2     4.132482    23A1     4.133573    24A1     4.191954
      14B2     4.424587    14B1     4.428262    25A1     5.155731
      26A1     5.926060

    Final Occupation by Irrep:
             A1    A2    B1    B2
    DOCC [     4,    0,    0,    1 ]
    SOCC [     1,    0,    1,    0 ]
    NA   [     5,    0,    1,    1 ]
    NB   [     4,    0,    0,    1 ]

  @DF-UKS Final Energy:   -92.12879828606984

   => Energetics <=

    Nuclear Repulsion Energy =             12.9850182155522660
    One-Electron Energy =                -145.3274095796014080
    Two-Electron Energy =                  49.5992299158132823
    DFT Exchange-Correlation Energy =      -9.3856368378339781
    Empirical Dispersion Energy =           0.0000000000000000
    VV10 Nonlocal Energy =                  0.0000000000000000
    Total Energy =                        -92.1287982860698378

  UHF NO Occupations:
  HONO-2 :    1 B2 1.6699207
  HONO-1 :    5 A1 1.0000000
  HONO-0 :    1 B1 1.0000000
  LUNO+0 :    2 B2 0.3300793
  LUNO+1 :    6 A1 0.0081314
  LUNO+2 :    7 A1 0.0006855
  LUNO+3 :    8 A1 0.0000013

Computation Completed

Properties will be evaluated at   0.000000,   0.000000,   0.000000 [a0]

Properties computed using the B3LYP density matrix

 Multipole Moments:

 ------------------------------------------------------------------------------------
     Multipole            Electronic (a.u.)      Nuclear  (a.u.)        Total (a.u.)
 ------------------------------------------------------------------------------------

 L = 1.  Multiply by 2.5417464519 to convert [e a0] to [Debye]
 Dipole X            :          0.0000000            0.0000000            0.0000000
 Dipole Y            :          0.0000000            0.0000000            0.0000000
 Dipole Z            :          0.5312921            0.0022942            0.5335863
 Magnitude           :                                                    0.5335863

 L = 2.  Multiply by 1.3450342976 to convert [e a0^2] to [Debye ang]
 Quadrupole XX       :         -6.1774465            0.0000000           -6.1774465
 Quadrupole XY       :          0.0000000            0.0000000            0.0000000
 Quadrupole XZ       :          0.0000000            0.0000000            0.0000000
 Quadrupole YY       :         -7.3512905            0.0000000           -7.3512905
 Quadrupole YZ       :          0.0000000            0.0000000            0.0000000
 Quadrupole ZZ       :        -36.8856901           33.8002099           -3.0854801
 Traceless XX        :         10.6273625          -11.2667366           -0.6393742
 Traceless YY        :          9.4535185          -11.2667366           -1.8132181
 Traceless ZZ        :        -20.0808810           22.5334733            2.4525923

 ------------------------------------------------------------------------------------
  ==> Computing MBIS Charges <==

  Electron Count from Grid (Expected Number): 12.00000 (12.00000)
  Difference: -0.00000

  MBIS Charges: (a.u.)
   Center  Symbol  Z      Pop.       Charge
      1       N    7    6.669660    0.330340
      2       C    6    5.330339    0.669661

  MBIS Dipoles: [e a0]
   Center  Symbol  Z        X           Y           Z
      1       N    7    0.000000   -0.000000   -0.240885
      2       C    6    0.000000    0.000000    0.101123

  MBIS Quadrupoles: [e a0^2]
   Center  Symbol  Z      XX        XY        XZ        YY        YZ        ZZ
      1       N    7   -3.3733    0.0000    0.0000   -3.6827   -0.0000   -3.5275
      2       C    6   -2.8042    0.0000    0.0000   -3.6686    0.0000   -3.3971

  MBIS Octupoles: [e a0^3]
   Center  Symbol  Z      XXX       XXY       XXZ       XYY       XYZ       XZZ       YYY       YYZ       YZZ       ZZZ
      1       N    7   -0.0000   -0.0000   -0.1604   -0.0000    0.0000   -0.0000   -0.0000   -0.3393   -0.0000   -0.9005
      2       C    6   -0.0000   -0.0000    0.1725   -0.0000   -0.0000   -0.0000    0.0000    0.2516    0.0000    0.6846

  MBIS Radial Moments:
   Center  Symbol  Z      [a0^2]      [a0^3]      [a0^4]
      1       N    7   10.583473   21.171743   50.540438
      2       C    6    9.869890   21.950808   58.138180

  MBIS Valence Widths: [a0]
   Center  Symbol  Z     Width
      1       N    7    0.422522
      2       C    6    0.479054

*** tstop() called on Mac.lan at Sun Aug 10 18:34:59 2025
Module time:
	user time   =       3.68 seconds =       0.06 minutes
	system time =       2.04 seconds =       0.03 minutes
	total time  =          0 seconds =       0.00 minutes
Total time:
	user time   =      19.52 seconds =       0.33 minutes
	system time =       4.90 seconds =       0.08 minutes
	total time  =          2 seconds =       0.03 minutes

    Psi4 stopped on: Sunday, 10 August 2025 06:34PM
    Psi4 wall time for execution: 0:00:02.38

*** Psi4 exiting successfully. Buy a developer a beer!
