                               Psi4 1.9.1 release

  ==> Input File <==

--------------------------------------------------------------------------
molecule {
1 3
O           0.000000           0.000000           0.000000
H           0.000000           0.000000           0.622995
}

set {
basis              cc-pvtz
reference          uks
maxiter            500
DAMPING_PERCENTAGE 1
E_CONVERGENCE      1.0E-8
D_CONVERGENCE      1.0E-8
DIIS_MAX_VECS      400
MBIS_MAXITER       8000
guess              read
}

E, wfn = energy('b3lyp', restart_file='last_wfn', return_wfn=True)
properties('b3lyp','MBIS_CHARGES', wfn=wfn)
wfn.to_file('last_wfn')
--------------------------------------------------------------------------

    Molecular point group: c2v
  Charge       = 1
  Multiplicity = 3
  Basis Set: CC-PVTZ
    Blend: CC-PVTZ
  Basis Set: (CC-PVTZ AUX)
    Blend: CC-PVTZ-JKFIT
  @DF-UKS Final Energy:   -74.96130872957802
    Total Energy =                        -74.9613087295780218
 Dipole X            :          0.0000000            0.0000000            0.0000000
 Dipole Y            :          0.0000000            0.0000000            0.0000000
 Dipole Z            :          0.0355367            0.5492429            0.5847795
 Magnitude           :                                                    0.5847795
    Molecular point group: c2v

    Geometry (in Angstrom), charge = 1, multiplicity = 3:

       Center              X                  Y                   Z               Mass
    ------------   -----------------  -----------------  -----------------  -----------------
         O            0.000000000000     0.000000000000    -0.036927575721    15.994914619570
         H            0.000000000000     0.000000000000     0.586067424279     1.007825032230

  Charge       = 1
  Multiplicity = 3
  Basis Set: CC-PVTZ
    Blend: CC-PVTZ
  Basis Set: (CC-PVTZ AUX)
    Blend: CC-PVTZ-JKFIT

    Orbital Energies [Eh]
    ---------------------

    Alpha Occupied:

       1A1   -19.845189     2A1    -1.775559     3A1    -1.096345
       1B1    -1.012884     1B2    -1.012884

    Alpha Virtual:

       4A1    -0.228635     5A1     0.115979     2B2     0.120113
       2B1     0.120113     6A1     0.216348     3B1     0.361555
       3B2     0.361555     7A1     0.411668     8A1     0.885309
       1A2     0.885309     9A1     1.241264     4B1     1.375122
       4B2     1.375122    10A1     1.581050    11A1     2.322645
       5B2     2.807395     5B1     2.807395     2A2     2.883215
      12A1     2.883215     6B1     3.097504     6B2     3.097504
      13A1     3.442865     7B1     4.031179     7B2     4.031179
      14A1     4.139730     8B2     4.447816     8B1     4.447816
       3A2     5.348700    15A1     5.348700    16A1     5.391818
      17A1     5.456286     4A2     5.456286     9B1     5.556985
       9B2     5.556985    18A1     7.255678    19A1     7.436157
      10B1     7.784800    10B2     7.784800    20A1    14.423953

    Beta Occupied:

       1A1   -19.789028     2A1    -1.640435     3A1    -1.022945

    Beta Virtual:

       1B1    -0.704550     1B2    -0.704550     4A1    -0.218097
       5A1     0.126849     2B2     0.180353     2B1     0.180353
       6A1     0.236651     3B1     0.389687     3B2     0.389687
       7A1     0.447889     1A2     0.998200     8A1     0.998200
       9A1     1.283435     4B1     1.423706     4B2     1.423706
      10A1     1.628777    11A1     2.339070     5B2     2.878220
       5B1     2.878220    12A1     2.921910     2A2     2.921910
       6B1     3.190303     6B2     3.190303    13A1     3.481140
       7B1     4.080371     7B2     4.080371    14A1     4.200887
       8B2     4.600341     8B1     4.600341    15A1     5.438436
       3A2     5.438436    16A1     5.473779     9B1     5.632832
       9B2     5.632832     4A2     5.672162    17A1     5.672163
      18A1     7.300440    19A1     7.467633    10B1     7.867620
      10B2     7.867620    20A1    14.483231

    Final Occupation by Irrep:
             A1    A2    B1    B2
    DOCC [     3,    0,    0,    0 ]
    SOCC [     0,    0,    1,    1 ]
    NA   [     3,    0,    1,    1 ]
    NB   [     3,    0,    0,    0 ]

  @DF-UKS Final Energy:   -74.96130872923804

   => Energetics <=

    Nuclear Repulsion Energy =              6.7952675147633617
    One-Electron Energy =                -111.2482014709535463
    Two-Electron Energy =                  36.5503210498780433
    DFT Exchange-Correlation Energy =      -7.0586958229258929
    Empirical Dispersion Energy =           0.0000000000000000
    VV10 Nonlocal Energy =                  0.0000000000000000
    Total Energy =                        -74.9613087292380271

  UHF NO Occupations:
  HONO-2 :    3 A1 1.9988113
  HONO-1 :    1 B1 1.0000000
  HONO-0 :    1 B2 1.0000000
  LUNO+0 :    4 A1 0.0011887
  LUNO+1 :    5 A1 0.0002207
  LUNO+2 :    6 A1 0.0000015
  LUNO+3 :    7 A1 0.0000000

Computation Completed

Properties will be evaluated at   0.000000,   0.000000,   0.000000 [a0]

Properties computed using the B3LYP density matrix

 Multipole Moments:

 ------------------------------------------------------------------------------------
     Multipole            Electronic (a.u.)      Nuclear  (a.u.)        Total (a.u.)
 ------------------------------------------------------------------------------------

 L = 1.  Multiply by 2.5417464519 to convert [e a0] to [Debye]
 Dipole X            :          0.0000000            0.0000000            0.0000000
 Dipole Y            :          0.0000000            0.0000000            0.0000000
 Dipole Z            :          0.0355367            0.5492429            0.5847795
 Magnitude           :                                                    0.5847795

 L = 2.  Multiply by 1.3450342976 to convert [e a0^2] to [Debye ang]
 Quadrupole XX       :         -2.7717598            0.0000000           -2.7717598
 Quadrupole XY       :          0.0000000            0.0000000            0.0000000
 Quadrupole XZ       :          0.0000000            0.0000000            0.0000000
 Quadrupole YY       :         -2.7717598            0.0000000           -2.7717598
 Quadrupole YZ       :          0.0000000            0.0000000            0.0000000
 Quadrupole ZZ       :         -3.8131143            1.2655289           -2.5475853
 Traceless XX        :          0.3471181           -0.4218430           -0.0747248
 Traceless YY        :          0.3471181           -0.4218430           -0.0747248
 Traceless ZZ        :         -0.6942363            0.8436860            0.1494497

 ------------------------------------------------------------------------------------
  ==> Computing MBIS Charges <==

  Electron Count from Grid (Expected Number):  8.00000 ( 8.00000)
  Difference:  0.00000

  MBIS Charges: (a.u.)
   Center  Symbol  Z      Pop.       Charge
      1       O    8    7.409415    0.590585
      2       H    1    0.590586    0.409414

  MBIS Dipoles: [e a0]
   Center  Symbol  Z        X           Y           Z
      1       O    8   -0.000000    0.000000    0.147854
      2       H    1    0.000000    0.000000    0.024709

  MBIS Quadrupoles: [e a0^2]
   Center  Symbol  Z      XX        XY        XZ        YY        YZ        ZZ
      1       O    8   -2.6404    0.0000    0.0000   -2.6404   -0.0000   -2.9582
      2       H    1   -0.1314   -0.0000   -0.0000   -0.1314   -0.0000   -0.1285

  MBIS Octupoles: [e a0^3]
   Center  Symbol  Z      XXX       XXY       XXZ       XYY       XYZ       XZZ       YYY       YYZ       YZZ       ZZZ
      1       O    8   -0.0000   -0.0000    0.1317   -0.0000    0.0000    0.0000   -0.0000    0.1317   -0.0000    0.3108
      2       H    1   -0.0000    0.0000    0.0034    0.0000    0.0000    0.0000   -0.0000    0.0034    0.0000    0.0065

  MBIS Radial Moments:
   Center  Symbol  Z      [a0^2]      [a0^3]      [a0^4]
      1       O    8    8.238966   13.625295   27.057531
      2       H    1    0.391287    0.451423    0.625973

  MBIS Valence Widths: [a0]
   Center  Symbol  Z     Width
      1       O    8    0.345321
      2       H    1    0.237763

*** tstop() called on Mac.lan at Sun Aug 10 18:29:15 2025
Module time:
	user time   =       3.44 seconds =       0.06 minutes
	system time =       2.24 seconds =       0.04 minutes
	total time  =          1 seconds =       0.02 minutes
Total time:
	user time   =      14.38 seconds =       0.24 minutes
	system time =       4.88 seconds =       0.08 minutes
	total time  =          2 seconds =       0.03 minutes

    Psi4 stopped on: Sunday, 10 August 2025 06:29PM
    Psi4 wall time for execution: 0:00:01.94

*** Psi4 exiting successfully. Buy a developer a beer!
