                               Psi4 1.9.1 release

  ==> Input File <==

--------------------------------------------------------------------------
molecule {
1 2
O           0.000000           0.000000           0.000000
O           0.000000           0.000000           1.314029
}

set {
basis              cc-pvtz
reference          uks
maxiter            500
DAMPING_PERCENTAGE 1
E_CONVERGENCE      1.0E-8
D_CONVERGENCE      1.0E-8
DIIS_MAX_VECS      400
MBIS_MAXITER       8000
guess              read
}

E, wfn = energy('b3lyp', restart_file='last_wfn', return_wfn=True)
properties('b3lyp','MBIS_CHARGES', wfn=wfn)
wfn.to_file('last_wfn')
--------------------------------------------------------------------------

    Molecular point group: d2h
  Charge       = 1
  Multiplicity = 2
  Basis Set: CC-PVTZ
    Blend: CC-PVTZ
  Basis Set: (CC-PVTZ AUX)
    Blend: CC-PVTZ-JKFIT
  @DF-UKS Final Energy:  -149.86312123602346
    Total Energy =                       -149.8631212360234599
 Dipole X            :          0.0000000            0.0000000            0.0000000
 Dipole Y            :          0.0000000            0.0000000            0.0000000
 Dipole Z            :          0.0000000            0.0000000            0.0000000
 Magnitude           :                                                    0.0000000
    Molecular point group: d2h

    Geometry (in Angstrom), charge = 1, multiplicity = 2:

       Center              X                  Y                   Z               Mass
    ------------   -----------------  -----------------  -----------------  -----------------
         O            0.000000000000     0.000000000000    -0.657014500000    15.994914619570
         O            0.000000000000     0.000000000000     0.657014500000    15.994914619570

  Charge       = 1
  Multiplicity = 2
  Basis Set: CC-PVTZ
    Blend: CC-PVTZ
  Basis Set: (CC-PVTZ AUX)
    Blend: CC-PVTZ-JKFIT

    Orbital Energies [Eh]
    ---------------------

    Alpha Occupied:

       1Ag   -19.824731     1B1u  -19.824558     2Ag    -1.688653
       2B1u   -1.304362     3Ag    -0.979731     1B3u   -0.979647
       1B2u   -0.936559     1B2g   -0.790279

    Alpha Virtual:

       1B3g   -0.667084     3B1u   -0.373441     4B1u    0.153714
       2B3u    0.157940     2B2u    0.162804     4Ag     0.239095
       2B2g    0.284596     5Ag     0.286516     2B3g    0.291493
       3B2u    0.821037     3B3u    0.823513     5B1u    0.829850
       1B1g    0.830855     6Ag     0.832136     1Au     1.165082
       6B1u    1.166664     7Ag     1.534243     3B2g    1.684896
       3B3g    1.686060     7B1u    1.775118     4B3u    2.924031
       4B2u    2.941144     8Ag     3.027360     4B2g    3.166675
       4B3g    3.181843     8B1u    4.100265     5B2u    4.163180
       5B3u    4.167768     2B1g    4.201349     9Ag     4.202696
      10Ag     4.298911     6B3u    4.499248     6B2u    4.499530
       5B2g    4.642338     5B3g    4.642627     2Au     5.014158
       9B1u    5.015889     3B1g    5.529932    11Ag     5.533994
       6B2g    5.588452     6B3g    5.595529     3Au     5.725112
      10B1u    5.728366     7B3u    5.767958     7B2u    5.776844
      11B1u    5.789312    12B1u    5.900528    12Ag     6.241427
       7B2g    6.490355     7B3g    6.490507    13Ag     7.079679
      13B1u    9.727321

    Beta Occupied:

       1Ag   -19.808416     1B1u  -19.808183     2Ag    -1.657019
       2B1u   -1.257233     3Ag    -0.960857     1B2u   -0.922564
       1B3u   -0.878635

    Beta Virtual:

       1B3g   -0.649669     1B2g   -0.601291     3B1u   -0.351274
       4B1u    0.159268     2B2u    0.167413     2B3u    0.188290
       4Ag     0.243167     2B3g    0.296169     5Ag     0.297528
       2B2g    0.314543     3B2u    0.822620     5B1u    0.845428
       3B3u    0.848359     1B1g    0.853846     6Ag     0.853870
       1Au     1.196205     6B1u    1.196370     7Ag     1.550922
       3B3g    1.689966     3B2g    1.716254     7B1u    1.784691
       4B2u    2.951903     4B3u    2.989587     8Ag     3.037277
       4B3g    3.193946     4B2g    3.234576     8B1u    4.117334
       5B2u    4.167181     5B3u    4.198134     9Ag     4.221681
       2B1g    4.224358    10Ag     4.319289     6B2u    4.537163
       6B3u    4.537209     5B3g    4.681087     5B2g    4.681106
       2Au     5.043201     9B1u    5.043325    11Ag     5.589498
       3B1g    5.589617     6B3g    5.602475     6B2g    5.639076
      10B1u    5.770347     3Au     5.781756     7B2u    5.783719
       7B3u    5.822724    11B1u    5.824112    12B1u    5.914831
      12Ag     6.256205     7B3g    6.494528     7B2g    6.527704
      13Ag     7.109077    13B1u    9.748794

    Final Occupation by Irrep:
             Ag   B1g   B2g   B3g    Au   B1u   B2u   B3u
    DOCC [     3,    0,    0,    0,    0,    2,    1,    1 ]
    SOCC [     0,    0,    1,    0,    0,    0,    0,    0 ]
    NA   [     3,    0,    1,    0,    0,    2,    1,    1 ]
    NB   [     3,    0,    0,    0,    0,    2,    1,    1 ]

  @DF-UKS Final Energy:  -149.86312123583960

   => Energetics <=

    Nuclear Repulsion Energy =             25.7736636580166838
    One-Electron Energy =                -250.0947910544346939
    Two-Electron Energy =                  87.7507612551127494
    DFT Exchange-Correlation Energy =     -13.2927550945343178
    Empirical Dispersion Energy =           0.0000000000000000
    VV10 Nonlocal Energy =                  0.0000000000000000
    Total Energy =                       -149.8631212358395999

  UHF NO Occupations:
  HONO-2 :    2B1u 1.9997229
  HONO-1 :    1B3u 1.9988279
  HONO-0 :    1B2g 1.0000000
  LUNO+0 :    2B3u 0.0011721
  LUNO+1 :    3B1u 0.0002771
  LUNO+2 :    4 Ag 0.0001464
  LUNO+3 :    2B2u 0.0000374

Computation Completed

Properties will be evaluated at   0.000000,   0.000000,   0.000000 [a0]

Properties computed using the B3LYP density matrix

 Multipole Moments:

 ------------------------------------------------------------------------------------
     Multipole            Electronic (a.u.)      Nuclear  (a.u.)        Total (a.u.)
 ------------------------------------------------------------------------------------

 L = 1.  Multiply by 2.5417464519 to convert [e a0] to [Debye]
 Dipole X            :          0.0000000            0.0000000            0.0000000
 Dipole Y            :          0.0000000            0.0000000            0.0000000
 Dipole Z            :          0.0000000            0.0000000            0.0000000
 Magnitude           :                                                    0.0000000

 L = 2.  Multiply by 1.3450342976 to convert [e a0^2] to [Debye ang]
 Quadrupole XX       :         -6.3971666            0.0000000           -6.3971666
 Quadrupole XY       :          0.0000000            0.0000000            0.0000000
 Quadrupole XZ       :          0.0000000            0.0000000            0.0000000
 Quadrupole YY       :         -5.8525730            0.0000000           -5.8525730
 Quadrupole YZ       :          0.0000000            0.0000000            0.0000000
 Quadrupole ZZ       :        -29.0060508           24.6642336           -4.3418172
 Traceless XX        :          7.3547636           -8.2214112           -0.8666476
 Traceless YY        :          7.8993571           -8.2214112           -0.3220541
 Traceless ZZ        :        -15.2541207           16.4428224            1.1887017

 ------------------------------------------------------------------------------------
  ==> Computing MBIS Charges <==

  Electron Count from Grid (Expected Number): 15.00000 (15.00000)
  Difference: -0.00000

  MBIS Charges: (a.u.)
   Center  Symbol  Z      Pop.       Charge
      1       O    8    7.500000    0.500000
      2       O    8    7.500000    0.500000

  MBIS Dipoles: [e a0]
   Center  Symbol  Z        X           Y           Z
      1       O    8   -0.000000    0.000000   -0.065128
      2       O    8   -0.000000   -0.000000    0.065128

  MBIS Quadrupoles: [e a0^2]
   Center  Symbol  Z      XX        XY        XZ        YY        YZ        ZZ
      1       O    8   -3.1986   -0.0000   -0.0000   -2.9263    0.0000   -3.1034
      2       O    8   -3.1986   -0.0000    0.0000   -2.9263   -0.0000   -3.1034

  MBIS Octupoles: [e a0^3]
   Center  Symbol  Z      XXX       XXY       XXZ       XYY       XYZ       XZZ       YYY       YYZ       YZZ       ZZZ
      1       O    8   -0.0000    0.0000   -0.0564   -0.0000   -0.0000   -0.0000    0.0000   -0.1168    0.0000   -0.3586
      2       O    8   -0.0000   -0.0000    0.0564   -0.0000    0.0000   -0.0000    0.0000    0.1168    0.0000    0.3586

  MBIS Radial Moments:
   Center  Symbol  Z      [a0^2]      [a0^3]      [a0^4]
      1       O    8    9.228259   16.103671   33.727278
      2       O    8    9.228259   16.103671   33.727278

  MBIS Valence Widths: [a0]
   Center  Symbol  Z     Width
      1       O    8    0.363775
      2       O    8    0.363775

*** tstop() called on Mac.lan at Sun Aug 10 18:13:45 2025
Module time:
	user time   =       4.28 seconds =       0.07 minutes
	system time =       1.35 seconds =       0.02 minutes
	total time  =          1 seconds =       0.02 minutes
Total time:
	user time   =      16.24 seconds =       0.27 minutes
	system time =       3.47 seconds =       0.06 minutes
	total time  =          2 seconds =       0.03 minutes

    Psi4 stopped on: Sunday, 10 August 2025 06:13PM
    Psi4 wall time for execution: 0:00:01.94

*** Psi4 exiting successfully. Buy a developer a beer!
