                               Psi4 1.9.1 release

  ==> Input File <==

--------------------------------------------------------------------------
molecule {
1 3
O           0.000000           0.000000           0.000000
H           0.000000           0.000000           1.214205
}

set {
basis              cc-pvtz
reference          uks
maxiter            500
DAMPING_PERCENTAGE 1
E_CONVERGENCE      1.0E-8
D_CONVERGENCE      1.0E-8
DIIS_MAX_VECS      400
MBIS_MAXITER       8000
guess              read
}

E, wfn = energy('b3lyp', restart_file='last_wfn', return_wfn=True)
properties('b3lyp','MBIS_CHARGES', wfn=wfn)
wfn.to_file('last_wfn')
--------------------------------------------------------------------------

    Molecular point group: c2v
  Charge       = 1
  Multiplicity = 3
  Basis Set: CC-PVTZ
    Blend: CC-PVTZ
  Basis Set: (CC-PVTZ AUX)
    Blend: CC-PVTZ-JKFIT
  @DF-UKS Final Energy:   -75.26862806321073
    Total Energy =                        -75.2686280632107270
 Dipole X            :          0.0000000            0.0000000            0.0000000
 Dipole Y            :          0.0000000            0.0000000            0.0000000
 Dipole Z            :          0.0173612            1.0704636            1.0878248
 Magnitude           :                                                    1.0878248
    Molecular point group: c2v

    Geometry (in Angstrom), charge = 1, multiplicity = 3:

       Center              X                  Y                   Z               Mass
    ------------   -----------------  -----------------  -----------------  -----------------
         O            0.000000000000     0.000000000000    -0.071971118674    15.994914619570
         H            0.000000000000     0.000000000000     1.142233881326     1.007825032230

  Charge       = 1
  Multiplicity = 3
  Basis Set: CC-PVTZ
    Blend: CC-PVTZ
  Basis Set: (CC-PVTZ AUX)
    Blend: CC-PVTZ-JKFIT

    Orbital Energies [Eh]
    ---------------------

    Alpha Occupied:

       1A1   -19.798134     2A1    -1.515434     3A1    -0.929426
       1B2    -0.921848     1B1    -0.921848

    Alpha Virtual:

       4A1    -0.390798     5A1    -0.028804     2B2     0.131735
       2B1     0.131735     6A1     0.199869     3B1     0.327207
       3B2     0.327207     7A1     0.478148     8A1     0.713451
       1A2     0.946929     9A1     0.946929     4B1     1.180586
       4B2     1.180586    10A1     1.638538    11A1     1.911882
       2A2     2.758727    12A1     2.758728     5B1     2.768074
       5B2     2.768074    13A1     2.867590     6B1     3.181681
       6B2     3.181681     7B1     3.350329     7B2     3.350329
      14A1     3.444935    15A1     4.325443     8B2     4.527110
       8B1     4.527110    16A1     4.627955     3A2     4.627955
       9B1     5.154435     9B2     5.154435    17A1     5.524353
      18A1     5.543223     4A2     5.543225    10B1     5.889971
      10B2     5.889971    19A1     6.315422    20A1     7.776956

    Beta Occupied:

       1A1   -19.741195     2A1    -1.354442     3A1    -0.879061

    Beta Virtual:

       1B1    -0.619683     1B2    -0.619683     4A1    -0.378338
       5A1    -0.029670     2B2     0.188909     2B1     0.188909
       6A1     0.217868     3B1     0.344714     3B2     0.344714
       7A1     0.531179     8A1     0.728478     9A1     1.059264
       1A2     1.059264     4B1     1.234955     4B2     1.234955
      10A1     1.680277    11A1     1.892284     2A2     2.751311
      12A1     2.751312     5B1     2.822619     5B2     2.822619
      13A1     2.883857     6B1     3.227095     6B2     3.227095
       7B1     3.389483     7B2     3.389483    14A1     3.457144
      15A1     4.367641     8B2     4.678819     8B1     4.678819
       3A2     4.726797    16A1     4.726798     9B1     5.232013
       9B2     5.232013    17A1     5.575415    18A1     5.757408
       4A2     5.757410    10B1     5.992452    10B2     5.992452
      19A1     6.404941    20A1     7.852219

    Final Occupation by Irrep:
             A1    A2    B1    B2
    DOCC [     3,    0,    0,    0 ]
    SOCC [     0,    0,    1,    1 ]
    NA   [     3,    0,    1,    1 ]
    NB   [     3,    0,    0,    0 ]

  @DF-UKS Final Energy:   -75.26862806394944

   => Energetics <=

    Nuclear Repulsion Energy =              3.4865757309185850
    One-Electron Energy =                -106.5403952845717299
    Two-Electron Energy =                  34.6130266873982890
    DFT Exchange-Correlation Energy =      -6.8278351976945890
    Empirical Dispersion Energy =           0.0000000000000000
    VV10 Nonlocal Energy =                  0.0000000000000000
    Total Energy =                        -75.2686280639494356

  UHF NO Occupations:
  HONO-2 :    3 A1 1.9965618
  HONO-1 :    1 B1 1.0000000
  HONO-0 :    1 B2 1.0000000
  LUNO+0 :    4 A1 0.0034382
  LUNO+1 :    5 A1 0.0008362
  LUNO+2 :    6 A1 0.0000014
  LUNO+3 :    7 A1 0.0000000

Computation Completed

Properties will be evaluated at   0.000000,   0.000000,   0.000000 [a0]

Properties computed using the B3LYP density matrix

 Multipole Moments:

 ------------------------------------------------------------------------------------
     Multipole            Electronic (a.u.)      Nuclear  (a.u.)        Total (a.u.)
 ------------------------------------------------------------------------------------

 L = 1.  Multiply by 2.5417464519 to convert [e a0] to [Debye]
 Dipole X            :          0.0000000            0.0000000            0.0000000
 Dipole Y            :          0.0000000            0.0000000            0.0000000
 Dipole Z            :          0.0173612            1.0704636            1.0878248
 Magnitude           :                                                    1.0878248

 L = 2.  Multiply by 1.3450342976 to convert [e a0^2] to [Debye ang]
 Quadrupole XX       :         -3.1345034            0.0000000           -3.1345034
 Quadrupole XY       :          0.0000000            0.0000000            0.0000000
 Quadrupole XZ       :          0.0000000            0.0000000            0.0000000
 Quadrupole YY       :         -3.1345034            0.0000000           -3.1345034
 Quadrupole YZ       :          0.0000000            0.0000000            0.0000000
 Quadrupole ZZ       :         -5.5481640            4.8071424           -0.7410216
 Traceless XX        :          0.8045535           -1.6023808           -0.7978273
 Traceless YY        :          0.8045535           -1.6023808           -0.7978273
 Traceless ZZ        :         -1.6091071            3.2047616            1.5956545

 ------------------------------------------------------------------------------------
  ==> Computing MBIS Charges <==

  Electron Count from Grid (Expected Number):  8.00000 ( 8.00000)
  Difference:  0.00000

  MBIS Charges: (a.u.)
   Center  Symbol  Z      Pop.       Charge
      1       O    8    7.553681    0.446319
      2       H    1    0.446319    0.553681

  MBIS Dipoles: [e a0]
   Center  Symbol  Z        X           Y           Z
      1       O    8   -0.000000    0.000000   -0.111618
      2       H    1    0.000000    0.000000    0.065018

  MBIS Quadrupoles: [e a0^2]
   Center  Symbol  Z      XX        XY        XZ        YY        YZ        ZZ
      1       O    8   -2.9020   -0.0000   -0.0000   -2.9020   -0.0000   -3.4267
      2       H    1   -0.2325    0.0000    0.0000   -0.2325    0.0000   -0.2133

  MBIS Octupoles: [e a0^3]
   Center  Symbol  Z      XXX       XXY       XXZ       XYY       XYZ       XZZ       YYY       YYZ       YZZ       ZZZ
      1       O    8   -0.0000   -0.0000   -0.0847    0.0000    0.0000    0.0000   -0.0000   -0.0847   -0.0000   -0.3359
      2       H    1    0.0000    0.0000    0.0208    0.0000    0.0000    0.0000   -0.0000    0.0208    0.0000    0.0741

  MBIS Radial Moments:
   Center  Symbol  Z      [a0^2]      [a0^3]      [a0^4]
      1       O    8    9.230791   15.948423   32.942928
      2       H    1    0.678230    1.168528    2.397305

  MBIS Valence Widths: [a0]
   Center  Symbol  Z     Width
      1       O    8    0.362574
      2       H    1    0.361518

*** tstop() called on Mac.lan at Sun Aug 10 18:29:48 2025
Module time:
	user time   =       2.59 seconds =       0.04 minutes
	system time =       2.20 seconds =       0.04 minutes
	total time  =          0 seconds =       0.00 minutes
Total time:
	user time   =      19.59 seconds =       0.33 minutes
	system time =       5.15 seconds =       0.09 minutes
	total time  =          3 seconds =       0.05 minutes

    Psi4 stopped on: Sunday, 10 August 2025 06:29PM
    Psi4 wall time for execution: 0:00:02.65

*** Psi4 exiting successfully. Buy a developer a beer!
