                               Psi4 1.9.1 release

  ==> Input File <==

--------------------------------------------------------------------------
molecule {
1 2
N           0.000000           0.000000           0.000000
N           0.000000           0.000000           1.312201
}

set {
basis              cc-pvtz
reference          uks
maxiter            500
DAMPING_PERCENTAGE 1
E_CONVERGENCE      1.0E-8
D_CONVERGENCE      1.0E-8
DIIS_MAX_VECS      400
MBIS_MAXITER       8000
guess              read
}

E, wfn = energy('b3lyp', restart_file='last_wfn', return_wfn=True)
properties('b3lyp','MBIS_CHARGES', wfn=wfn)
wfn.to_file('last_wfn')
--------------------------------------------------------------------------

    Molecular point group: d2h
  Charge       = 1
  Multiplicity = 2
  Basis Set: CC-PVTZ
    Blend: CC-PVTZ
  Basis Set: (CC-PVTZ AUX)
    Blend: CC-PVTZ-JKFIT
  @DF-UKS Final Energy:  -108.92017214853944
    Total Energy =                       -108.9201721485394359
 Dipole X            :          0.0000000            0.0000000            0.0000000
 Dipole Y            :          0.0000000            0.0000000            0.0000000
 Dipole Z            :          0.0000000           -0.0000000           -0.0000000
 Magnitude           :                                                    0.0000000
    Molecular point group: d2h

    Geometry (in Angstrom), charge = 1, multiplicity = 2:

       Center              X                  Y                   Z               Mass
    ------------   -----------------  -----------------  -----------------  -----------------
         N            0.000000000000     0.000000000000    -0.656100500000    14.003074004430
         N            0.000000000000     0.000000000000     0.656100500000    14.003074004430

  Charge       = 1
  Multiplicity = 2
  Basis Set: CC-PVTZ
    Blend: CC-PVTZ
  Basis Set: (CC-PVTZ AUX)
    Blend: CC-PVTZ-JKFIT

    Orbital Energies [Eh]
    ---------------------

    Alpha Occupied:

       1Ag   -14.946265     1B1u  -14.945837     2Ag    -1.440514
       2B1u   -1.052765     3Ag    -0.885325     1B2u   -0.815483
       1B3u   -0.815483

    Alpha Virtual:

       1B3g   -0.518942     1B2g   -0.518942     3B1u   -0.159129
       4B1u    0.094783     2B3u    0.100317     2B2u    0.100317
       4Ag     0.121768     5Ag     0.141102     2B2g    0.210453
       2B3g    0.210453     1B1g    0.501979     6Ag     0.501979
       5B1u    0.545635     3B2u    0.587199     3B3u    0.587199
       1Au     0.837095     6B1u    0.837095     7Ag     1.233234
       3B3g    1.250437     3B2g    1.250437     7B1u    1.278216
       4B3u    2.295979     4B2u    2.295979     8Ag     2.403147
       4B2g    2.526148     4B3g    2.526148     2B1g    3.043588
       9Ag     3.043589     5B2u    3.085082     5B3u    3.085082
       8B1u    3.156343    10Ag     3.244861     6B3u    3.312932
       6B2u    3.312932     5B2g    3.552460     5B3g    3.552460
       9B1u    3.823500    11Ag     3.907577     3B1g    3.907580
      10B1u    3.941623     2Au     3.941624     6B3g    4.126601
       6B2g    4.126601    11B1u    4.163978     3Au     4.163979
       7B2u    4.254303     7B3u    4.254303    12B1u    4.636118
      12Ag     4.883267    13Ag     5.116686     7B2g    5.189601
       7B3g    5.189601    13B1u    9.773457

    Beta Occupied:

       1Ag   -14.933595     1B1u  -14.933312     2Ag    -1.409588
       2B1u   -0.971716     1B2u   -0.803238     1B3u   -0.803238

    Beta Virtual:

       3Ag    -0.704322     1B3g   -0.499688     1B2g   -0.499688
       3B1u   -0.118048     2B3u    0.104152     2B2u    0.104152
       4B1u    0.139669     4Ag     0.148196     5Ag     0.157884
       2B2g    0.214988     2B3g    0.214988     1B1g    0.504876
       6Ag     0.504876     5B1u    0.555333     3B2u    0.618095
       3B3u    0.618095     1Au     0.844059     6B1u    0.844059
       7Ag     1.273397     3B3g    1.279139     3B2g    1.279139
       7B1u    1.318611     4B3u    2.309085     4B2u    2.309085
       8Ag     2.452704     4B2g    2.534017     4B3g    2.534017
       2B1g    3.068952     9Ag     3.068952     5B2u    3.115335
       5B3u    3.115335     8B1u    3.202207    10Ag     3.302464
       6B3u    3.316920     6B2u    3.316920     5B2g    3.556631
       5B3g    3.556631     9B1u    3.881059    11Ag     3.916163
       3B1g    3.916167    10B1u    3.941907     2Au     3.941909
       6B3g    4.179728     6B2g    4.179728    11B1u    4.196337
       3Au     4.196338     7B2u    4.310332     7B3u    4.310332
      12B1u    4.698122    12Ag     4.905753    13Ag     5.183249
       7B2g    5.228800     7B3g    5.228800    13B1u    9.795264

    Final Occupation by Irrep:
             Ag   B1g   B2g   B3g    Au   B1u   B2u   B3u
    DOCC [     2,    0,    0,    0,    0,    2,    1,    1 ]
    SOCC [     1,    0,    0,    0,    0,    0,    0,    0 ]
    NA   [     3,    0,    0,    0,    0,    2,    1,    1 ]
    NB   [     2,    0,    0,    0,    0,    2,    1,    1 ]

  @DF-UKS Final Energy:  -108.92017214855208

   => Energetics <=

    Nuclear Repulsion Energy =             19.7604508172376079
    One-Electron Energy =                -180.9833304969379810
    Two-Electron Energy =                  62.8824212041039274
    DFT Exchange-Correlation Energy =     -10.5797136729556218
    Empirical Dispersion Energy =           0.0000000000000000
    VV10 Nonlocal Energy =                  0.0000000000000000
    Total Energy =                       -108.9201721485520693

  UHF NO Occupations:
  HONO-2 :    2 Ag 1.9998421
  HONO-1 :    2B1u 1.9969763
  HONO-0 :    3 Ag 1.0000000
  LUNO+0 :    3B1u 0.0030237
  LUNO+1 :    4 Ag 0.0001579
  LUNO+2 :    2B3u 0.0001059
  LUNO+3 :    2B2u 0.0001059

Computation Completed

Properties will be evaluated at   0.000000,   0.000000,   0.000000 [a0]

Properties computed using the B3LYP density matrix

 Multipole Moments:

 ------------------------------------------------------------------------------------
     Multipole            Electronic (a.u.)      Nuclear  (a.u.)        Total (a.u.)
 ------------------------------------------------------------------------------------

 L = 1.  Multiply by 2.5417464519 to convert [e a0] to [Debye]
 Dipole X            :          0.0000000            0.0000000            0.0000000
 Dipole Y            :          0.0000000            0.0000000            0.0000000
 Dipole Z            :          0.0000000           -0.0000000           -0.0000000
 Magnitude           :                                                    0.0000000

 L = 2.  Multiply by 1.3450342976 to convert [e a0^2] to [Debye ang]
 Quadrupole XX       :         -6.5653837            0.0000000           -6.5653837
 Quadrupole XY       :          0.0000000            0.0000000            0.0000000
 Quadrupole XZ       :          0.0000000            0.0000000            0.0000000
 Quadrupole YY       :         -6.5653837            0.0000000           -6.5653837
 Quadrupole YZ       :          0.0000000            0.0000000            0.0000000
 Quadrupole ZZ       :        -25.2215614           21.5212012           -3.7003602
 Traceless XX        :          6.2187259           -7.1737337           -0.9550078
 Traceless YY        :          6.2187259           -7.1737337           -0.9550078
 Traceless ZZ        :        -12.4374518           14.3474675            1.9100157

 ------------------------------------------------------------------------------------
  ==> Computing MBIS Charges <==

  Electron Count from Grid (Expected Number): 13.00000 (13.00000)
  Difference:  0.00000

  MBIS Charges: (a.u.)
   Center  Symbol  Z      Pop.       Charge
      1       N    7    6.500000    0.500000
      2       N    7    6.500000    0.500000

  MBIS Dipoles: [e a0]
   Center  Symbol  Z        X           Y           Z
      1       N    7   -0.000000    0.000000   -0.272428
      2       N    7    0.000000   -0.000000    0.272428

  MBIS Quadrupoles: [e a0^2]
   Center  Symbol  Z      XX        XY        XZ        YY        YZ        ZZ
      1       N    7   -3.2827    0.0000   -0.0000   -3.2827   -0.0000   -3.2943
      2       N    7   -3.2827    0.0000    0.0000   -3.2827    0.0000   -3.2943

  MBIS Octupoles: [e a0^3]
   Center  Symbol  Z      XXX       XXY       XXZ       XYY       XYZ       XZZ       YYY       YYZ       YZZ       ZZZ
      1       N    7   -0.0000   -0.0000   -0.3156   -0.0000    0.0000    0.0000   -0.0000   -0.3156    0.0000   -0.7989
      2       N    7    0.0000    0.0000    0.3156   -0.0000   -0.0000    0.0000   -0.0000    0.3156   -0.0000    0.7989

  MBIS Radial Moments:
   Center  Symbol  Z      [a0^2]      [a0^3]      [a0^4]
      1       N    7    9.859718   19.256883   44.822400
      2       N    7    9.859718   19.256883   44.822400

  MBIS Valence Widths: [a0]
   Center  Symbol  Z     Width
      1       N    7    0.414921
      2       N    7    0.414921

*** tstop() called on Mac.lan at Sun Aug 10 18:25:22 2025
Module time:
	user time   =       3.12 seconds =       0.05 minutes
	system time =       2.50 seconds =       0.04 minutes
	total time  =          0 seconds =       0.00 minutes
Total time:
	user time   =      14.76 seconds =       0.25 minutes
	system time =       4.65 seconds =       0.08 minutes
	total time  =          1 seconds =       0.02 minutes

    Psi4 stopped on: Sunday, 10 August 2025 06:25PM
    Psi4 wall time for execution: 0:00:01.90

*** Psi4 exiting successfully. Buy a developer a beer!
