                               Psi4 1.9.1 release

  ==> Input File <==

--------------------------------------------------------------------------
molecule {
1 2
O           0.000000           0.000000           0.000000
C           0.000000           0.000000           1.196072
}

set {
basis              cc-pvtz
reference          uks
maxiter            500
DAMPING_PERCENTAGE 1
E_CONVERGENCE      1.0E-8
D_CONVERGENCE      1.0E-8
DIIS_MAX_VECS      400
MBIS_MAXITER       8000
guess              read
}

E, wfn = energy('b3lyp', restart_file='last_wfn', return_wfn=True)
properties('b3lyp','MBIS_CHARGES', wfn=wfn)
wfn.to_file('last_wfn')
--------------------------------------------------------------------------

    Molecular point group: c2v
  Charge       = 1
  Multiplicity = 2
  Basis Set: CC-PVTZ
    Blend: CC-PVTZ
  Basis Set: (CC-PVTZ AUX)
    Blend: CC-PVTZ-JKFIT
  @DF-UKS Final Energy:  -112.82262955078735
    Total Energy =                       -112.8226295507873544
 Dipole X            :          0.0000000            0.0000000            0.0000000
 Dipole Y            :          0.0000000            0.0000000            0.0000000
 Dipole Z            :          1.1209864           -0.0024635            1.1185229
 Magnitude           :                                                    1.1185229
    Molecular point group: c2v

    Geometry (in Angstrom), charge = 1, multiplicity = 2:

       Center              X                  Y                   Z               Mass
    ------------   -----------------  -----------------  -----------------  -----------------
         O            0.000000000000     0.000000000000    -0.512695401827    15.994914619570
         C            0.000000000000     0.000000000000     0.683376598173    12.000000000000

  Charge       = 1
  Multiplicity = 2
  Basis Set: CC-PVTZ
    Blend: CC-PVTZ
  Basis Set: (CC-PVTZ AUX)
    Blend: CC-PVTZ-JKFIT

    Orbital Energies [Eh]
    ---------------------

    Alpha Occupied:

       1A1   -19.662429     2A1   -10.817238     3A1    -1.527491
       4A1    -0.980042     5A1    -0.859383     1B1    -0.836483
       1B2    -0.836483

    Alpha Virtual:

       2B1    -0.462344     2B2    -0.462344     6A1    -0.130626
       7A1    -0.019321     3B1    -0.006600     3B2    -0.006600
       8A1     0.115810     9A1     0.251423    10A1     0.282682
       1A2     0.282682     4B1     0.327873     4B2     0.327873
       5B1     0.462361     5B2     0.462361    11A1     0.761452
      12A1     0.886913     2A2     1.143360    13A1     1.143360
       6B1     1.429270     6B2     1.429270    14A1     1.552892
       7B2     1.620441     7B1     1.620441    15A1     1.923190
       8B1     2.222285     8B2     2.222285    16A1     2.368147
       3A2     2.368147    17A1     2.463706     4A2     2.463706
       9B2     2.476699     9B1     2.476699    18A1     2.672635
      10B1     2.772939    10B2     2.772939    19A1     2.835722
      11B1     3.594126    11B2     3.594126    20A1     3.793825
      12B2     4.708799    12B1     4.708799     5A2     5.009688
      21A1     5.009689    22A1     5.537956    13B1     5.635618
      13B2     5.635618    23A1     5.833409     6A2     5.833430
      24A1     6.158368    14B1     6.330715    14B2     6.330715
      25A1     6.538795    26A1    10.794309

    Beta Occupied:

       1A1   -19.662561     2A1   -10.793150     3A1    -1.518687
       4A1    -0.933853     1B1    -0.834382     1B2    -0.834382

    Beta Virtual:

       5A1    -0.654447     2B1    -0.422055     2B2    -0.422055
       6A1    -0.111031     3B1     0.004085     3B2     0.004085
       7A1     0.017986     8A1     0.161899     9A1     0.258753
      10A1     0.303277     1A2     0.303277     4B1     0.325060
       4B2     0.325060     5B1     0.498733     5B2     0.498733
      11A1     0.787831    12A1     0.902862     2A2     1.141491
      13A1     1.141491     6B1     1.453810     6B2     1.453810
      14A1     1.606995     7B2     1.635267     7B1     1.635267
      15A1     1.967847     8B1     2.257559     8B2     2.257559
      16A1     2.393507     3A2     2.393507    17A1     2.531740
       4A2     2.531740     9B2     2.562178     9B1     2.562178
      18A1     2.758286    10B1     2.808923    10B2     2.808923
      19A1     2.892551    11B1     3.602252    11B2     3.602252
      20A1     3.823249    12B2     4.696708    12B1     4.696708
       5A2     5.011363    21A1     5.011364    22A1     5.558215
      13B1     5.650768    13B2     5.650768    23A1     5.818364
       6A2     5.818385    24A1     6.173943    14B1     6.340793
      14B2     6.340793    25A1     6.555855    26A1    10.811736

    Final Occupation by Irrep:
             A1    A2    B1    B2
    DOCC [     4,    0,    1,    1 ]
    SOCC [     1,    0,    0,    0 ]
    NA   [     5,    0,    1,    1 ]
    NB   [     4,    0,    1,    1 ]

  @DF-UKS Final Energy:  -112.82262954709417

   => Energetics <=

    Nuclear Repulsion Energy =             21.2366029069821991
    One-Electron Energy =                -190.1960854824566525
    Two-Electron Energy =                  67.0124044441757860
    DFT Exchange-Correlation Energy =     -10.8755514157955027
    Empirical Dispersion Energy =           0.0000000000000000
    VV10 Nonlocal Energy =                  0.0000000000000000
    Total Energy =                       -112.8226295470941665

  UHF NO Occupations:
  HONO-2 :    1 B1 1.9952448
  HONO-1 :    1 B2 1.9952448
  HONO-0 :    5 A1 1.0000000
  LUNO+0 :    2 B2 0.0047552
  LUNO+1 :    2 B1 0.0047552
  LUNO+2 :    6 A1 0.0005380
  LUNO+3 :    7 A1 0.0000306

Computation Completed

Properties will be evaluated at   0.000000,   0.000000,   0.000000 [a0]

Properties computed using the B3LYP density matrix

 Multipole Moments:

 ------------------------------------------------------------------------------------
     Multipole            Electronic (a.u.)      Nuclear  (a.u.)        Total (a.u.)
 ------------------------------------------------------------------------------------

 L = 1.  Multiply by 2.5417464519 to convert [e a0] to [Debye]
 Dipole X            :          0.0000000            0.0000000            0.0000000
 Dipole Y            :          0.0000000            0.0000000            0.0000000
 Dipole Z            :          1.1209864           -0.0024635            1.1185230
 Magnitude           :                                                    1.1185230

 L = 2.  Multiply by 1.3450342976 to convert [e a0^2] to [Debye ang]
 Quadrupole XX       :         -6.0793457            0.0000000           -6.0793457
 Quadrupole XY       :          0.0000000            0.0000000            0.0000000
 Quadrupole XZ       :          0.0000000            0.0000000            0.0000000
 Quadrupole YY       :         -6.0793457            0.0000000           -6.0793457
 Quadrupole YZ       :          0.0000000            0.0000000            0.0000000
 Quadrupole ZZ       :        -21.2838647           17.5156232           -3.7682415
 Traceless XX        :          5.0681730           -5.8385411           -0.7703681
 Traceless YY        :          5.0681730           -5.8385411           -0.7703681
 Traceless ZZ        :        -10.1363460           11.6770821            1.5407361

 ------------------------------------------------------------------------------------
  ==> Computing MBIS Charges <==

  Electron Count from Grid (Expected Number): 13.00000 (13.00000)
  Difference:  0.00000

  MBIS Charges: (a.u.)
   Center  Symbol  Z      Pop.       Charge
      1       O    8    7.992943    0.007057
      2       C    6    5.007057    0.992943

  MBIS Dipoles: [e a0]
   Center  Symbol  Z        X           Y           Z
      1       O    8    0.000000   -0.000000   -0.300839
      2       C    6    0.000000    0.000000    0.143919

  MBIS Quadrupoles: [e a0^2]
   Center  Symbol  Z      XX        XY        XZ        YY        YZ        ZZ
      1       O    8   -3.4829   -0.0000    0.0000   -3.4829   -0.0000   -3.6176
      2       C    6   -2.5964   -0.0000    0.0000   -2.5964    0.0000   -2.7679

  MBIS Octupoles: [e a0^3]
   Center  Symbol  Z      XXX       XXY       XXZ       XYY       XYZ       XZZ       YYY       YYZ       YZZ       ZZZ
      1       O    8    0.0000   -0.0000   -0.2736   -0.0000    0.0000   -0.0000    0.0000   -0.2736    0.0000   -0.6729
      2       C    6    0.0000   -0.0000    0.1925    0.0000    0.0000    0.0000    0.0000    0.1925    0.0000    0.2804

  MBIS Radial Moments:
   Center  Symbol  Z      [a0^2]      [a0^3]      [a0^4]
      1       O    8   10.583391   18.928776   40.424899
      2       C    6    7.960747   16.560856   41.013872

  MBIS Valence Widths: [a0]
   Center  Symbol  Z     Width
      1       O    8    0.374836
      2       C    6    0.448615

*** tstop() called on Mac.lan at Sun Aug 10 18:37:41 2025
Module time:
	user time   =       3.43 seconds =       0.06 minutes
	system time =       2.37 seconds =       0.04 minutes
	total time  =          0 seconds =       0.00 minutes
Total time:
	user time   =      17.66 seconds =       0.29 minutes
	system time =       4.84 seconds =       0.08 minutes
	total time  =          2 seconds =       0.03 minutes

    Psi4 stopped on: Sunday, 10 August 2025 06:37PM
    Psi4 wall time for execution: 0:00:02.19

*** Psi4 exiting successfully. Buy a developer a beer!
