                               Psi4 1.9.1 release

  ==> Input File <==

--------------------------------------------------------------------------
molecule {
1 3
O           0.000000           0.000000           0.000000
H           0.000000           0.000000           1.195134
}

set {
basis              cc-pvtz
reference          uks
maxiter            500
DAMPING_PERCENTAGE 1
E_CONVERGENCE      1.0E-8
D_CONVERGENCE      1.0E-8
DIIS_MAX_VECS      400
MBIS_MAXITER       8000
guess              read
}

E, wfn = energy('b3lyp', restart_file='last_wfn', return_wfn=True)
properties('b3lyp','MBIS_CHARGES', wfn=wfn)
wfn.to_file('last_wfn')
--------------------------------------------------------------------------

    Molecular point group: c2v
  Charge       = 1
  Multiplicity = 3
  Basis Set: CC-PVTZ
    Blend: CC-PVTZ
  Basis Set: (CC-PVTZ AUX)
    Blend: CC-PVTZ-JKFIT
  @DF-UKS Final Energy:   -75.27080886520946
    Total Energy =                        -75.2708088652094602
 Dipole X            :          0.0000000            0.0000000            0.0000000
 Dipole Y            :          0.0000000            0.0000000            0.0000000
 Dipole Z            :          0.0129182            1.0536503            1.0665685
 Magnitude           :                                                    1.0665685
    Molecular point group: c2v

    Geometry (in Angstrom), charge = 1, multiplicity = 3:

       Center              X                  Y                   Z               Mass
    ------------   -----------------  -----------------  -----------------  -----------------
         O            0.000000000000     0.000000000000    -0.070840699013    15.994914619570
         H            0.000000000000     0.000000000000     1.124293300987     1.007825032230

  Charge       = 1
  Multiplicity = 3
  Basis Set: CC-PVTZ
    Blend: CC-PVTZ
  Basis Set: (CC-PVTZ AUX)
    Blend: CC-PVTZ-JKFIT

    Orbital Energies [Eh]
    ---------------------

    Alpha Occupied:

       1A1   -19.800395     2A1    -1.519847     3A1    -0.934432
       1B2    -0.924455     1B1    -0.924455

    Alpha Virtual:

       4A1    -0.384229     5A1    -0.027771     2B2     0.131856
       2B1     0.131856     6A1     0.196915     3B1     0.326492
       3B2     0.326492     7A1     0.481831     8A1     0.719391
       1A2     0.944457     9A1     0.944457     4B2     1.188535
       4B1     1.188535    10A1     1.636636    11A1     1.907414
       2A2     2.756674    12A1     2.756675     5B2     2.767997
       5B1     2.767997    13A1     2.895752     6B2     3.183028
       6B1     3.183028     7B1     3.365771     7B2     3.365771
      14A1     3.457167    15A1     4.329133     8B1     4.524640
       8B2     4.524640    16A1     4.635404     3A2     4.635404
       9B2     5.193393     9B1     5.193393    17A1     5.541923
      18A1     5.541927     4A2     5.541929    10B2     5.898771
      10B1     5.898771    19A1     6.301168    20A1     7.893649

    Beta Occupied:

       1A1   -19.743543     2A1    -1.359570     3A1    -0.883923

    Beta Virtual:

       1B2    -0.622252     1B1    -0.622252     4A1    -0.370990
       5A1    -0.027999     2B2     0.190085     2B1     0.190085
       6A1     0.214468     3B1     0.343682     3B2     0.343682
       7A1     0.536284     8A1     0.733341     9A1     1.056712
       1A2     1.056712     4B2     1.242830     4B1     1.242830
      10A1     1.677942    11A1     1.889598    12A1     2.750752
       2A2     2.750752     5B2     2.825141     5B1     2.825141
      13A1     2.911958     6B1     3.226908     6B2     3.226908
       7B2     3.406562     7B1     3.406562    14A1     3.471235
      15A1     4.372761     8B1     4.676390     8B2     4.676390
       3A2     4.733993    16A1     4.733993     9B2     5.271693
       9B1     5.271693    17A1     5.592959    18A1     5.756014
       4A2     5.756016    10B2     5.999606    10B1     5.999606
      19A1     6.389239    20A1     7.968265

    Final Occupation by Irrep:
             A1    A2    B1    B2
    DOCC [     3,    0,    0,    0 ]
    SOCC [     0,    0,    1,    1 ]
    NA   [     3,    0,    1,    1 ]
    NB   [     3,    0,    0,    0 ]

  @DF-UKS Final Energy:   -75.27080886581619

   => Energetics <=

    Nuclear Repulsion Energy =              3.5422117397379709
    One-Electron Energy =                -106.6245111224655915
    Two-Electron Energy =                  34.6426275545083655
    DFT Exchange-Correlation Energy =      -6.8311370375969345
    Empirical Dispersion Energy =           0.0000000000000000
    VV10 Nonlocal Energy =                  0.0000000000000000
    Total Energy =                        -75.2708088658161927

  UHF NO Occupations:
  HONO-2 :    3 A1 1.9968360
  HONO-1 :    1 B2 1.0000000
  HONO-0 :    1 B1 1.0000000
  LUNO+0 :    4 A1 0.0031640
  LUNO+1 :    5 A1 0.0008248
  LUNO+2 :    6 A1 0.0000014
  LUNO+3 :    7 A1 0.0000000

Computation Completed

Properties will be evaluated at   0.000000,   0.000000,   0.000000 [a0]

Properties computed using the B3LYP density matrix

 Multipole Moments:

 ------------------------------------------------------------------------------------
     Multipole            Electronic (a.u.)      Nuclear  (a.u.)        Total (a.u.)
 ------------------------------------------------------------------------------------

 L = 1.  Multiply by 2.5417464519 to convert [e a0] to [Debye]
 Dipole X            :          0.0000000            0.0000000            0.0000000
 Dipole Y            :          0.0000000            0.0000000            0.0000000
 Dipole Z            :          0.0129182            1.0536503            1.0665685
 Magnitude           :                                                    1.0665685

 L = 2.  Multiply by 1.3450342976 to convert [e a0^2] to [Debye ang]
 Quadrupole XX       :         -3.1255320            0.0000000           -3.1255320
 Quadrupole XY       :          0.0000000            0.0000000            0.0000000
 Quadrupole XZ       :          0.0000000            0.0000000            0.0000000
 Quadrupole YY       :         -3.1255320            0.0000000           -3.1255320
 Quadrupole YZ       :          0.0000000            0.0000000            0.0000000
 Quadrupole ZZ       :         -5.4900948            4.6573208           -0.8327740
 Traceless XX        :          0.7881876           -1.5524403           -0.7642527
 Traceless YY        :          0.7881876           -1.5524403           -0.7642527
 Traceless ZZ        :         -1.5763752            3.1048806            1.5285054

 ------------------------------------------------------------------------------------
  ==> Computing MBIS Charges <==

  Electron Count from Grid (Expected Number):  8.00000 ( 8.00000)
  Difference:  0.00000

  MBIS Charges: (a.u.)
   Center  Symbol  Z      Pop.       Charge
      1       O    8    7.550421    0.449579
      2       H    1    0.449579    0.550421

  MBIS Dipoles: [e a0]
   Center  Symbol  Z        X           Y           Z
      1       O    8   -0.000000   -0.000000   -0.106337
      2       H    1    0.000000   -0.000000    0.063662

  MBIS Quadrupoles: [e a0^2]
   Center  Symbol  Z      XX        XY        XZ        YY        YZ        ZZ
      1       O    8   -2.8957    0.0000   -0.0000   -2.8957   -0.0000   -3.4130
      2       H    1   -0.2298   -0.0000    0.0000   -0.2298   -0.0000   -0.2114

  MBIS Octupoles: [e a0^3]
   Center  Symbol  Z      XXX       XXY       XXZ       XYY       XYZ       XZZ       YYY       YYZ       YZZ       ZZZ
      1       O    8   -0.0000   -0.0000   -0.0795    0.0000   -0.0000    0.0000   -0.0000   -0.0795   -0.0000   -0.3171
      2       H    1    0.0000   -0.0000    0.0194    0.0000   -0.0000    0.0000   -0.0000    0.0194   -0.0000    0.0707

  MBIS Radial Moments:
   Center  Symbol  Z      [a0^2]      [a0^3]      [a0^4]
      1       O    8    9.204391   15.879274   32.753508
      2       H    1    0.671064    1.146727    2.333996

  MBIS Valence Widths: [a0]
   Center  Symbol  Z     Width
      1       O    8    0.362156
      2       H    1    0.358208

*** tstop() called on Mac.lan at Sun Aug 10 18:29:45 2025
Module time:
	user time   =       4.30 seconds =       0.07 minutes
	system time =       2.51 seconds =       0.04 minutes
	total time  =          1 seconds =       0.02 minutes
Total time:
	user time   =      24.43 seconds =       0.41 minutes
	system time =       5.04 seconds =       0.08 minutes
	total time  =          3 seconds =       0.05 minutes

    Psi4 stopped on: Sunday, 10 August 2025 06:29PM
    Psi4 wall time for execution: 0:00:02.98

*** Psi4 exiting successfully. Buy a developer a beer!
