                               Psi4 1.9.1 release

  ==> Input File <==

--------------------------------------------------------------------------
molecule {
1 2
N           0.000000           0.000000           0.000000
N           0.000000           0.000000           0.987533
}

set {
basis              cc-pvtz
reference          uks
maxiter            500
DAMPING_PERCENTAGE 1
E_CONVERGENCE      1.0E-8
D_CONVERGENCE      1.0E-8
DIIS_MAX_VECS      400
MBIS_MAXITER       8000
guess              read
}

E, wfn = energy('b3lyp', restart_file='last_wfn', return_wfn=True)
properties('b3lyp','MBIS_CHARGES', wfn=wfn)
wfn.to_file('last_wfn')
--------------------------------------------------------------------------

    Molecular point group: d2h
  Charge       = 1
  Multiplicity = 2
  Basis Set: CC-PVTZ
    Blend: CC-PVTZ
  Basis Set: (CC-PVTZ AUX)
    Blend: CC-PVTZ-JKFIT
  @DF-UKS Final Energy:  -108.94047119387268
    Total Energy =                       -108.9404711938726820
 Dipole X            :          0.0000000            0.0000000            0.0000000
 Dipole Y            :          0.0000000            0.0000000            0.0000000
 Dipole Z            :          0.0000000            0.0000000            0.0000000
 Magnitude           :                                                    0.0000000
    Molecular point group: d2h

    Geometry (in Angstrom), charge = 1, multiplicity = 2:

       Center              X                  Y                   Z               Mass
    ------------   -----------------  -----------------  -----------------  -----------------
         N            0.000000000000     0.000000000000    -0.493766500000    14.003074004430
         N            0.000000000000     0.000000000000     0.493766500000    14.003074004430

  Charge       = 1
  Multiplicity = 2
  Basis Set: CC-PVTZ
    Blend: CC-PVTZ
  Basis Set: (CC-PVTZ AUX)
    Blend: CC-PVTZ-JKFIT

    Orbital Energies [Eh]
    ---------------------

    Alpha Occupied:

       1Ag   -14.896737     1B1u  -14.891828     2Ag    -1.653634
       2B1u   -0.992388     1B3u   -0.940856     1B2u   -0.940856
       3Ag    -0.918982

    Alpha Virtual:

       1B2g   -0.392057     1B3g   -0.392057     3B1u    0.017827
       2B3u    0.058509     2B2u    0.058509     4Ag     0.090753
       5Ag     0.127481     2B2g    0.231068     2B3g    0.231068
       4B1u    0.387220     6Ag     0.454483     1B1g    0.454483
       5B1u    0.637056     3B3u    0.762918     3B2u    0.762918
       6B1u    0.934398     1Au     0.934398     7Ag     1.268732
       3B3g    1.320470     3B2g    1.320470     7B1u    1.731253
       4B3u    2.293893     4B2u    2.293893     8Ag     2.557762
       4B3g    2.765469     4B2g    2.765469     8B1u    2.887571
       2B1g    3.075521     9Ag     3.075521     5B2u    3.129280
       5B3u    3.129280     6B3u    3.239404     6B2u    3.239404
      10Ag     3.582774     5B2g    3.754055     5B3g    3.754055
       6B3g    3.903117     6B2g    3.903117    11Ag     3.924552
       3B1g    3.924552     9B1u    4.045755     2Au     4.045755
      10B1u    4.444964    12Ag     4.501158     7B3u    4.692643
       7B2u    4.692643    11B1u    4.740196     3Au     4.740197
      12B1u    5.586922     7B2g    6.439284     7B3g    6.439284
      13Ag     6.830295    13B1u   19.628489

    Beta Occupied:

       1Ag   -14.883027     1B1u  -14.878549     2Ag    -1.623531
       1B3u   -0.927177     1B2u   -0.927177     2B1u   -0.897619

    Beta Virtual:

       3Ag    -0.738957     1B2g   -0.366677     1B3g   -0.366677
       3B1u    0.029094     2B3u    0.062820     2B2u    0.062820
       4Ag     0.107031     5Ag     0.156668     2B2g    0.237458
       2B3g    0.237458     4B1u    0.433597     6Ag     0.459288
       1B1g    0.459288     5B1u    0.652866     3B3u    0.795358
       3B2u    0.795358     6B1u    0.946324     1Au     0.946324
       7Ag     1.308147     3B3g    1.344559     3B2g    1.344559
       7B1u    1.773194     4B3u    2.304185     4B2u    2.304185
       8Ag     2.590365     4B3g    2.775491     4B2g    2.775491
       8B1u    2.935656     2B1g    3.089103     9Ag     3.089103
       5B2u    3.135384     5B3u    3.135384     6B3u    3.277487
       6B2u    3.277487    10Ag     3.662038     5B2g    3.763339
       5B3g    3.763339     3B1g    3.946848    11Ag     3.946848
       6B3g    3.965337     6B2g    3.965337     2Au     4.067203
       9B1u    4.067203    10B1u    4.495633    12Ag     4.540645
       7B3u    4.745135     7B2u    4.745135    11B1u    4.760874
       3Au     4.760875    12B1u    5.647850     7B2g    6.473686
       7B3g    6.473686    13Ag     6.859891    13B1u   19.648383

    Final Occupation by Irrep:
             Ag   B1g   B2g   B3g    Au   B1u   B2u   B3u
    DOCC [     2,    0,    0,    0,    0,    2,    1,    1 ]
    SOCC [     1,    0,    0,    0,    0,    0,    0,    0 ]
    NA   [     3,    0,    0,    0,    0,    2,    1,    1 ]
    NB   [     2,    0,    0,    0,    0,    2,    1,    1 ]

  @DF-UKS Final Energy:  -108.94047119392386

   => Energetics <=

    Nuclear Repulsion Energy =             26.2570297122526490
    One-Electron Energy =                -193.2044222469667147
    Two-Electron Energy =                  68.8751261828095096
    DFT Exchange-Correlation Energy =     -10.8682048420193080
    Empirical Dispersion Energy =           0.0000000000000000
    VV10 Nonlocal Energy =                  0.0000000000000000
    Total Energy =                       -108.9404711939238553

  UHF NO Occupations:
  HONO-2 :    2 Ag 1.9999099
  HONO-1 :    2B1u 1.9988203
  HONO-0 :    3 Ag 1.0000000
  LUNO+0 :    3B1u 0.0011797
  LUNO+1 :    4 Ag 0.0000901
  LUNO+2 :    2B2u 0.0000772
  LUNO+3 :    2B3u 0.0000772

Computation Completed

Properties will be evaluated at   0.000000,   0.000000,   0.000000 [a0]

Properties computed using the B3LYP density matrix

 Multipole Moments:

 ------------------------------------------------------------------------------------
     Multipole            Electronic (a.u.)      Nuclear  (a.u.)        Total (a.u.)
 ------------------------------------------------------------------------------------

 L = 1.  Multiply by 2.5417464519 to convert [e a0] to [Debye]
 Dipole X            :          0.0000000            0.0000000            0.0000000
 Dipole Y            :          0.0000000            0.0000000            0.0000000
 Dipole Z            :          0.0000000            0.0000000            0.0000000
 Magnitude           :                                                    0.0000000

 L = 2.  Multiply by 1.3450342976 to convert [e a0^2] to [Debye ang]
 Quadrupole XX       :         -5.8935937            0.0000000           -5.8935937
 Quadrupole XY       :          0.0000000            0.0000000            0.0000000
 Quadrupole XZ       :          0.0000000            0.0000000            0.0000000
 Quadrupole YY       :         -5.8935937            0.0000000           -5.8935937
 Quadrupole YZ       :          0.0000000            0.0000000            0.0000000
 Quadrupole ZZ       :        -16.8629678           12.1890263           -4.6739415
 Traceless XX        :          3.6564580           -4.0630088           -0.4065507
 Traceless YY        :          3.6564580           -4.0630088           -0.4065507
 Traceless ZZ        :         -7.3129161            8.1260175            0.8131014

 ------------------------------------------------------------------------------------
  ==> Computing MBIS Charges <==

  Electron Count from Grid (Expected Number): 13.00000 (13.00000)
  Difference: -0.00000

  MBIS Charges: (a.u.)
   Center  Symbol  Z      Pop.       Charge
      1       N    7    6.500000    0.500000
      2       N    7    6.500000    0.500000

  MBIS Dipoles: [e a0]
   Center  Symbol  Z        X           Y           Z
      1       N    7   -0.000000    0.000000   -0.190541
      2       N    7   -0.000000   -0.000000    0.190541

  MBIS Quadrupoles: [e a0^2]
   Center  Symbol  Z      XX        XY        XZ        YY        YZ        ZZ
      1       N    7   -2.9468    0.0000   -0.0000   -2.9468    0.0000   -3.1279
      2       N    7   -2.9468    0.0000    0.0000   -2.9468   -0.0000   -3.1279

  MBIS Octupoles: [e a0^3]
   Center  Symbol  Z      XXX       XXY       XXZ       XYY       XYZ       XZZ       YYY       YYZ       YZZ       ZZZ
      1       N    7   -0.0000   -0.0000   -0.1317    0.0000    0.0000    0.0000   -0.0000   -0.1317   -0.0000   -0.2589
      2       N    7   -0.0000   -0.0000    0.1317    0.0000   -0.0000    0.0000   -0.0000    0.1317   -0.0000    0.2589

  MBIS Radial Moments:
   Center  Symbol  Z      [a0^2]      [a0^3]      [a0^4]
      1       N    7    9.021468   16.791805   37.318296
      2       N    7    9.021468   16.791805   37.318296

  MBIS Valence Widths: [a0]
   Center  Symbol  Z     Width
      1       N    7    0.395219
      2       N    7    0.395219

*** tstop() called on Mac.lan at Sun Aug 10 18:24:19 2025
Module time:
	user time   =       3.62 seconds =       0.06 minutes
	system time =       2.22 seconds =       0.04 minutes
	total time  =          1 seconds =       0.02 minutes
Total time:
	user time   =      15.79 seconds =       0.26 minutes
	system time =       4.36 seconds =       0.07 minutes
	total time  =          2 seconds =       0.03 minutes

    Psi4 stopped on: Sunday, 10 August 2025 06:24PM
    Psi4 wall time for execution: 0:00:01.97

*** Psi4 exiting successfully. Buy a developer a beer!
