                               Psi4 1.9.1 release

  ==> Input File <==

--------------------------------------------------------------------------
molecule {
1 2
O           0.000000           0.000000           0.000000
O           0.000000           0.000000           1.496910
}

set {
basis              cc-pvtz
reference          uks
maxiter            500
DAMPING_PERCENTAGE 1
E_CONVERGENCE      1.0E-8
D_CONVERGENCE      1.0E-8
DIIS_MAX_VECS      400
MBIS_MAXITER       8000
guess              read
}

E, wfn = energy('b3lyp', restart_file='last_wfn', return_wfn=True)
properties('b3lyp','MBIS_CHARGES', wfn=wfn)
wfn.to_file('last_wfn')
--------------------------------------------------------------------------

    Molecular point group: d2h
  Charge       = 1
  Multiplicity = 2
  Basis Set: CC-PVTZ
    Blend: CC-PVTZ
  Basis Set: (CC-PVTZ AUX)
    Blend: CC-PVTZ-JKFIT
  @DF-UKS Final Energy:  -149.77817498786033
    Total Energy =                       -149.7781749878603250
 Dipole X            :          0.0000000            0.0000000            0.0000000
 Dipole Y            :          0.0000000            0.0000000            0.0000000
 Dipole Z            :          0.0000000            0.0000000            0.0000000
 Magnitude           :                                                    0.0000000
    Molecular point group: d2h

    Geometry (in Angstrom), charge = 1, multiplicity = 2:

       Center              X                  Y                   Z               Mass
    ------------   -----------------  -----------------  -----------------  -----------------
         O            0.000000000000     0.000000000000    -0.748455000000    15.994914619570
         O            0.000000000000     0.000000000000     0.748455000000    15.994914619570

  Charge       = 1
  Multiplicity = 2
  Basis Set: CC-PVTZ
    Blend: CC-PVTZ
  Basis Set: (CC-PVTZ AUX)
    Blend: CC-PVTZ-JKFIT

    Orbital Energies [Eh]
    ---------------------

    Alpha Occupied:

       1Ag   -19.820452     1B1u  -19.820358     2Ag    -1.578152
       2B1u   -1.338980     3Ag    -0.941619     1B3u   -0.928803
       1B2u   -0.881268     1B2g   -0.812922

    Alpha Virtual:

       1B3g   -0.693881     3B1u   -0.512989     2B3u    0.161903
       4B1u    0.166478     2B2u    0.168430     4Ag     0.260067
       2B2g    0.286117     2B3g    0.292529     5Ag     0.313851
       5B1u    0.777499     3B2u    0.790366     3B3u    0.793047
       1B1g    0.892832     6Ag     0.894128     1Au     1.119232
       6B1u    1.120735     7Ag     1.265846     3B2g    1.549164
       3B3g    1.550194     7B1u    1.868108     8Ag     2.924995
       4B3u    2.950778     4B2u    2.967463     4B2g    3.121272
       4B3g    3.137174     8B1u    3.746247     5B2u    4.216540
       5B3u    4.219490     9Ag     4.297320     2B1g    4.383546
      10Ag     4.385010     6B3u    4.562970     6B2u    4.563239
       5B2g    4.612911     5B3g    4.613187     2Au     4.788396
       9B1u    4.789965     6B2g    5.188271     6B3g    5.190634
      10B1u    5.466458     3B1g    5.540157    11Ag     5.544091
       7B3u    5.629566     7B2u    5.640014     3Au     5.686057
      11B1u    5.689931    12Ag     6.000397     7B2g    6.231090
       7B3g    6.236971    12B1u    6.678462    13Ag     6.895310
      13B1u    7.903864

    Beta Occupied:

       1Ag   -19.804499     1B1u  -19.804366     2Ag    -1.543272
       2B1u   -1.292092     3Ag    -0.925145     1B2u   -0.867152
       1B3u   -0.823872

    Beta Virtual:

       1B3g   -0.677092     1B2g   -0.629638     3B1u   -0.493135
       4B1u    0.172126     2B2u    0.173308     2B3u    0.194754
       4Ag     0.266455     2B3g    0.297093     2B2g    0.315370
       5Ag     0.323547     3B2u    0.791810     5B1u    0.792362
       3B3u    0.814768     6Ag     0.917019     1B1g    0.917239
       1Au     1.149246     6B1u    1.149466     7Ag     1.281500
       3B3g    1.554014     3B2g    1.579984     7B1u    1.879051
       8Ag     2.934004     4B2u    2.978087     4B3u    3.015066
       4B3g    3.148927     4B2g    3.188355     8B1u    3.762491
       5B2u    4.220691     5B3u    4.251423     9Ag     4.311916
       2B1g    4.408361    10Ag     4.411908     6B2u    4.600990
       6B3u    4.601034     5B3g    4.650963     5B2g    4.650988
       9B1u    4.815412     2Au     4.815453     6B3g    5.196279
       6B2g    5.228854    10B1u    5.482660    11Ag     5.598401
       3B1g    5.598800     7B2u    5.647264     7B3u    5.685618
       3Au     5.743435    11B1u    5.743724    12Ag     6.013279
       7B3g    6.242431     7B2g    6.277772    12B1u    6.699259
      13Ag     6.928248    13B1u    7.925146

    Final Occupation by Irrep:
             Ag   B1g   B2g   B3g    Au   B1u   B2u   B3u
    DOCC [     3,    0,    0,    0,    0,    2,    1,    1 ]
    SOCC [     0,    0,    1,    0,    0,    0,    0,    0 ]
    NA   [     3,    0,    1,    0,    0,    2,    1,    1 ]
    NB   [     3,    0,    0,    0,    0,    2,    1,    1 ]

  @DF-UKS Final Energy:  -149.77817498807903

   => Energetics <=

    Nuclear Repulsion Energy =             22.6248348149721785
    One-Electron Energy =                -244.1156373006878084
    Two-Electron Energy =                  84.9291285032000474
    DFT Exchange-Correlation Energy =     -13.2165010055634529
    Empirical Dispersion Energy =           0.0000000000000000
    VV10 Nonlocal Energy =                  0.0000000000000000
    Total Energy =                       -149.7781749880790301

  UHF NO Occupations:
  HONO-2 :    2B1u 1.9997633
  HONO-1 :    1B3u 1.9986126
  HONO-0 :    1B2g 1.0000000
  LUNO+0 :    2B3u 0.0013874
  LUNO+1 :    3B1u 0.0002367
  LUNO+2 :    4 Ag 0.0001502
  LUNO+3 :    2B2u 0.0000412

Computation Completed

Properties will be evaluated at   0.000000,   0.000000,   0.000000 [a0]

Properties computed using the B3LYP density matrix

 Multipole Moments:

 ------------------------------------------------------------------------------------
     Multipole            Electronic (a.u.)      Nuclear  (a.u.)        Total (a.u.)
 ------------------------------------------------------------------------------------

 L = 1.  Multiply by 2.5417464519 to convert [e a0] to [Debye]
 Dipole X            :          0.0000000            0.0000000            0.0000000
 Dipole Y            :          0.0000000            0.0000000            0.0000000
 Dipole Z            :          0.0000000            0.0000000            0.0000000
 Magnitude           :                                                    0.0000000

 L = 2.  Multiply by 1.3450342976 to convert [e a0^2] to [Debye ang]
 Quadrupole XX       :         -6.5575780            0.0000000           -6.5575780
 Quadrupole XY       :          0.0000000            0.0000000            0.0000000
 Quadrupole XZ       :          0.0000000            0.0000000            0.0000000
 Quadrupole YY       :         -6.0039266            0.0000000           -6.0039266
 Quadrupole YZ       :          0.0000000            0.0000000            0.0000000
 Quadrupole ZZ       :        -35.6401710           32.0073048           -3.6328662
 Traceless XX        :          9.5096472          -10.6691016           -1.1594544
 Traceless YY        :         10.0632986          -10.6691016           -0.6058030
 Traceless ZZ        :        -19.5729458           21.3382032            1.7652574

 ------------------------------------------------------------------------------------
  ==> Computing MBIS Charges <==

  Electron Count from Grid (Expected Number): 15.00000 (15.00000)
  Difference: -0.00000

  MBIS Charges: (a.u.)
   Center  Symbol  Z      Pop.       Charge
      1       O    8    7.499999    0.500001
      2       O    8    7.499999    0.500001

  MBIS Dipoles: [e a0]
   Center  Symbol  Z        X           Y           Z
      1       O    8   -0.000000    0.000000   -0.112124
      2       O    8   -0.000000    0.000000    0.112124

  MBIS Quadrupoles: [e a0^2]
   Center  Symbol  Z      XX        XY        XZ        YY        YZ        ZZ
      1       O    8   -3.2788    0.0000    0.0000   -3.0020    0.0000   -3.1338
      2       O    8   -3.2788    0.0000   -0.0000   -3.0020   -0.0000   -3.1338

  MBIS Octupoles: [e a0^3]
   Center  Symbol  Z      XXX       XXY       XXZ       XYY       XYZ       XZZ       YYY       YYZ       YZZ       ZZZ
      1       O    8   -0.0000   -0.0000   -0.1149    0.0000    0.0000   -0.0000    0.0000   -0.1657    0.0000   -0.4726
      2       O    8   -0.0000   -0.0000    0.1149    0.0000   -0.0000   -0.0000    0.0000    0.1657    0.0000    0.4726

  MBIS Radial Moments:
   Center  Symbol  Z      [a0^2]      [a0^3]      [a0^4]
      1       O    8    9.414585   16.661993   35.414842
      2       O    8    9.414585   16.661993   35.414842

  MBIS Valence Widths: [a0]
   Center  Symbol  Z     Width
      1       O    8    0.367367
      2       O    8    0.367367

*** tstop() called on Mac.lan at Sun Aug 10 18:14:05 2025
Module time:
	user time   =       3.59 seconds =       0.06 minutes
	system time =       2.18 seconds =       0.04 minutes
	total time  =          0 seconds =       0.00 minutes
Total time:
	user time   =      14.28 seconds =       0.24 minutes
	system time =       4.32 seconds =       0.07 minutes
	total time  =          1 seconds =       0.02 minutes

    Psi4 stopped on: Sunday, 10 August 2025 06:14PM
    Psi4 wall time for execution: 0:00:01.82

*** Psi4 exiting successfully. Buy a developer a beer!
