                               Psi4 1.9.1 release

  ==> Input File <==

--------------------------------------------------------------------------
molecule {
1 2
H           0.000000           0.000000           0.000000
H           0.000000           0.000000           1.322887
}

set {
basis              cc-pvtz
reference          uks
maxiter            500
DAMPING_PERCENTAGE 1
E_CONVERGENCE      1.0E-8
D_CONVERGENCE      1.0E-8
DIIS_MAX_VECS      400
MBIS_MAXITER       8000
guess              read
}

E, wfn = energy('b3lyp', restart_file='last_wfn', return_wfn=True)
properties('b3lyp','MBIS_CHARGES', wfn=wfn)
wfn.to_file('last_wfn')
--------------------------------------------------------------------------

    Molecular point group: d2h
  Charge       = 1
  Multiplicity = 2
  Basis Set: CC-PVTZ
    Blend: CC-PVTZ
  Basis Set: (CC-PVTZ AUX)
    Blend: CC-PVTZ-JKFIT
  @DF-UKS Final Energy:    -0.60596721597736
    Total Energy =                         -0.6059672159773555
 Dipole X            :          0.0000000            0.0000000            0.0000000
 Dipole Y            :          0.0000000            0.0000000            0.0000000
 Dipole Z            :          0.0000000            0.0000000            0.0000000
 Magnitude           :                                                    0.0000000
    Molecular point group: d2h

    Geometry (in Angstrom), charge = 1, multiplicity = 2:

       Center              X                  Y                   Z               Mass
    ------------   -----------------  -----------------  -----------------  -----------------
         H            0.000000000000     0.000000000000    -0.661443500000     1.007825032230
         H            0.000000000000     0.000000000000     0.661443500000     1.007825032230

  Charge       = 1
  Multiplicity = 2
  Basis Set: CC-PVTZ
    Blend: CC-PVTZ
  Basis Set: (CC-PVTZ AUX)
    Blend: CC-PVTZ-JKFIT

    Orbital Energies [Eh]
    ---------------------

    Alpha Occupied:

       1Ag    -0.835816

    Alpha Virtual:

       1B1u   -0.483274     2Ag    -0.068082     2B1u    0.018771
       1B2u    0.085922     1B3u    0.085922     3Ag     0.283783
       1B2g    0.413083     1B3g    0.413083     3B1u    0.824025
       4Ag     1.764411     4B1u    1.913222     5Ag     2.334160
       2B3u    2.356972     2B2u    2.356972     1B1g    2.602939
       6Ag     2.602939     1Au     2.855801     5B1u    2.855801
       3B2u    3.072281     3B3u    3.072281     2B2g    3.100030
       2B3g    3.100030     6B1u    3.271906     3B2g    3.515437
       3B3g    3.515437     7Ag     3.650246     7B1u    4.685007

    Beta Occupied:

    Beta Virtual:

       1Ag    -0.516413     1B1u   -0.276439     2Ag     0.024828
       2B1u    0.128541     1B2u    0.222173     1B3u    0.222173
       3Ag     0.431056     1B2g    0.533041     1B3g    0.533041
       3B1u    0.951316     4Ag     2.074482     4B1u    2.203202
       2B2u    2.551725     2B3u    2.551725     5Ag     2.566529
       1B1g    2.786894     6Ag     2.786895     1Au     3.039129
       5B1u    3.039130     3B2u    3.323853     3B3u    3.323853
       2B2g    3.353870     2B3g    3.353870     6B1u    3.522773
       3B3g    3.707340     3B2g    3.707340     7Ag     3.885364
       7B1u    4.904344

    Final Occupation by Irrep:
             Ag   B1g   B2g   B3g    Au   B1u   B2u   B3u
    DOCC [     0,    0,    0,    0,    0,    0,    0,    0 ]
    SOCC [     1,    0,    0,    0,    0,    0,    0,    0 ]
    NA   [     1,    0,    0,    0,    0,    0,    0,    0 ]
    NB   [     0,    0,    0,    0,    0,    0,    0,    0 ]

  @DF-UKS Final Energy:    -0.60596721594438

   => Energetics <=

    Nuclear Repulsion Energy =              0.4000169407288755
    One-Electron Energy =                  -0.9918737827579946
    Two-Electron Energy =                   0.2368278502539521
    DFT Exchange-Correlation Energy =      -0.2509382241692159
    Empirical Dispersion Energy =           0.0000000000000000
    VV10 Nonlocal Energy =                  0.0000000000000000
    Total Energy =                         -0.6059672159443830

  UHF NO Occupations:
  HONO-0 :    1 Ag 1.0000000
  LUNO+0 :    2 Ag 0.0000000
  LUNO+1 :    3 Ag 0.0000000
  LUNO+2 :    3B3u 0.0000000
  LUNO+3 :    2B3u 0.0000000

Computation Completed

Properties will be evaluated at   0.000000,   0.000000,   0.000000 [a0]

Properties computed using the B3LYP density matrix

 Multipole Moments:

 ------------------------------------------------------------------------------------
     Multipole            Electronic (a.u.)      Nuclear  (a.u.)        Total (a.u.)
 ------------------------------------------------------------------------------------

 L = 1.  Multiply by 2.5417464519 to convert [e a0] to [Debye]
 Dipole X            :          0.0000000            0.0000000            0.0000000
 Dipole Y            :          0.0000000            0.0000000            0.0000000
 Dipole Z            :          0.0000000            0.0000000            0.0000000
 Magnitude           :                                                    0.0000000

 L = 2.  Multiply by 1.3450342976 to convert [e a0^2] to [Debye ang]
 Quadrupole XX       :         -0.7081934            0.0000000           -0.7081934
 Quadrupole XY       :          0.0000000            0.0000000            0.0000000
 Quadrupole XZ       :          0.0000000            0.0000000            0.0000000
 Quadrupole YY       :         -0.7081934            0.0000000           -0.7081934
 Quadrupole YZ       :          0.0000000            0.0000000            0.0000000
 Quadrupole ZZ       :         -1.6463132            3.1247353            1.4784221
 Traceless XX        :          0.3127066           -1.0415784           -0.7288718
 Traceless YY        :          0.3127066           -1.0415784           -0.7288718
 Traceless ZZ        :         -0.6254132            2.0831569            1.4577437

 ------------------------------------------------------------------------------------
  ==> Computing MBIS Charges <==

  Electron Count from Grid (Expected Number):  1.00000 ( 1.00000)
  Difference:  0.00000

  MBIS Charges: (a.u.)
   Center  Symbol  Z      Pop.       Charge
      1       H    1    0.500000    0.500000
      2       H    1    0.500000    0.500000

  MBIS Dipoles: [e a0]
   Center  Symbol  Z        X           Y           Z
      1       H    1   -0.000000    0.000000   -0.127213
      2       H    1    0.000000    0.000000    0.127213

  MBIS Quadrupoles: [e a0^2]
   Center  Symbol  Z      XX        XY        XZ        YY        YZ        ZZ
      1       H    1   -0.3541   -0.0000   -0.0000   -0.3541   -0.0000   -0.3600
      2       H    1   -0.3541   -0.0000    0.0000   -0.3541    0.0000   -0.3600

  MBIS Octupoles: [e a0^3]
   Center  Symbol  Z      XXX       XXY       XXZ       XYY       XYZ       XZZ       YYY       YYZ       YZZ       ZZZ
      1       H    1    0.0000   -0.0000   -0.0973    0.0000   -0.0000    0.0000   -0.0000   -0.0973    0.0000   -0.2173
      2       H    1    0.0000   -0.0000    0.0973    0.0000    0.0000    0.0000    0.0000    0.0973    0.0000    0.2173

  MBIS Radial Moments:
   Center  Symbol  Z      [a0^2]      [a0^3]      [a0^4]
      1       H    1    1.068186    2.160672    5.182439
      2       H    1    1.068186    2.160672    5.182439

  MBIS Valence Widths: [a0]
   Center  Symbol  Z     Width
      1       H    1    0.429593
      2       H    1    0.429593

*** tstop() called on Mac.lan at Sun Aug 10 18:11:42 2025
Module time:
	user time   =       0.48 seconds =       0.01 minutes
	system time =       1.48 seconds =       0.02 minutes
	total time  =          0 seconds =       0.00 minutes
Total time:
	user time   =       1.53 seconds =       0.03 minutes
	system time =       3.24 seconds =       0.05 minutes
	total time  =          0 seconds =       0.00 minutes

    Psi4 stopped on: Sunday, 10 August 2025 06:11PM
    Psi4 wall time for execution: 0:00:00.62

*** Psi4 exiting successfully. Buy a developer a beer!
