                               Psi4 1.9.1 release

  ==> Input File <==

--------------------------------------------------------------------------
molecule {
1 3
N           0.000000           0.000000           0.000000
C           0.000000           0.000000           1.281831
}

set {
basis              cc-pvtz
reference          uks
maxiter            500
DAMPING_PERCENTAGE 1
E_CONVERGENCE      1.0E-8
D_CONVERGENCE      1.0E-8
DIIS_MAX_VECS      400
MBIS_MAXITER       8000
guess              SAP
}

E, wfn = energy('b3lyp', return_wfn=True)
properties('b3lyp','MBIS_CHARGES', wfn=wfn)
wfn.to_file('last_wfn')
--------------------------------------------------------------------------

    Molecular point group: c2v
  Charge       = 1
  Multiplicity = 3
  Basis Set: CC-PVTZ
    Blend: CC-PVTZ
  Basis Set: (CC-PVTZ AUX)
    Blend: CC-PVTZ-JKFIT
  @DF-UKS Final Energy:   -92.22724715716973
    Total Energy =                        -92.2272471571697281
 Dipole X            :          0.0000000            0.0000000            0.0000000
 Dipole Y            :          0.0000000            0.0000000            0.0000000
 Dipole Z            :          0.6938928            0.0017181            0.6956109
 Magnitude           :                                                    0.6956109
    Molecular point group: c2v

    Geometry (in Angstrom), charge = 1, multiplicity = 3:

       Center              X                  Y                   Z               Mass
    ------------   -----------------  -----------------  -----------------  -----------------
         N            0.000000000000     0.000000000000    -0.591544368846    14.003074004430
         C            0.000000000000     0.000000000000     0.690286631154    12.000000000000

  Charge       = 1
  Multiplicity = 3
  Basis Set: CC-PVTZ
    Blend: CC-PVTZ
  Basis Set: (CC-PVTZ AUX)
    Blend: CC-PVTZ-JKFIT

    Orbital Energies [Eh]
    ---------------------

    Alpha Occupied:

       1A1   -14.857263     2A1   -10.773063     3A1    -1.363758
       4A1    -0.911207     1B1    -0.806644     5A1    -0.792632
       1B2    -0.764352

    Alpha Virtual:

       2B1    -0.463199     2B2    -0.430825     6A1    -0.111698
       3B1    -0.002337     7A1     0.004108     3B2     0.007589
       8A1     0.075131     9A1     0.153319     4B1     0.198644
       4B2     0.216721     1A2     0.274106    10A1     0.274586
       5B1     0.421939     5B2     0.444091    11A1     0.560463
       2A2     0.763529    12A1     0.764004    13A1     0.805214
       6B1     1.103729     6B2     1.126276    14A1     1.348784
       7B1     1.572345     7B2     1.592846    15A1     1.758493
       8B1     2.231784     8B2     2.231900    16A1     2.262650
       3A2     2.262743     9B1     2.282426     9B2     2.312748
      17A1     2.422893    10B1     2.475380    18A1     2.500685
       4A2     2.500985    10B2     2.505453    19A1     2.605668
      11B1     2.921173    11B2     2.948332    20A1     3.185988
      12B1     3.479023    12B2     3.479173    21A1     3.821163
       5A2     3.821288    22A1     4.072348     6A2     4.072404
      13B1     4.257571    13B2     4.295631    23A1     4.336387
      14B1     4.825494    24A1     4.838943    14B2     4.856511
      25A1     5.043752    26A1    10.081730

    Beta Occupied:

       1A1   -14.838400     2A1   -10.750323     3A1    -1.295536
       4A1    -0.817832     1B2    -0.742788

    Beta Virtual:

       1B1    -0.629314     5A1    -0.609001     2B2    -0.396323
       2B1    -0.360516     6A1    -0.086944     3B2     0.015107
       3B1     0.021196     7A1     0.039209     8A1     0.124264
       9A1     0.186143     4B2     0.221385     4B1     0.231727
       1A2     0.304176    10A1     0.306383     5B2     0.477985
       5B1     0.483296    11A1     0.584458     2A2     0.795629
      12A1     0.798353    13A1     0.852866     6B2     1.147903
       6B1     1.153255    14A1     1.385214     7B2     1.611665
       7B1     1.619669    15A1     1.822639     8B2     2.273765
       8B1     2.274660     3A2     2.306480    16A1     2.309129
       9B2     2.340385     9B1     2.357124    17A1     2.481487
      10B2     2.553195     4A2     2.565005    10B1     2.568675
      18A1     2.569436    19A1     2.688659    11B2     2.996611
      11B1     3.005081    20A1     3.247829    12B2     3.521581
      12B1     3.522936     5A2     3.868985    21A1     3.874107
       6A2     4.123421    22A1     4.128984    13B2     4.325827
      13B1     4.345118    23A1     4.391634    14B2     4.885308
      24A1     4.890187    14B1     4.893021    25A1     5.075098
      26A1    10.118658

    Final Occupation by Irrep:
             A1    A2    B1    B2
    DOCC [     4,    0,    0,    1 ]
    SOCC [     1,    0,    1,    0 ]
    NA   [     5,    0,    1,    1 ]
    NB   [     4,    0,    0,    1 ]

  @DF-UKS Final Energy:   -92.22724715716973

   => Energetics <=

    Nuclear Repulsion Energy =             17.3388245783882589
    One-Electron Energy =                -153.5838455230597219
    Two-Electron Energy =                  53.5008932931600114
    DFT Exchange-Correlation Energy =      -9.4831195056582729
    Empirical Dispersion Energy =           0.0000000000000000
    VV10 Nonlocal Energy =                  0.0000000000000000
    Total Energy =                        -92.2272471571697281

  UHF NO Occupations:
  HONO-2 :    4 A1 1.9988568
  HONO-1 :    5 A1 1.0000000
  HONO-0 :    1 B1 1.0000000
  LUNO+0 :    6 A1 0.0011432
  LUNO+1 :    2 B2 0.0010851
  LUNO+2 :    7 A1 0.0003089
  LUNO+3 :    8 A1 0.0000005

Computation Completed

Properties will be evaluated at   0.000000,   0.000000,   0.000000 [a0]

Properties computed using the B3LYP density matrix

 Multipole Moments:

 ------------------------------------------------------------------------------------
     Multipole            Electronic (a.u.)      Nuclear  (a.u.)        Total (a.u.)
 ------------------------------------------------------------------------------------

 L = 1.  Multiply by 2.5417464519 to convert [e a0] to [Debye]
 Dipole X            :          0.0000000            0.0000000            0.0000000
 Dipole Y            :          0.0000000            0.0000000            0.0000000
 Dipole Z            :          0.6938928            0.0017181            0.6956109
 Magnitude           :                                                    0.6956109

 L = 2.  Multiply by 1.3450342976 to convert [e a0^2] to [Debye ang]
 Quadrupole XX       :         -5.7936302            0.0000000           -5.7936302
 Quadrupole XY       :          0.0000000            0.0000000            0.0000000
 Quadrupole XZ       :          0.0000000            0.0000000            0.0000000
 Quadrupole YY       :         -6.8231546            0.0000000           -6.8231546
 Quadrupole YZ       :          0.0000000            0.0000000            0.0000000
 Quadrupole ZZ       :        -23.4614343           18.9568083           -4.5046260
 Traceless XX        :          6.2324428           -6.3189361           -0.0864933
 Traceless YY        :          5.2029185           -6.3189361           -1.1160177
 Traceless ZZ        :        -11.4353613           12.6378722            1.2025109

 ------------------------------------------------------------------------------------
  ==> Computing MBIS Charges <==

  Electron Count from Grid (Expected Number): 12.00000 (12.00000)
  Difference:  0.00000

  MBIS Charges: (a.u.)
   Center  Symbol  Z      Pop.       Charge
      1       N    7    6.764188    0.235812
      2       C    6    5.235812    0.764188

  MBIS Dipoles: [e a0]
   Center  Symbol  Z        X           Y           Z
      1       N    7   -0.000000    0.000000   -0.179569
      2       C    6    0.000000    0.000000    0.141937

  MBIS Quadrupoles: [e a0^2]
   Center  Symbol  Z      XX        XY        XZ        YY        YZ        ZZ
      1       N    7   -3.1501   -0.0000    0.0000   -3.7100    0.0000   -3.7555
      2       C    6   -2.6435    0.0000   -0.0000   -3.1131    0.0000   -3.1159

  MBIS Octupoles: [e a0^3]
   Center  Symbol  Z      XXX       XXY       XXZ       XYY       XYZ       XZZ       YYY       YYZ       YZZ       ZZZ
      1       N    7    0.0000   -0.0000   -0.1290    0.0000    0.0000   -0.0000   -0.0000   -0.2846    0.0000   -0.5219
      2       C    6   -0.0000   -0.0000    0.0720   -0.0000   -0.0000    0.0000    0.0000    0.2333    0.0000    0.3282

  MBIS Radial Moments:
   Center  Symbol  Z      [a0^2]      [a0^3]      [a0^4]
      1       N    7   10.615607   20.948030   49.274349
      2       C    6    8.872579   18.878290   47.863401

  MBIS Valence Widths: [a0]
   Center  Symbol  Z     Width
      1       N    7    0.419281
      2       C    6    0.458482

*** tstop() called on Mac.lan at Sun Aug 10 18:33:41 2025
Module time:
	user time   =      17.94 seconds =       0.30 minutes
	system time =       2.63 seconds =       0.04 minutes
	total time  =          2 seconds =       0.03 minutes
Total time:
	user time   =      45.52 seconds =       0.76 minutes
	system time =       5.08 seconds =       0.08 minutes
	total time  =          5 seconds =       0.08 minutes

    Psi4 stopped on: Sunday, 10 August 2025 06:33PM
    Psi4 wall time for execution: 0:00:04.96

*** Psi4 exiting successfully. Buy a developer a beer!
