                               Psi4 1.9.1 release

  ==> Input File <==

--------------------------------------------------------------------------
molecule {
1 2
N           0.000000           0.000000           0.000000
N           0.000000           0.000000           1.068700
}

set {
basis              cc-pvtz
reference          uks
maxiter            500
DAMPING_PERCENTAGE 1
E_CONVERGENCE      1.0E-8
D_CONVERGENCE      1.0E-8
DIIS_MAX_VECS      400
MBIS_MAXITER       8000
guess              read
}

E, wfn = energy('b3lyp', restart_file='last_wfn', return_wfn=True)
properties('b3lyp','MBIS_CHARGES', wfn=wfn)
wfn.to_file('last_wfn')
--------------------------------------------------------------------------

    Molecular point group: d2h
  Charge       = 1
  Multiplicity = 2
  Basis Set: CC-PVTZ
    Blend: CC-PVTZ
  Basis Set: (CC-PVTZ AUX)
    Blend: CC-PVTZ-JKFIT
  @DF-UKS Final Energy:  -108.98443346166532
    Total Energy =                       -108.9844334616653185
 Dipole X            :          0.0000000            0.0000000            0.0000000
 Dipole Y            :          0.0000000            0.0000000            0.0000000
 Dipole Z            :          0.0000000            0.0000000            0.0000000
 Magnitude           :                                                    0.0000000
    Molecular point group: d2h

    Geometry (in Angstrom), charge = 1, multiplicity = 2:

       Center              X                  Y                   Z               Mass
    ------------   -----------------  -----------------  -----------------  -----------------
         N            0.000000000000     0.000000000000    -0.534350000000    14.003074004430
         N            0.000000000000     0.000000000000     0.534350000000    14.003074004430

  Charge       = 1
  Multiplicity = 2
  Basis Set: CC-PVTZ
    Blend: CC-PVTZ
  Basis Set: (CC-PVTZ AUX)
    Blend: CC-PVTZ-JKFIT

    Orbital Energies [Eh]
    ---------------------

    Alpha Occupied:

       1Ag   -14.912700     1B1u  -14.910377     2Ag    -1.597616
       2B1u   -1.009527     3Ag    -0.910737     1B3u   -0.902387
       1B2u   -0.902387

    Alpha Virtual:

       1B3g   -0.433180     1B2g   -0.433180     3B1u    0.008946
       2B3u    0.071550     2B2u    0.071550     4Ag     0.099692
       5Ag     0.126307     2B3g    0.222963     2B2g    0.222963
       4B1u    0.293564     1B1g    0.463833     6Ag     0.463833
       5B1u    0.561101     3B3u    0.712148     3B2u    0.712148
       6B1u    0.907506     1Au     0.907506     7Ag     1.291238
       3B3g    1.313161     3B2g    1.313161     7B1u    1.553513
       4B3u    2.315251     4B2u    2.315251     8Ag     2.494825
       4B2g    2.685707     4B3g    2.685707     8B1u    2.904636
       2B1g    3.047584     9Ag     3.047584     5B3u    3.165009
       5B2u    3.165009     6B2u    3.176540     6B3u    3.176540
      10Ag     3.507535     5B3g    3.690256     5B2g    3.690256
       3B1g    3.911033    11Ag     3.911035     6B2g    3.986015
       6B3g    3.986015     2Au     4.049674     9B1u    4.049677
      10B1u    4.244216    11B1u    4.545183     3Au     4.545183
       7B3u    4.573124     7B2u    4.573124    12Ag     4.628225
      12B1u    5.302635     7B2g    6.081355     7B3g    6.081355
      13Ag     6.196544    13B1u   16.524079

    Beta Occupied:

       1Ag   -14.899249     1B1u  -14.897231     2Ag    -1.567828
       2B1u   -0.916801     1B3u   -0.889173     1B2u   -0.889173

    Beta Virtual:

       3Ag    -0.730442     1B3g   -0.409255     1B2g   -0.409255
       3B1u    0.019297     2B3u    0.075663     2B2u    0.075663
       4Ag     0.116388     5Ag     0.154386     2B3g    0.228750
       2B2g    0.228750     4B1u    0.354012     1B1g    0.467922
       6Ag     0.467922     5B1u    0.568248     3B3u    0.744213
       3B2u    0.744213     1Au     0.918222     6B1u    0.918222
       7Ag     1.331424     3B3g    1.338859     3B2g    1.338859
       7B1u    1.593000     4B3u    2.325713     4B2u    2.325713
       8Ag     2.530209     4B2g    2.695294     4B3g    2.695294
       8B1u    2.955003     2B1g    3.064676     9Ag     3.064676
       5B2u    3.182297     5B3u    3.182297     6B3u    3.199677
       6B2u    3.199677    10Ag     3.583774     5B3g    3.698074
       5B2g    3.698074     3B1g    3.929273    11Ag     3.929276
       6B2g    4.048497     6B3g    4.048497     2Au     4.065117
       9B1u    4.065119    10B1u    4.293708    11B1u    4.569171
       3Au     4.569172     7B3u    4.627739     7B2u    4.627739
      12Ag     4.665934    12B1u    5.364991     7B2g    6.114899
       7B3g    6.114899    13Ag     6.231790    13B1u   16.543012

    Final Occupation by Irrep:
             Ag   B1g   B2g   B3g    Au   B1u   B2u   B3u
    DOCC [     2,    0,    0,    0,    0,    2,    1,    1 ]
    SOCC [     1,    0,    0,    0,    0,    0,    0,    0 ]
    NA   [     3,    0,    0,    0,    0,    2,    1,    1 ]
    NB   [     2,    0,    0,    0,    0,    2,    1,    1 ]

  @DF-UKS Final Energy:  -108.98443346172566

   => Energetics <=

    Nuclear Repulsion Energy =             24.2628271009918599
    One-Electron Energy =                -189.5371092922369485
    Two-Electron Energy =                  67.0619275716868373
    DFT Exchange-Correlation Energy =     -10.7720788421674136
    Empirical Dispersion Energy =           0.0000000000000000
    VV10 Nonlocal Energy =                  0.0000000000000000
    Total Energy =                       -108.9844334617256578

  UHF NO Occupations:
  HONO-2 :    2 Ag 1.9998978
  HONO-1 :    2B1u 1.9985179
  HONO-0 :    3 Ag 1.0000000
  LUNO+0 :    3B1u 0.0014821
  LUNO+1 :    4 Ag 0.0001022
  LUNO+2 :    2B3u 0.0000876
  LUNO+3 :    2B2u 0.0000876

Computation Completed

Properties will be evaluated at   0.000000,   0.000000,   0.000000 [a0]

Properties computed using the B3LYP density matrix

 Multipole Moments:

 ------------------------------------------------------------------------------------
     Multipole            Electronic (a.u.)      Nuclear  (a.u.)        Total (a.u.)
 ------------------------------------------------------------------------------------

 L = 1.  Multiply by 2.5417464519 to convert [e a0] to [Debye]
 Dipole X            :          0.0000000            0.0000000            0.0000000
 Dipole Y            :          0.0000000            0.0000000            0.0000000
 Dipole Z            :          0.0000000            0.0000000            0.0000000
 Magnitude           :                                                    0.0000000

 L = 2.  Multiply by 1.3450342976 to convert [e a0^2] to [Debye ang]
 Quadrupole XX       :         -6.0870201            0.0000000           -6.0870201
 Quadrupole XY       :          0.0000000            0.0000000            0.0000000
 Quadrupole XZ       :          0.0000000            0.0000000            0.0000000
 Quadrupole YY       :         -6.0870201            0.0000000           -6.0870201
 Quadrupole YZ       :          0.0000000            0.0000000            0.0000000
 Quadrupole ZZ       :        -18.7512003           14.2750421           -4.4761582
 Traceless XX        :          4.2213934           -4.7583474           -0.5369540
 Traceless YY        :          4.2213934           -4.7583474           -0.5369540
 Traceless ZZ        :         -8.4427868            9.5166947            1.0739079

 ------------------------------------------------------------------------------------
  ==> Computing MBIS Charges <==

  Electron Count from Grid (Expected Number): 13.00000 (13.00000)
  Difference: -0.00000

  MBIS Charges: (a.u.)
   Center  Symbol  Z      Pop.       Charge
      1       N    7    6.500000    0.500000
      2       N    7    6.500000    0.500000

  MBIS Dipoles: [e a0]
   Center  Symbol  Z        X           Y           Z
      1       N    7   -0.000000    0.000000   -0.215498
      2       N    7    0.000000   -0.000000    0.215498

  MBIS Quadrupoles: [e a0^2]
   Center  Symbol  Z      XX        XY        XZ        YY        YZ        ZZ
      1       N    7   -3.0435    0.0000   -0.0000   -3.0435   -0.0000   -3.1831
      2       N    7   -3.0435    0.0000    0.0000   -3.0435   -0.0000   -3.1831

  MBIS Octupoles: [e a0^3]
   Center  Symbol  Z      XXX       XXY       XXZ       XYY       XYZ       XZZ       YYY       YYZ       YZZ       ZZZ
      1       N    7   -0.0000   -0.0000   -0.1823   -0.0000    0.0000    0.0000   -0.0000   -0.1823   -0.0000   -0.4060
      2       N    7   -0.0000   -0.0000    0.1823   -0.0000   -0.0000    0.0000   -0.0000    0.1823   -0.0000    0.4060

  MBIS Radial Moments:
   Center  Symbol  Z      [a0^2]      [a0^3]      [a0^4]
      1       N    7    9.270131   17.489850   39.362224
      2       N    7    9.270131   17.489850   39.362224

  MBIS Valence Widths: [a0]
   Center  Symbol  Z     Width
      1       N    7    0.401290
      2       N    7    0.401290

*** tstop() called on Mac.lan at Sun Aug 10 18:24:08 2025
Module time:
	user time   =       4.24 seconds =       0.07 minutes
	system time =       2.29 seconds =       0.04 minutes
	total time  =          1 seconds =       0.02 minutes
Total time:
	user time   =      17.29 seconds =       0.29 minutes
	system time =       4.58 seconds =       0.08 minutes
	total time  =          2 seconds =       0.03 minutes

    Psi4 stopped on: Sunday, 10 August 2025 06:24PM
    Psi4 wall time for execution: 0:00:02.16

*** Psi4 exiting successfully. Buy a developer a beer!
